Automatically generated mesh
       9
Reciprocal lattice
    0.00000000000000    0.00000000000000    0.00000000000000             1
    0.50000000000000    0.00000000000000    0.00000000000000             2
    0.50000000000000    0.50000000000000    0.00000000000000             1
    0.00000000000000    0.00000000000000    0.25000000000000             2
    0.50000000000000    0.00000000000000    0.25000000000000             4
    0.50000000000000    0.50000000000000    0.25000000000000             2
    0.00000000000000    0.00000000000000    0.50000000000000             1
    0.50000000000000    0.00000000000000    0.50000000000000             2
    0.50000000000000    0.50000000000000    0.50000000000000             1
Tetrahedra
        24    0.01041666666667
         4         2         2         3         5
         4         1         2         2         5
         4         1         2         4         5
         4         2         3         5         6
         4         2         5         5         6
         4         2         4         5         5
         4         1         2         3         6
         4         1         2         5         6
         4         1         4         5         6
         4         1         2         3         4
         4         2         3         4         5
         4         3         4         5         6
         4         5         5         6         8
         4         4         5         5         8
         4         4         5         7         8
         4         5         6         8         9
         4         5         8         8         9
         4         5         7         8         8
         4         4         5         6         9
         4         4         5         8         9
         4         4         7         8         9
         4         4         5         6         7
         4         5         6         7         8
         4         6         7         8         9
