 vasp.5.4.4.18Apr17-6-g9f103f2a35 (build Dec 20 2018 12:05:58) complex          
  
 executed on             LinuxIFC date 2019.06.21  00:06:10
 running on   32 total cores
 distrk:  each k-point on    8 cores,    4 groups
 distr:  one band on NCORES_PER_BAND=   4 cores,    2 groups


--------------------------------------------------------------------------------------------------------


 INCAR:
 POTCAR:    PAW_PBE Al 04Jan2001                  
 POTCAR:    PAW_PBE Mn 06Sep2000                  

 ----------------------------------------------------------------------------- 
|                                                                             |
|           W    W    AA    RRRRR   N    N  II  N    N   GGGG   !!!           |
|           W    W   A  A   R    R  NN   N  II  NN   N  G    G  !!!           |
|           W    W  A    A  R    R  N N  N  II  N N  N  G       !!!           |
|           W WW W  AAAAAA  RRRRR   N  N N  II  N  N N  G  GGG   !            |
|           WW  WW  A    A  R   R   N   NN  II  N   NN  G    G                |
|           W    W  A    A  R    R  N    N  II  N    N   GGGG   !!!           |
|                                                                             |
|      You have enabled k-point parallelism (KPAR>1).                         |
|      This developmental code was originally  written by Paul Kent at ORNL,  |
|      and carefully double checked in Vienna.                                |
|      GW as well as linear response parallelism added by Martijn Marsman     |
|      and Georg Kresse.                                                      |
|      Carefully verify results versus KPAR=1.                                |
|      Report problems to Paul Kent and Vienna.                               |
|                                                                             |
 ----------------------------------------------------------------------------- 

 POTCAR:    PAW_PBE Al 04Jan2001                  
   VRHFIN =Al: s2p1                                                             
   LEXCH  = PE                                                                  
   EATOM  =    53.5387 eV,    3.9350 Ry                                         
                                                                                
   TITEL  = PAW_PBE Al 04Jan2001                                                
   LULTRA =        F    use ultrasoft PP ?                                      
   IUNSCR =        1    unscreen: 0-lin 1-nonlin 2-no                           
   RPACOR =    1.500    partial core radius                                     
   POMASS =   26.981; ZVAL   =    3.000    mass and valenz                      
   RCORE  =    1.900    outmost cutoff radius                                   
   RWIGS  =    2.650; RWIGS  =    1.402    wigner-seitz radius (au A)           
   ENMAX  =  240.300; ENMIN  =  180.225 eV                                      
   ICORE  =        2    local potential                                         
   LCOR   =        T    correct aug charges                                     
   LPAW   =        T    paw PP                                                  
   EAUG   =  291.052                                                            
   DEXC   =    0.000                                                            
   RMAX   =    1.939    core radius for proj-oper                               
   RAUG   =    1.300    factor for augmentation sphere                          
   RDEP   =    1.966    radius for radial grids                                 
   RDEPT  =    1.856    core radius for aug-charge                              
                                                                                
   Atomic configuration                                                         
    6 entries                                                                   
     n  l   j            E        occ.                                          
     1  0  0.50     -1511.1048   2.0000                                         
     2  0  0.50      -108.1629   2.0000                                         
     2  1  1.50       -69.6402   6.0000                                         
     3  0  0.50        -7.7528   2.0000                                         
     3  1  1.50        -2.7121   1.0000                                         
     3  2  2.50        -2.7212   0.0000                                         
   Description                                                                  
     l       E           TYP  RCUT    TYP  RCUT                                 
     0     -7.7528455     23  1.900                                             
     0     -3.3096929     23  1.900                                             
     1     -2.7120682     23  1.900                                             
     1     13.6058260     23  1.900                                             
     2     -2.7211652      7  1.900                                             
  local pseudopotential read in
  partial core-charges read in
  partial kinetic energy density read in
  atomic valenz-charges read in
  non local Contribution for L=           0  read in
    real space projection operators read in
  non local Contribution for L=           0  read in
    real space projection operators read in
  non local Contribution for L=           1  read in
    real space projection operators read in
  non local Contribution for L=           1  read in
    real space projection operators read in
    PAW grid and wavefunctions read in
 
   number of l-projection  operators is LMAX  =           4
   number of lm-projection operators is LMMAX =           8
 
 POTCAR:    PAW_PBE Mn 06Sep2000                  
   VRHFIN =Mn: d6 s1                                                            
   LEXCH  = PE                                                                  
   EATOM  =   416.7541 eV,   30.6306 Ry                                         
                                                                                
   TITEL  = PAW_PBE Mn 06Sep2000                                                
   LULTRA =        F    use ultrasoft PP ?                                      
   IUNSCR =        1    unscreen: 0-lin 1-nonlin 2-no                           
   RPACOR =    2.000    partial core radius                                     
   POMASS =   54.938; ZVAL   =    7.000    mass and valenz                      
   RCORE  =    2.300    outmost cutoff radius                                   
   RWIGS  =    2.500; RWIGS  =    1.323    wigner-seitz radius (au A)           
   ENMAX  =  269.864; ENMIN  =  202.398 eV                                      
   RCLOC  =    1.725    cutoff for local pot                                    
   LCOR   =        T    correct aug charges                                     
   LPAW   =        T    paw PP                                                  
   EAUG   =  500.711                                                            
   DEXC   =    0.000                                                            
   RMAX   =    2.343    core radius for proj-oper                               
   RAUG   =    1.300    factor for augmentation sphere                          
   RDEP   =    2.338    radius for radial grids                                 
   RDEPT  =    1.911    core radius for aug-charge                              
                                                                                
   Atomic configuration                                                         
    9 entries                                                                   
     n  l   j            E        occ.                                          
     1  0  0.50     -6424.8288   2.0000                                         
     2  0  0.50      -739.1154   2.0000                                         
     2  1  1.50      -625.3949   6.0000                                         
     3  0  0.50       -81.6100   2.0000                                         
     3  1  1.50       -50.4667   6.0000                                         
     3  2  2.50        -3.3745   6.0000                                         
     4  0  0.50        -4.1331   1.0000                                         
     4  1  0.50        -4.0817   0.0000                                         
     4  3  2.50        -1.3606   0.0000                                         
   Description                                                                  
     l       E           TYP  RCUT    TYP  RCUT                                 
     2     -3.3744664     23  2.300                                             
     2     -4.7350490     23  2.300                                             
     0     -4.1331408     23  2.300                                             
     0      7.6656614     23  2.300                                             
     1     -2.7211652     23  2.300                                             
     1     20.4087390     23  2.300                                             
  local pseudopotential read in
  partial core-charges read in
  partial kinetic energy density read in
  atomic valenz-charges read in
  non local Contribution for L=           2  read in
    real space projection operators read in
  non local Contribution for L=           2  read in
    real space projection operators read in
  non local Contribution for L=           0  read in
    real space projection operators read in
  non local Contribution for L=           0  read in
    real space projection operators read in
  non local Contribution for L=           1  read in
    real space projection operators read in
  non local Contribution for L=           1  read in
    real space projection operators read in
    PAW grid and wavefunctions read in
 
   number of l-projection  operators is LMAX  =           6
   number of lm-projection operators is LMMAX =          18
 

 ----------------------------------------------------------------------------- 
|                                                                             |
|  ADVICE TO THIS USER RUNNING 'VASP/VAMP'   (HEAR YOUR MASTER'S VOICE ...):  |
|                                                                             |
|      You have a (more or less) 'large supercell' and for larger cells       |
|      it might be more efficient to use real space projection opertators     |
|      So try LREAL= Auto  in the INCAR   file.                               |
|      Mind:          For very  accurate calculation you might also keep the  |
|      reciprocal projection scheme          (i.e. LREAL=.FALSE.)             |
|                                                                             |
 ----------------------------------------------------------------------------- 

  PAW_PBE Al 04Jan2001                  :
 energy of atom  1       EATOM=  -53.5387
 kinetic energy error for atom=    0.0005 (will be added to EATOM!!)
  PAW_PBE Mn 06Sep2000                  :
 energy of atom  2       EATOM= -416.7541
 kinetic energy error for atom=    0.0080 (will be added to EATOM!!)
 
 
 POSCAR: NewRef: 27, @ ['Mn', array([1.37502469, 
  positions in cartesian coordinates
  velocities in cartesian coordinates
  No initial velocities read in
 exchange correlation table for  LEXCH =        8
   RHO(1)=    0.500       N(1)  =     2000
   RHO(2)=  100.500       N(2)  =     4000
 


--------------------------------------------------------------------------------------------------------


 ion  position               nearest neighbor table
   1  0.000  0.000  0.000-  28 2.61  30 2.61  34 2.61  36 2.61  46 2.61  48 2.61  52 2.61  54 2.61
                             4 2.75  10 2.75   7 2.75  19 2.75
   2  0.000  0.000  0.333-  28 2.61  34 2.61  46 2.61  52 2.61  29 2.61  47 2.61  35 2.61  53 2.61
                             5 2.75  11 2.75   8 2.75  20 2.75
   3  0.000  0.000  0.667-  29 2.61  35 2.61  47 2.61  53 2.61  30 2.61  48 2.61  36 2.61  54 2.61
                             6 2.75  12 2.75   9 2.75  21 2.75
   4  0.000  0.333  0.000-  28 2.61  30 2.61  46 2.61  48 2.61  31 2.61  33 2.61  49 2.61  51 2.61
                            13 2.75   1 2.75   7 2.75  22 2.75
   5  0.000  0.333  0.333-  28 2.61  46 2.61  31 2.61  49 2.61  47 2.61  29 2.61  32 2.61  50 2.61
                            14 2.75   2 2.75   8 2.75  23 2.75
   6  0.000  0.333  0.667-  29 2.61  47 2.61  32 2.61  50 2.61  48 2.61  30 2.61  33 2.61  51 2.61
                            15 2.75   3 2.75   9 2.75  24 2.75
   7  0.000  0.667  0.000-  31 2.61  33 2.61  49 2.61  51 2.61  34 2.61  36 2.61  52 2.61  54 2.61
                             4 2.75  16 2.75   1 2.75  25 2.75
   8  0.000  0.667  0.333-  31 2.61  49 2.61  34 2.61  52 2.61  50 2.61  32 2.61  35 2.61  53 2.61
                             5 2.75  17 2.75   2 2.75  26 2.75
   9  0.000  0.667  0.667-  32 2.61  50 2.61  35 2.61  53 2.61  51 2.61  33 2.61  36 2.61  54 2.61
                             6 2.75  18 2.75   3 2.75  27 2.75
  10  0.333  0.000  0.000-  28 2.61  30 2.61  34 2.61  36 2.61  37 2.61  39 2.61  43 2.61  45 2.61
                            19 2.75   1 2.75  13 2.75  16 2.75
  11  0.333  0.000  0.333-  28 2.61  34 2.61  37 2.61  43 2.61  29 2.61  35 2.61  38 2.61  44 2.61
                            20 2.75   2 2.75  14 2.75  17 2.75
  12  0.333  0.000  0.667-  29 2.61  35 2.61  38 2.61  44 2.61  30 2.61  36 2.61  39 2.61  45 2.61
                            21 2.75   3 2.75  15 2.75  18 2.75
  13  0.333  0.333  0.000-  28 2.61  30 2.61  31 2.61  33 2.61  37 2.61  39 2.61  40 2.61  42 2.61
                             4 2.75  10 2.75  16 2.75  22 2.75
  14  0.333  0.333  0.333-  28 2.61  31 2.61  37 2.61  29 2.61  40 2.61  38 2.61  32 2.61  41 2.61
                             5 2.75  11 2.75  17 2.75  23 2.75
  15  0.333  0.333  0.667-  29 2.61  32 2.61  38 2.61  30 2.61  41 2.61  39 2.61  33 2.61  42 2.61
                             6 2.75  12 2.75  18 2.75  24 2.75
  16  0.333  0.667  0.000-  31 2.61  33 2.61  34 2.61  36 2.61  40 2.61  42 2.61  43 2.61  45 2.61
                            25 2.75   7 2.75  13 2.75  10 2.75
  17  0.333  0.667  0.333-  31 2.61  34 2.61  40 2.61  32 2.61  43 2.61  41 2.61  35 2.61  44 2.61
                            26 2.75   8 2.75  14 2.75  11 2.75
  18  0.333  0.667  0.667-  32 2.61  35 2.61  41 2.61  33 2.61  44 2.61  42 2.61  36 2.61  45 2.61
                            27 2.75   9 2.75  15 2.75  12 2.75
  19  0.667  0.000  0.000-  37 2.61  39 2.61  43 2.61  45 2.61  46 2.61  48 2.61  52 2.61  54 2.61
                            10 2.75  22 2.75   1 2.75  25 2.75
  20  0.667  0.000  0.333-  37 2.61  43 2.61  46 2.61  52 2.61  38 2.61  44 2.61  47 2.61  53 2.61
                            11 2.75  23 2.75   2 2.75  26 2.75
  21  0.667  0.000  0.667-  38 2.61  44 2.61  47 2.61  53 2.61  39 2.61  45 2.61  48 2.61  54 2.61
                            12 2.75  24 2.75   3 2.75  27 2.75
  22  0.667  0.333  0.000-  37 2.61  39 2.61  40 2.61  42 2.61  46 2.61  48 2.61  49 2.61  51 2.61
                            25 2.75  13 2.75  19 2.75   4 2.75
  23  0.667  0.333  0.333-  37 2.61  40 2.61  46 2.61  38 2.61  49 2.61  47 2.61  41 2.61  50 2.61
                            26 2.75  14 2.75  20 2.75   5 2.75
  24  0.667  0.333  0.667-  38 2.61  41 2.61  47 2.61  39 2.61  50 2.61  48 2.61  42 2.61  51 2.61
                            27 2.75  15 2.75  21 2.75   6 2.75
  25  0.667  0.667  0.000-  40 2.61  42 2.61  43 2.61  45 2.61  49 2.61  51 2.61  52 2.61  54 2.61
                            16 2.75  22 2.75  19 2.75   7 2.75
  26  0.667  0.667  0.333-  40 2.61  43 2.61  49 2.61  41 2.61  52 2.61  50 2.61  44 2.61  53 2.61
                            17 2.75  23 2.75  20 2.75   8 2.75
  27  0.667  0.667  0.667-  41 2.61  44 2.61  50 2.61  42 2.61  53 2.61  51 2.61  45 2.61  54 2.61
                            18 2.75  24 2.75  21 2.75   9 2.75
  28  0.167  0.167  0.167-  14 2.61  11 2.61   5 2.61  13 2.61   2 2.61  10 2.61   4 2.61   1 2.61
                            31 2.75  37 2.75  34 2.75  46 2.75
  29  0.167  0.167  0.500-  15 2.61  12 2.61   6 2.61  14 2.61   3 2.61  11 2.61   5 2.61   2 2.61
                            32 2.75  38 2.75  35 2.75  47 2.75
  30  0.167  0.167  0.833-  13 2.61  15 2.61  10 2.61  12 2.61   4 2.61   6 2.61   1 2.61   3 2.61
                            33 2.75  39 2.75  36 2.75  48 2.75
  31  0.167  0.500  0.167-  17 2.61  14 2.61   8 2.61  16 2.61   5 2.61  13 2.61   7 2.61   4 2.61
                            28 2.75  34 2.75  40 2.75  49 2.75
  32  0.167  0.500  0.500-  18 2.61  15 2.61   9 2.61  17 2.61   6 2.61  14 2.61   8 2.61   5 2.61
                            29 2.75  35 2.75  41 2.75  50 2.75
  33  0.167  0.500  0.833-  16 2.61  18 2.61  13 2.61  15 2.61   7 2.61   9 2.61   4 2.61   6 2.61
                            30 2.75  36 2.75  42 2.75  51 2.75
  34  0.167  0.833  0.167-  11 2.61  17 2.61   2 2.61   8 2.61  16 2.61  10 2.61   7 2.61   1 2.61
                            31 2.75  43 2.75  28 2.75  52 2.75
  35  0.167  0.833  0.500-  12 2.61  18 2.61   3 2.61   9 2.61  17 2.61  11 2.61   8 2.61   2 2.61
                            32 2.75  44 2.75  29 2.75  53 2.75
  36  0.167  0.833  0.833-  10 2.61  12 2.61  16 2.61  18 2.61   1 2.61   3 2.61   7 2.61   9 2.61
                            33 2.75  45 2.75  30 2.75  54 2.75
  37  0.500  0.167  0.167-  23 2.61  20 2.61  14 2.61  22 2.61  11 2.61  19 2.61  13 2.61  10 2.61
                            28 2.75  40 2.75  46 2.75  43 2.75
  38  0.500  0.167  0.500-  24 2.61  21 2.61  15 2.61  23 2.61  12 2.61  20 2.61  14 2.61  11 2.61
                            29 2.75  41 2.75  47 2.75  44 2.75
  39  0.500  0.167  0.833-  22 2.61  24 2.61  19 2.61  21 2.61  13 2.61  15 2.61  10 2.61  12 2.61
                            30 2.75  42 2.75  48 2.75  45 2.75
  40  0.500  0.500  0.167-  26 2.61  23 2.61  17 2.61  25 2.61  14 2.61  22 2.61  16 2.61  13 2.61
                            31 2.75  37 2.75  43 2.75  49 2.75
  41  0.500  0.500  0.500-  27 2.61  24 2.61  18 2.61  26 2.61  15 2.61  23 2.61  17 2.61  14 2.61
                            32 2.75  38 2.75  44 2.75  50 2.75
  42  0.500  0.500  0.833-  25 2.61  27 2.61  22 2.61  24 2.61  16 2.61  18 2.61  13 2.61  15 2.61
                            33 2.75  39 2.75  45 2.75  51 2.75
  43  0.500  0.833  0.167-  20 2.61  26 2.61  11 2.61  17 2.61  25 2.61  19 2.61  16 2.61  10 2.61
                            34 2.75  40 2.75  52 2.75  37 2.75
  44  0.500  0.833  0.500-  21 2.61  27 2.61  12 2.61  18 2.61  26 2.61  20 2.61  17 2.61  11 2.61
                            35 2.75  41 2.75  53 2.75  38 2.75
  45  0.500  0.833  0.833-  19 2.61  21 2.61  25 2.61  27 2.61  10 2.61  12 2.61  16 2.61  18 2.61
                            36 2.75  42 2.75  54 2.75  39 2.75
  46  0.833  0.167  0.167-   5 2.61  23 2.61  20 2.61   2 2.61  22 2.61   4 2.61  19 2.61   1 2.61
                            37 2.75  49 2.75  28 2.75  52 2.75
  47  0.833  0.167  0.500-   6 2.61  24 2.61  21 2.61   3 2.61  23 2.61   5 2.61  20 2.61   2 2.61
                            38 2.75  50 2.75  29 2.75  53 2.75
  48  0.833  0.167  0.833-   4 2.61   6 2.61  22 2.61  24 2.61  19 2.61  21 2.61   1 2.61   3 2.61
                            39 2.75  51 2.75  30 2.75  54 2.75
  49  0.833  0.500  0.167-   8 2.61  26 2.61  23 2.61   5 2.61  25 2.61   7 2.61  22 2.61   4 2.61
                            40 2.75  46 2.75  52 2.75  31 2.75
  50  0.833  0.500  0.500-   9 2.61  27 2.61  24 2.61   6 2.61  26 2.61   8 2.61  23 2.61   5 2.61
                            41 2.75  47 2.75  53 2.75  32 2.75
  51  0.833  0.500  0.833-   7 2.61   9 2.61  25 2.61  27 2.61  22 2.61  24 2.61   4 2.61   6 2.61
                            42 2.75  48 2.75  54 2.75  33 2.75
  52  0.833  0.833  0.167-   2 2.61   8 2.61  20 2.61  26 2.61  19 2.61   7 2.61  25 2.61   1 2.61
                            43 2.75  49 2.75  46 2.75  34 2.75
  53  0.833  0.833  0.500-   3 2.61   9 2.61  21 2.61  27 2.61  20 2.61   8 2.61  26 2.61   2 2.61
                            44 2.75  50 2.75  47 2.75  35 2.75
  54  0.833  0.833  0.833-   1 2.61   3 2.61   7 2.61   9 2.61  19 2.61  21 2.61  25 2.61  27 2.61
                            45 2.75  51 2.75  48 2.75  36 2.75
 
  LATTYP: Found a simple tetragonal cell.
 ALAT       =     8.2501481662
 C/A-ratio  =     1.2642089792
  
  Lattice vectors:
  
 A1 = (   8.2501481662,   0.0000000000,   0.0000000000)
 A2 = (   0.0000000000,   8.2501481662,   0.0000000000)
 A3 = (   0.0000000000,   0.0000000000,  10.4299113916)


Analysis of symmetry for initial positions (statically):
=====================================================================
 Subroutine PRICEL returns following result:
 
  LATTYP: Found a simple tetragonal cell.
 ALAT       =     2.7500493888
 C/A-ratio  =     1.2642089792
  
  Lattice vectors:
  
 A1 = (   2.7500493888,   0.0000000000,   0.0000000000)
 A2 = (   0.0000000000,   2.7500493888,   0.0000000000)
 A3 = (   0.0000000000,   0.0000000000,   3.4766371306)
 
  27 primitive cells build up your supercell.
 

 Routine SETGRP: Setting up the symmetry group for a 
 simple tetragonal supercell.


 Subroutine GETGRP returns: Found 16 space group operations
 (whereof 16 operations were pure point group operations)
 out of a pool of 16 trial point group operations.


The static configuration has the point symmetry D_4h.


Analysis of symmetry for dynamics (positions and initial velocities):
=====================================================================
 Subroutine PRICEL returns following result:
 
  LATTYP: Found a simple tetragonal cell.
 ALAT       =     2.7500493888
 C/A-ratio  =     1.2642089792
  
  Lattice vectors:
  
 A1 = (   2.7500493888,   0.0000000000,   0.0000000000)
 A2 = (   0.0000000000,   2.7500493888,   0.0000000000)
 A3 = (   0.0000000000,   0.0000000000,   3.4766371306)
 
  27 primitive cells build up your supercell.
 

 Routine SETGRP: Setting up the symmetry group for a 
 simple tetragonal supercell.


 Subroutine GETGRP returns: Found 16 space group operations
 (whereof 16 operations were pure point group operations)
 out of a pool of 16 trial point group operations.


The dynamic configuration has the point symmetry D_4h.


Analysis of structural, dynamic, and magnetic symmetry:
=====================================================================
 Subroutine PRICEL returns:
 Original cell was already a primitive cell.
 

 Routine SETGRP: Setting up the symmetry group for a 
 simple tetragonal supercell.


 Subroutine GETGRP returns: Found  4 space group operations
 (whereof  4 operations were pure point group operations)
 out of a pool of 16 trial point group operations.


The magnetic configuration has the point symmetry C_2v.


 Subroutine INISYM returns: Found  4 space group operations
 (whereof  4 operations are pure point group operations),
 and found     1 'primitive' translations

 
 
 KPOINTS: automatic KPOINTS                       

Automatic generation of k-mesh.
 generate k-points for:    5    5    4
Space group operators:
 irot       det(A)        alpha          n_x          n_y          n_z        tau_x        tau_y        tau_z
    1     1.000000     0.000001     1.000000     0.000000     0.000000     0.000000     0.000000     0.000000
    2     1.000000   180.000000     0.000000     0.000000     1.000000     0.000000     0.000000     0.000000
    3    -1.000000   180.000000     0.707107     0.707107     0.000000     0.000000     0.000000     0.000000
    4    -1.000000   180.000000     0.707107    -0.707107     0.000000     0.000000     0.000000     0.000000
 
 Subroutine IBZKPT returns following result:
 ===========================================
 
 Found     27 irreducible k-points:
 
 Following reciprocal coordinates:
            Coordinates               Weight
  0.000000  0.000000  0.000000      1.000000
  0.200000  0.000000  0.000000      4.000000
  0.400000  0.000000  0.000000      4.000000
  0.200000  0.200000  0.000000      2.000000
  0.400000  0.200000  0.000000      4.000000
 -0.400000  0.200000  0.000000      4.000000
 -0.200000  0.200000  0.000000      2.000000
  0.400000  0.400000  0.000000      2.000000
 -0.400000  0.400000  0.000000      2.000000
  0.000000  0.000000  0.250000      2.000000
  0.200000  0.000000  0.250000      8.000000
  0.400000  0.000000  0.250000      8.000000
  0.200000  0.200000  0.250000      4.000000
  0.400000  0.200000  0.250000      8.000000
 -0.400000  0.200000  0.250000      8.000000
 -0.200000  0.200000  0.250000      4.000000
  0.400000  0.400000  0.250000      4.000000
 -0.400000  0.400000  0.250000      4.000000
  0.000000  0.000000  0.500000      1.000000
  0.200000  0.000000  0.500000      4.000000
  0.400000  0.000000  0.500000      4.000000
  0.200000  0.200000  0.500000      2.000000
  0.400000  0.200000  0.500000      4.000000
 -0.400000  0.200000  0.500000      4.000000
 -0.200000  0.200000  0.500000      2.000000
  0.400000  0.400000  0.500000      2.000000
 -0.400000  0.400000  0.500000      2.000000
 
 Following cartesian coordinates:
            Coordinates               Weight
  0.000000  0.000000  0.000000      1.000000
  0.024242  0.000000  0.000000      4.000000
  0.048484  0.000000  0.000000      4.000000
  0.024242  0.024242  0.000000      2.000000
  0.048484  0.024242  0.000000      4.000000
 -0.048484  0.024242  0.000000      4.000000
 -0.024242  0.024242  0.000000      2.000000
  0.048484  0.048484  0.000000      2.000000
 -0.048484  0.048484  0.000000      2.000000
  0.000000  0.000000  0.023970      2.000000
  0.024242  0.000000  0.023970      8.000000
  0.048484  0.000000  0.023970      8.000000
  0.024242  0.024242  0.023970      4.000000
  0.048484  0.024242  0.023970      8.000000
 -0.048484  0.024242  0.023970      8.000000
 -0.024242  0.024242  0.023970      4.000000
  0.048484  0.048484  0.023970      4.000000
 -0.048484  0.048484  0.023970      4.000000
  0.000000  0.000000  0.047939      1.000000
  0.024242  0.000000  0.047939      4.000000
  0.048484  0.000000  0.047939      4.000000
  0.024242  0.024242  0.047939      2.000000
  0.048484  0.024242  0.047939      4.000000
 -0.048484  0.024242  0.047939      4.000000
 -0.024242  0.024242  0.047939      2.000000
  0.048484  0.048484  0.047939      2.000000
 -0.048484  0.048484  0.047939      2.000000
 


--------------------------------------------------------------------------------------------------------




 Dimension of arrays:
   k-points           NKPTS =     27   k-points in BZ     NKDIM =     27   number of bands    NBANDS=    156
   number of dos      NEDOS =    301   number of ions     NIONS =     54
   non local maximal  LDIM  =      6   non local SUM 2l+1 LMDIM =     18
   total plane-waves  NPLWV = 204120
   max r-space proj   IRMAX =      1   max aug-charges    IRDMAX=  89713
   dimension x,y,z NGX =    54 NGY =   54 NGZ =   70
   dimension x,y,z NGXF=   108 NGYF=  108 NGZF=  140
   support grid    NGXF=   216 NGYF=  216 NGZF=  280
   ions per type =              27  27
   NGX,Y,Z   is equivalent  to a cutoff of  10.88, 10.88, 11.16 a.u.
   NGXF,Y,Z  is equivalent  to a cutoff of  21.76, 21.76, 22.32 a.u.

 SYSTEM =  AlMn_pv                                 
 POSCAR =  NewRef: 27, @ ['Mn', array([1.37502469, 

 Startparameter for this run:
   NWRITE =      2    write-flag & timer
   PREC   = accura    normal or accurate (medium, high low for compatibility)
   ISTART =      0    job   : 0-new  1-cont  2-samecut
   ICHARG =      2    charge: 1-file 2-atom 10-const
   ISPIN  =      2    spin polarized calculation?
   LNONCOLLINEAR =      F non collinear calculations
   LSORBIT =      F    spin-orbit coupling
   INIWAV =      1    electr: 0-lowe 1-rand  2-diag
   LASPH  =      F    aspherical Exc in radial PAW
   METAGGA=      F    non-selfconsistent MetaGGA calc.

 Electronic Relaxation 1
   ENCUT  =  404.8 eV  29.75 Ry    5.45 a.u.  13.53 13.53 17.11*2*pi/ulx,y,z
   ENINI  =  404.8     initial cutoff
   ENAUG  =  500.7 eV  augmentation charge cutoff
   NELM   =    100;   NELMIN=  4; NELMDL= -8     # of ELM steps 
   EDIFF  = 0.1E-06   stopping-criterion for ELM
   LREAL  =      F    real-space projection
   NLSPLINE    = F    spline interpolate recip. space projectors
   LCOMPAT=      F    compatible to vasp.4.4
   GGA_COMPAT  = T    GGA compatible to vasp.4.4-vasp.4.6
   LMAXPAW     = -100 max onsite density
   LMAXMIX     =    2 max onsite mixed and CHGCAR
   VOSKOWN=      0    Vosko Wilk Nusair interpolation
   ROPT   =    0.00000   0.00000
 Ionic relaxation
   EDIFFG = 0.1E-05   stopping-criterion for IOM
   NSW    =      0    number of steps for IOM
   NBLOCK =      1;   KBLOCK =      1    inner block; outer block 
   IBRION =     -1    ionic relax: 0-MD 1-quasi-New 2-CG
   NFREE  =      0    steps in history (QN), initial steepest desc. (CG)
   ISIF   =      2    stress and relaxation
   IWAVPR =     10    prediction:  0-non 1-charg 2-wave 3-comb
   ISYM   =      2    0-nonsym 1-usesym 2-fastsym
   LCORR  =      T    Harris-Foulkes like correction to forces

   POTIM  = 0.2000    time-step for ionic-motion
   TEIN   =    0.0    initial temperature
   TEBEG  =    0.0;   TEEND  =   0.0 temperature during run
   SMASS  =  -3.00    Nose mass-parameter (am)
   estimated Nose-frequenzy (Omega)   =  0.10E-29 period in steps =****** mass=  -0.156E-26a.u.
   SCALEE = 1.0000    scale energy and forces
   NPACO  =    256;   APACO  = 16.0  distance and # of slots for P.C.
   PSTRESS=    0.0 pullay stress

  Mass of Ions in am
   POMASS =  26.98 54.94
  Ionic Valenz
   ZVAL   =   3.00  7.00
  Atomic Wigner-Seitz radii
   RWIGS  =  -1.00 -1.00
  virtual crystal weights 
   VCA    =   1.00  1.00
   NELECT =     270.0000    total number of electrons
   NUPDOWN=      -1.0000    fix difference up-down

 DOS related values:
   EMIN   =  10.00;   EMAX   =-10.00  energy-range for DOS
   EFERMI =   0.00
   ISMEAR =     1;   SIGMA  =   0.20  broadening in eV -4-tet -1-fermi 0-gaus

 Electronic relaxation 2 (details)
   IALGO  =     58    algorithm
   LDIAG  =      T    sub-space diagonalisation (order eigenvalues)
   LSUBROT=      F    optimize rotation matrix (better conditioning)
   TURBO    =      0    0=normal 1=particle mesh
   IRESTART =      0    0=no restart 2=restart with 2 vectors
   NREBOOT  =      0    no. of reboots
   NMIN     =      0    reboot dimension
   EREF     =   0.00    reference energy to select bands
   IMIX   =      4    mixing-type and parameters
     AMIX     =   0.40;   BMIX     =  1.00
     AMIX_MAG =   1.60;   BMIX_MAG =  1.00
     AMIN     =   0.10
     WC   =   100.;   INIMIX=   1;  MIXPRE=   1;  MAXMIX= -45

 Intra band minimization:
   WEIMIN = 0.0000     energy-eigenvalue tresh-hold
   EBREAK =  0.16E-09  absolut break condition
   DEPER  =   0.30     relativ break condition  

   TIME   =   0.40     timestep for ELM

  volume/ion in A,a.u.               =      13.15        88.72
  Fermi-wavevector in a.u.,A,eV,Ry     =   1.186118  2.241439 19.141722  1.406877
  Thomas-Fermi vector in A             =   2.322298
 
 Write flags
   LWAVE        =      F    write WAVECAR
   LDOWNSAMPLE  =      F    k-point downsampling of WAVECAR
   LCHARG       =      F    write CHGCAR
   LVTOT        =      F    write LOCPOT, total local potential
   LVHAR        =      F    write LOCPOT, Hartree potential only
   LELF         =      F    write electronic localiz. function (ELF)
   LORBIT       =     10    0 simple, 1 ext, 2 COOP (PROOUT), +10 PAW based schemes


 Dipole corrections
   LMONO  =      F    monopole corrections only (constant potential shift)
   LDIPOL =      F    correct potential (dipole corrections)
   IDIPOL =      0    1-x, 2-y, 3-z, 4-all directions 
   EPSILON=  1.0000000 bulk dielectric constant

 Exchange correlation treatment:
   GGA     =    --    GGA type
   LEXCH   =     8    internal setting for exchange type
   VOSKOWN=      0    Vosko Wilk Nusair interpolation
   LHFCALC =     F    Hartree Fock is set to
   LHFONE  =     F    Hartree Fock one center treatment
   AEXX    =    0.0000 exact exchange contribution

 Linear response parameters
   LEPSILON=     F    determine dielectric tensor
   LRPA    =     F    only Hartree local field effects (RPA)
   LNABLA  =     F    use nabla operator in PAW spheres
   LVEL    =     F    velocity operator in full k-point grid
   LINTERFAST=   F  fast interpolation
   KINTER  =     0    interpolate to denser k-point grid
   CSHIFT  =0.1000    complex shift for real part using Kramers Kronig
   OMEGAMAX=  -1.0    maximum frequency
   DEG_THRESHOLD= 0.2000000E-02 threshold for treating states as degnerate
   RTIME   =   -0.100 relaxation time in fs
  (WPLASMAI=    0.000 imaginary part of plasma frequency in eV, 0.658/RTIME)
   DFIELD  = 0.0000000 0.0000000 0.0000000 field for delta impulse in time
 
 Orbital magnetization related:
   ORBITALMAG=     F  switch on orbital magnetization
   LCHIMAG   =     F  perturbation theory with respect to B field
   DQ        =  0.001000  dq finite difference perturbation B field
   LLRAUG    =     F  two centre corrections for induced B field



--------------------------------------------------------------------------------------------------------


 Static calculation
 charge density and potential will be updated during run
 spin polarized calculation
 Conjugate gradient for all bands (Freysoldt, et al. PRB 79, 241103 (2009))
 preconditioned conjugated gradient                                        
 perform sub-space diagonalisation
    before iterative eigenvector-optimisation
 modified Broyden-mixing scheme, WC =      100.0
 initial mixing is a Kerker type mixing with AMIX =  0.4000 and BMIX =      1.0000
 Hartree-type preconditioning will be used
 using additional bands           21
 reciprocal scheme for non local part
 use partial core corrections
 no Harris-corrections to forces 
 use gradient corrections 
 use of overlap-Matrix (Vanderbilt PP)
 Methfessel and Paxton  Order N= 1 SIGMA  =   0.20


--------------------------------------------------------------------------------------------------------


  energy-cutoff  :      404.80
  volume of cell :      709.91
      direct lattice vectors                 reciprocal lattice vectors
     8.250148166  0.000000000  0.000000000     0.121209944  0.000000000  0.000000000
     0.000000000  8.250148166  0.000000000     0.000000000  0.121209944  0.000000000
     0.000000000  0.000000000 10.429911392     0.000000000  0.000000000  0.095878092

  length of vectors
     8.250148166  8.250148166 10.429911392     0.121209944  0.121209944  0.095878092


 
 k-points in units of 2pi/SCALE and weight: automatic KPOINTS                       
   0.00000000  0.00000000  0.00000000       0.010
   0.02424199  0.00000000  0.00000000       0.040
   0.04848398  0.00000000  0.00000000       0.040
   0.02424199  0.02424199  0.00000000       0.020
   0.04848398  0.02424199  0.00000000       0.040
  -0.04848398  0.02424199  0.00000000       0.040
  -0.02424199  0.02424199  0.00000000       0.020
   0.04848398  0.04848398  0.00000000       0.020
  -0.04848398  0.04848398  0.00000000       0.020
   0.00000000  0.00000000  0.02396952       0.020
   0.02424199  0.00000000  0.02396952       0.080
   0.04848398  0.00000000  0.02396952       0.080
   0.02424199  0.02424199  0.02396952       0.040
   0.04848398  0.02424199  0.02396952       0.080
  -0.04848398  0.02424199  0.02396952       0.080
  -0.02424199  0.02424199  0.02396952       0.040
   0.04848398  0.04848398  0.02396952       0.040
  -0.04848398  0.04848398  0.02396952       0.040
   0.00000000  0.00000000  0.04793905       0.010
   0.02424199  0.00000000  0.04793905       0.040
   0.04848398  0.00000000  0.04793905       0.040
   0.02424199  0.02424199  0.04793905       0.020
   0.04848398  0.02424199  0.04793905       0.040
  -0.04848398  0.02424199  0.04793905       0.040
  -0.02424199  0.02424199  0.04793905       0.020
   0.04848398  0.04848398  0.04793905       0.020
  -0.04848398  0.04848398  0.04793905       0.020
 
 k-points in reciprocal lattice and weights: automatic KPOINTS                       
   0.00000000  0.00000000  0.00000000       0.010
   0.20000000  0.00000000  0.00000000       0.040
   0.40000000  0.00000000  0.00000000       0.040
   0.20000000  0.20000000  0.00000000       0.020
   0.40000000  0.20000000  0.00000000       0.040
  -0.40000000  0.20000000  0.00000000       0.040
  -0.20000000  0.20000000  0.00000000       0.020
   0.40000000  0.40000000  0.00000000       0.020
  -0.40000000  0.40000000  0.00000000       0.020
   0.00000000  0.00000000  0.25000000       0.020
   0.20000000  0.00000000  0.25000000       0.080
   0.40000000  0.00000000  0.25000000       0.080
   0.20000000  0.20000000  0.25000000       0.040
   0.40000000  0.20000000  0.25000000       0.080
  -0.40000000  0.20000000  0.25000000       0.080
  -0.20000000  0.20000000  0.25000000       0.040
   0.40000000  0.40000000  0.25000000       0.040
  -0.40000000  0.40000000  0.25000000       0.040
   0.00000000  0.00000000  0.50000000       0.010
   0.20000000  0.00000000  0.50000000       0.040
   0.40000000  0.00000000  0.50000000       0.040
   0.20000000  0.20000000  0.50000000       0.020
   0.40000000  0.20000000  0.50000000       0.040
  -0.40000000  0.20000000  0.50000000       0.040
  -0.20000000  0.20000000  0.50000000       0.020
   0.40000000  0.40000000  0.50000000       0.020
  -0.40000000  0.40000000  0.50000000       0.020
 
 position of ions in fractional coordinates (direct lattice) 
   0.00000000  0.00000000  0.00000000
   0.00000000  0.00000000  0.33333333
   0.00000000  0.00000000  0.66666667
   0.00000000  0.33333333  0.00000000
   0.00000000  0.33333333  0.33333333
   0.00000000  0.33333333  0.66666667
   0.00000000  0.66666667  0.00000000
   0.00000000  0.66666667  0.33333333
   0.00000000  0.66666667  0.66666667
   0.33333333  0.00000000  0.00000000
   0.33333333  0.00000000  0.33333333
   0.33333333  0.00000000  0.66666667
   0.33333333  0.33333333  0.00000000
   0.33333333  0.33333333  0.33333333
   0.33333333  0.33333333  0.66666667
   0.33333333  0.66666667  0.00000000
   0.33333333  0.66666667  0.33333333
   0.33333333  0.66666667  0.66666667
   0.66666667  0.00000000  0.00000000
   0.66666667  0.00000000  0.33333333
   0.66666667  0.00000000  0.66666667
   0.66666667  0.33333333  0.00000000
   0.66666667  0.33333333  0.33333333
   0.66666667  0.33333333  0.66666667
   0.66666667  0.66666667  0.00000000
   0.66666667  0.66666667  0.33333333
   0.66666667  0.66666667  0.66666667
   0.16666667  0.16666667  0.16666667
   0.16666667  0.16666667  0.50000000
   0.16666667  0.16666667  0.83333333
   0.16666667  0.50000000  0.16666667
   0.16666667  0.50000000  0.50000000
   0.16666667  0.50000000  0.83333333
   0.16666667  0.83333333  0.16666667
   0.16666667  0.83333333  0.50000000
   0.16666667  0.83333333  0.83333333
   0.50000000  0.16666667  0.16666667
   0.50000000  0.16666667  0.50000000
   0.50000000  0.16666667  0.83333333
   0.50000000  0.50000000  0.16666667
   0.50000000  0.50000000  0.50000000
   0.50000000  0.50000000  0.83333333
   0.50000000  0.83333333  0.16666667
   0.50000000  0.83333333  0.50000000
   0.50000000  0.83333333  0.83333333
   0.83333333  0.16666667  0.16666667
   0.83333333  0.16666667  0.50000000
   0.83333333  0.16666667  0.83333333
   0.83333333  0.50000000  0.16666667
   0.83333333  0.50000000  0.50000000
   0.83333333  0.50000000  0.83333333
   0.83333333  0.83333333  0.16666667
   0.83333333  0.83333333  0.50000000
   0.83333333  0.83333333  0.83333333
 
 position of ions in cartesian coordinates  (Angst):
   0.00000000  0.00000000  0.00000000
   0.00000000  0.00000000  3.47663713
   0.00000000  0.00000000  6.95327426
   0.00000000  2.75004939  0.00000000
   0.00000000  2.75004939  3.47663713
   0.00000000  2.75004939  6.95327426
   0.00000000  5.50009878  0.00000000
   0.00000000  5.50009878  3.47663713
   0.00000000  5.50009878  6.95327426
   2.75004939  0.00000000  0.00000000
   2.75004939  0.00000000  3.47663713
   2.75004939  0.00000000  6.95327426
   2.75004939  2.75004939  0.00000000
   2.75004939  2.75004939  3.47663713
   2.75004939  2.75004939  6.95327426
   2.75004939  5.50009878  0.00000000
   2.75004939  5.50009878  3.47663713
   2.75004939  5.50009878  6.95327426
   5.50009878  0.00000000  0.00000000
   5.50009878  0.00000000  3.47663713
   5.50009878  0.00000000  6.95327426
   5.50009878  2.75004939  0.00000000
   5.50009878  2.75004939  3.47663713
   5.50009878  2.75004939  6.95327426
   5.50009878  5.50009878  0.00000000
   5.50009878  5.50009878  3.47663713
   5.50009878  5.50009878  6.95327426
   1.37502469  1.37502469  1.73831857
   1.37502469  1.37502469  5.21495570
   1.37502469  1.37502469  8.69159283
   1.37502469  4.12507408  1.73831857
   1.37502469  4.12507408  5.21495570
   1.37502469  4.12507408  8.69159283
   1.37502469  6.87512347  1.73831857
   1.37502469  6.87512347  5.21495570
   1.37502469  6.87512347  8.69159283
   4.12507408  1.37502469  1.73831857
   4.12507408  1.37502469  5.21495570
   4.12507408  1.37502469  8.69159283
   4.12507408  4.12507408  1.73831857
   4.12507408  4.12507408  5.21495570
   4.12507408  4.12507408  8.69159283
   4.12507408  6.87512347  1.73831857
   4.12507408  6.87512347  5.21495570
   4.12507408  6.87512347  8.69159283
   6.87512347  1.37502469  1.73831857
   6.87512347  1.37502469  5.21495570
   6.87512347  1.37502469  8.69159283
   6.87512347  4.12507408  1.73831857
   6.87512347  4.12507408  5.21495570
   6.87512347  4.12507408  8.69159283
   6.87512347  6.87512347  1.73831857
   6.87512347  6.87512347  5.21495570
   6.87512347  6.87512347  8.69159283
 


--------------------------------------------------------------------------------------------------------


 k-point  1 :   0.0000 0.0000 0.0000  plane waves:   13099
 k-point  2 :   0.2000 0.0000 0.0000  plane waves:   13101
 k-point  3 :   0.4000 0.0000 0.0000  plane waves:   13111
 k-point  4 :   0.2000 0.2000 0.0000  plane waves:   13137
 k-point  5 :   0.4000 0.2000 0.0000  plane waves:   13119
 k-point  6 :  -0.4000 0.2000 0.0000  plane waves:   13119
 k-point  7 :  -0.2000 0.2000 0.0000  plane waves:   13137
 k-point  8 :   0.4000 0.4000 0.0000  plane waves:   13129
 k-point  9 :  -0.4000 0.4000 0.0000  plane waves:   13129
 k-point 10 :   0.0000 0.0000 0.2500  plane waves:   13134
 k-point 11 :   0.2000 0.0000 0.2500  plane waves:   13149
 k-point 12 :   0.4000 0.0000 0.2500  plane waves:   13119
 k-point 13 :   0.2000 0.2000 0.2500  plane waves:   13145
 k-point 14 :   0.4000 0.2000 0.2500  plane waves:   13134
 k-point 15 :  -0.4000 0.2000 0.2500  plane waves:   13134
 k-point 16 :  -0.2000 0.2000 0.2500  plane waves:   13145
 k-point 17 :   0.4000 0.4000 0.2500  plane waves:   13108
 k-point 18 :  -0.4000 0.4000 0.2500  plane waves:   13108
 k-point 19 :   0.0000 0.0000 0.5000  plane waves:   13186
 k-point 20 :   0.2000 0.0000 0.5000  plane waves:   13124
 k-point 21 :   0.4000 0.0000 0.5000  plane waves:   13152
 k-point 22 :   0.2000 0.2000 0.5000  plane waves:   13136
 k-point 23 :   0.4000 0.2000 0.5000  plane waves:   13128
 k-point 24 :  -0.4000 0.2000 0.5000  plane waves:   13128
 k-point 25 :  -0.2000 0.2000 0.5000  plane waves:   13136
 k-point 26 :   0.4000 0.4000 0.5000  plane waves:   13112
 k-point 27 :  -0.4000 0.4000 0.5000  plane waves:   13112

 maximum and minimum number of plane-waves per node :      3304     3246

 maximum number of plane-waves:     13186
 maximum index in each direction: 
   IXMAX=   13   IYMAX=   13   IZMAX=   17
   IXMIN=  -13   IYMIN=  -13   IZMIN=  -17


 parallel 3D FFT for wavefunctions:
    minimum data exchange during FFTs selected (reduces bandwidth)
 parallel 3D FFT for charge:
    minimum data exchange during FFTs selected (reduces bandwidth)


 total amount of memory used by VASP MPI-rank0   815466. kBytes
=======================================================================

   base      :      30000. kBytes
   nonl-proj :      28494. kBytes
   fftplans  :      31580. kBytes
   grid      :      21385. kBytes
   one-center:        435. kBytes
   wavefun   :     703572. kBytes
 
     INWAV:  cpu time    0.0000: real time    0.0000
 Broyden mixing: mesh for mixing (old mesh)
   NGX = 27   NGY = 27   NGZ = 35
  (NGX  =108   NGY  =108   NGZ  =140)
  gives a total of  25515 points

 initial charge density was supplied:
 charge density of overlapping atoms calculated
 number of electron     270.0000000 magnetization     -15.0000000
 keeping initial charge density in first step


--------------------------------------------------------------------------------------------------------


 Maximum index for augmentation-charges        10967 (set IRDMAX)


--------------------------------------------------------------------------------------------------------


 First call to EWALD:  gamma=   0.199
 Maximum number of real-space cells 3x 3x 2
 Maximum number of reciprocal cells 3x 3x 3

    FEWALD:  cpu time    0.0026: real time    0.0026


--------------------------------------- Iteration      1(   1)  ---------------------------------------


    POTLOK:  cpu time    0.3969: real time    0.3969
    SETDIJ:  cpu time    0.4828: real time    0.4981
    TRIAL :  cpu time   27.9700: real time   28.1210
    CORREC:  cpu time    0.0049: real time    0.0053
    --------------------------------------------
      LOOP:  cpu time   29.0660: real time   29.2724

 eigenvalue-minimisations  : 16848
 total energy-change (2. order) : 0.2086134E+04  (-0.8623582E+04)
 number of electron     270.0000000 magnetization     -15.0000000
 augmentation part      270.0000000 magnetization     -15.0000000

 Free energy of the ion-electron system (eV)
  ---------------------------------------------------
  alpha Z        PSCENC =       798.38614055
  Ewald energy   TEWEN  =    -12901.57693327
  -Hartree energ DENC   =     -2855.60785864
  -exchange      EXHF   =         0.00000000
  -V(xc)+E(xc)   XCENC  =      -996.13400690
  PAW double counting   =     12741.82587617   -11476.22345381
  entropy T*S    EENTRO =        -0.00078521
  eigenvalues    EBANDS =      4077.79070440
  atomic energy  EATOM  =     12697.67401269
  ---------------------------------------------------
  free energy    TOTEN  =      2086.13369597 eV

  energy without entropy =     2086.13448118  energy(sigma->0) =     2086.13395771


--------------------------------------------------------------------------------------------------------




--------------------------------------- Iteration      1(   2)  ---------------------------------------


    TRIAL :  cpu time   27.9082: real time   28.1896
    CORREC:  cpu time    0.0062: real time    0.0063
    --------------------------------------------
      LOOP:  cpu time   27.9156: real time   28.1993

 eigenvalue-minimisations  : 16848
 total energy-change (2. order) :-0.2123512E+04  (-0.2095154E+04)
 number of electron     270.0000000 magnetization     -15.0000000
 augmentation part      270.0000000 magnetization     -15.0000000

 Free energy of the ion-electron system (eV)
  ---------------------------------------------------
  alpha Z        PSCENC =       798.38614055
  Ewald energy   TEWEN  =    -12901.57693327
  -Hartree energ DENC   =     -2855.60785864
  -exchange      EXHF   =         0.00000000
  -V(xc)+E(xc)   XCENC  =      -996.13400690
  PAW double counting   =     12741.82587617   -11476.22345381
  entropy T*S    EENTRO =         0.00452521
  eigenvalues    EBANDS =      1954.27369714
  atomic energy  EATOM  =     12697.67401269
  ---------------------------------------------------
  free energy    TOTEN  =       -37.37800086 eV

  energy without entropy =      -37.38252608  energy(sigma->0) =      -37.37950927


--------------------------------------------------------------------------------------------------------




--------------------------------------- Iteration      1(   3)  ---------------------------------------


    TRIAL :  cpu time   38.3848: real time   38.6336
    CORREC:  cpu time    0.0073: real time    0.0080
    --------------------------------------------
      LOOP:  cpu time   38.3950: real time   38.6450

 eigenvalue-minimisations  : 25576
 total energy-change (2. order) :-0.3014988E+03  (-0.2788660E+03)
 number of electron     270.0000000 magnetization     -15.0000000
 augmentation part      270.0000000 magnetization     -15.0000000

 Free energy of the ion-electron system (eV)
  ---------------------------------------------------
  alpha Z        PSCENC =       798.38614055
  Ewald energy   TEWEN  =    -12901.57693327
  -Hartree energ DENC   =     -2855.60785864
  -exchange      EXHF   =         0.00000000
  -V(xc)+E(xc)   XCENC  =      -996.13400690
  PAW double counting   =     12741.82587617   -11476.22345381
  entropy T*S    EENTRO =        -0.00468797
  eigenvalues    EBANDS =      1652.78410695
  atomic energy  EATOM  =     12697.67401269
  ---------------------------------------------------
  free energy    TOTEN  =      -338.87680424 eV

  energy without entropy =     -338.87211627  energy(sigma->0) =     -338.87524158


--------------------------------------------------------------------------------------------------------




--------------------------------------- Iteration      1(   4)  ---------------------------------------


    TRIAL :  cpu time   40.7165: real time   41.0324
    CORREC:  cpu time    0.0076: real time    0.0085
    --------------------------------------------
      LOOP:  cpu time   40.7249: real time   41.0447

 eigenvalue-minimisations  : 27520
 total energy-change (2. order) :-0.5652597E+02  (-0.5171486E+02)
 number of electron     270.0000000 magnetization     -15.0000000
 augmentation part      270.0000000 magnetization     -15.0000000

 Free energy of the ion-electron system (eV)
  ---------------------------------------------------
  alpha Z        PSCENC =       798.38614055
  Ewald energy   TEWEN  =    -12901.57693327
  -Hartree energ DENC   =     -2855.60785864
  -exchange      EXHF   =         0.00000000
  -V(xc)+E(xc)   XCENC  =      -996.13400690
  PAW double counting   =     12741.82587617   -11476.22345381
  entropy T*S    EENTRO =         0.03549484
  eigenvalues    EBANDS =      1596.21795877
  atomic energy  EATOM  =     12697.67401269
  ---------------------------------------------------
  free energy    TOTEN  =      -395.40276961 eV

  energy without entropy =     -395.43826444  energy(sigma->0) =     -395.41460122


--------------------------------------------------------------------------------------------------------




--------------------------------------- Iteration      1(   5)  ---------------------------------------


    TRIAL :  cpu time   41.9134: real time   42.2813
    CORREC:  cpu time    0.0077: real time    0.0086
    --------------------------------------------
      LOOP:  cpu time   41.9224: real time   42.2939

 eigenvalue-minimisations  : 28744
 total energy-change (2. order) :-0.8020809E+01  (-0.7612981E+01)
 number of electron     270.0000000 magnetization     -15.0000000
 augmentation part      270.0000000 magnetization     -15.0000000

 Free energy of the ion-electron system (eV)
  ---------------------------------------------------
  alpha Z        PSCENC =       798.38614055
  Ewald energy   TEWEN  =    -12901.57693327
  -Hartree energ DENC   =     -2855.60785864
  -exchange      EXHF   =         0.00000000
  -V(xc)+E(xc)   XCENC  =      -996.13400690
  PAW double counting   =     12741.82587617   -11476.22345381
  entropy T*S    EENTRO =         0.04330128
  eigenvalues    EBANDS =      1588.18934374
  atomic energy  EATOM  =     12697.67401269
  ---------------------------------------------------
  free energy    TOTEN  =      -403.42357820 eV

  energy without entropy =     -403.46687948  energy(sigma->0) =     -403.43801196


--------------------------------------------------------------------------------------------------------




--------------------------------------- Iteration      1(   6)  ---------------------------------------


    TRIAL :  cpu time   41.8072: real time   42.0982
    CORREC:  cpu time    0.0078: real time    0.0080
    --------------------------------------------
      LOOP:  cpu time   41.8158: real time   42.1096

 eigenvalue-minimisations  : 28464
 total energy-change (2. order) :-0.9126696E+00  (-0.8769484E+00)
 number of electron     270.0000000 magnetization     -15.0000000
 augmentation part      270.0000000 magnetization     -15.0000000

 Free energy of the ion-electron system (eV)
  ---------------------------------------------------
  alpha Z        PSCENC =       798.38614055
  Ewald energy   TEWEN  =    -12901.57693327
  -Hartree energ DENC   =     -2855.60785864
  -exchange      EXHF   =         0.00000000
  -V(xc)+E(xc)   XCENC  =      -996.13400690
  PAW double counting   =     12741.82587617   -11476.22345381
  entropy T*S    EENTRO =         0.04803291
  eigenvalues    EBANDS =      1587.27194256
  atomic energy  EATOM  =     12697.67401269
  ---------------------------------------------------
  free energy    TOTEN  =      -404.33624776 eV

  energy without entropy =     -404.38428066  energy(sigma->0) =     -404.35225873


--------------------------------------------------------------------------------------------------------




--------------------------------------- Iteration      1(   7)  ---------------------------------------


    TRIAL :  cpu time   42.7100: real time   42.9709
    CORREC:  cpu time    0.0079: real time    0.0088
    --------------------------------------------
      LOOP:  cpu time   42.7187: real time   42.9834

 eigenvalue-minimisations  : 29048
 total energy-change (2. order) :-0.1407322E+00  (-0.1360386E+00)
 number of electron     270.0000000 magnetization     -15.0000000
 augmentation part      270.0000000 magnetization     -15.0000000

 Free energy of the ion-electron system (eV)
  ---------------------------------------------------
  alpha Z        PSCENC =       798.38614055
  Ewald energy   TEWEN  =    -12901.57693327
  -Hartree energ DENC   =     -2855.60785864
  -exchange      EXHF   =         0.00000000
  -V(xc)+E(xc)   XCENC  =      -996.13400690
  PAW double counting   =     12741.82587617   -11476.22345381
  entropy T*S    EENTRO =         0.05012574
  eigenvalues    EBANDS =      1587.12911754
  atomic energy  EATOM  =     12697.67401269
  ---------------------------------------------------
  free energy    TOTEN  =      -404.47697994 eV

  energy without entropy =     -404.52710568  energy(sigma->0) =     -404.49368852


--------------------------------------------------------------------------------------------------------




--------------------------------------- Iteration      1(   8)  ---------------------------------------


    TRIAL :  cpu time   40.9604: real time   41.3475
    CORREC:  cpu time    0.0079: real time    0.0088
    CHARGE:  cpu time    1.4247: real time    1.4247
    --------------------------------------------
      LOOP:  cpu time   42.3945: real time   42.7854

 eigenvalue-minimisations  : 27896
 total energy-change (2. order) :-0.2500728E-01  (-0.2431167E-01)
 number of electron     269.9999995 magnetization     -10.1832621
 augmentation part       64.1681132 magnetization      -5.9404154

 Free energy of the ion-electron system (eV)
  ---------------------------------------------------
  alpha Z        PSCENC =       798.38614055
  Ewald energy   TEWEN  =    -12901.57693327
  -Hartree energ DENC   =     -2855.60785864
  -exchange      EXHF   =         0.00000000
  -V(xc)+E(xc)   XCENC  =      -996.13400690
  PAW double counting   =     12741.82587617   -11476.22345381
  entropy T*S    EENTRO =         0.05135332
  eigenvalues    EBANDS =      1587.10288268
  atomic energy  EATOM  =     12697.67401269
  ---------------------------------------------------
  free energy    TOTEN  =      -404.50198722 eV

  energy without entropy =     -404.55334054  energy(sigma->0) =     -404.51910499


--------------------------------------------------------------------------------------------------------




--------------------------------------- Iteration      1(   9)  ---------------------------------------


    POTLOK:  cpu time    0.3975: real time    0.3975
    SETDIJ:  cpu time    0.5021: real time    0.5022
    TRIAL :  cpu time   13.6867: real time   13.7909
    CORREC:  cpu time    4.5207: real time    4.5302
    CHARGE:  cpu time    1.4333: real time    1.4333
    --------------------------------------------
      LOOP:  cpu time   20.5610: real time   20.6763

 eigenvalue-minimisations  :     0
 total energy-change (2. order) : 0.3018147E+03  (-0.2173317E+03)
 number of electron     269.9999993 magnetization     -10.7435264
 augmentation part       82.2090554 magnetization      -7.1189363

 Free energy of the ion-electron system (eV)
  ---------------------------------------------------
  alpha Z        PSCENC =       798.38614055
  Ewald energy   TEWEN  =    -12901.57693327
  -Hartree energ DENC   =     -1272.68355701
  -exchange      EXHF   =         0.00000000
  -V(xc)+E(xc)   XCENC  =     -1041.52162238
  PAW double counting   =     19164.42087853   -17744.79347208
  entropy T*S    EENTRO =         0.01411118
  eigenvalues    EBANDS =       197.35587647
  atomic energy  EATOM  =     12697.67401269
  ---------------------------------------------------
  free energy    TOTEN  =      -102.68732319 eV

  energy without entropy =     -102.70143436  energy(sigma->0) =     -102.69202691


--------------------------------------------------------------------------------------------------------




--------------------------------------- Iteration      1(  10)  ---------------------------------------


    POTLOK:  cpu time    0.3927: real time    0.3927
    SETDIJ:  cpu time    0.4059: real time    0.5202
    TRIAL :  cpu time   13.6699: real time   13.7669
    CORREC:  cpu time    4.4553: real time    4.5601
    CHARGE:  cpu time    1.4368: real time    1.4381
    --------------------------------------------
      LOOP:  cpu time   20.3769: real time   20.6959

 eigenvalue-minimisations  :     0
 total energy-change (2. order) :-0.2139553E+03  (-0.1309751E+02)
 number of electron     269.9999993 magnetization     -10.7895775
 augmentation part       86.4912774 magnetization      -7.3222204

 Free energy of the ion-electron system (eV)
  ---------------------------------------------------
  alpha Z        PSCENC =       798.38614055
  Ewald energy   TEWEN  =    -12901.57693327
  -Hartree energ DENC   =     -2091.32920721
  -exchange      EXHF   =         0.00000000
  -V(xc)+E(xc)   XCENC  =     -1013.27068350
  PAW double counting   =     20545.60780370   -19303.80325977
  entropy T*S    EENTRO =         0.00830287
  eigenvalues    EBANDS =       951.65541600
  atomic energy  EATOM  =     12697.67401269
  ---------------------------------------------------
  free energy    TOTEN  =      -316.64259963 eV

  energy without entropy =     -316.65090249  energy(sigma->0) =     -316.64536725


--------------------------------------------------------------------------------------------------------




--------------------------------------- Iteration      1(  11)  ---------------------------------------


    POTLOK:  cpu time    0.3910: real time    0.3917
    SETDIJ:  cpu time    0.4797: real time    0.4801
    TRIAL :  cpu time   14.5887: real time   14.7544
    CORREC:  cpu time    4.5616: real time    4.5716
    CHARGE:  cpu time    1.4432: real time    1.5013
    --------------------------------------------
      LOOP:  cpu time   21.4780: real time   21.7137

 eigenvalue-minimisations  :     0
 total energy-change (2. order) :-0.1251532E+02  (-0.1031439E+02)
 number of electron     269.9999993 magnetization     -11.1240416
 augmentation part       88.8059938 magnetization      -7.7165676

 Free energy of the ion-electron system (eV)
  ---------------------------------------------------
  alpha Z        PSCENC =       798.38614055
  Ewald energy   TEWEN  =    -12901.57693327
  -Hartree energ DENC   =     -2340.33325232
  -exchange      EXHF   =         0.00000000
  -V(xc)+E(xc)   XCENC  =     -1004.05477381
  PAW double counting   =     21549.72390486   -20351.30529393
  entropy T*S    EENTRO =         0.00597758
  eigenvalues    EBANDS =      1222.31997607
  atomic energy  EATOM  =     12697.67401269
  ---------------------------------------------------
  free energy    TOTEN  =      -329.15791628 eV

  energy without entropy =     -329.16389386  energy(sigma->0) =     -329.15990881


--------------------------------------------------------------------------------------------------------




--------------------------------------- Iteration      1(  12)  ---------------------------------------


    POTLOK:  cpu time    0.3960: real time    0.3961
    SETDIJ:  cpu time    0.4549: real time    0.4548
    TRIAL :  cpu time   13.8067: real time   13.8232
    CORREC:  cpu time    4.4815: real time    4.5347
    CHARGE:  cpu time    1.4379: real time    1.4380
    --------------------------------------------
      LOOP:  cpu time   20.5820: real time   20.6532

 eigenvalue-minimisations  :     0
 total energy-change (2. order) :-0.1053324E+02  (-0.1298458E+02)
 number of electron     269.9999993 magnetization     -11.3958588
 augmentation part       86.8290678 magnetization      -7.8989563

 Free energy of the ion-electron system (eV)
  ---------------------------------------------------
  alpha Z        PSCENC =       798.38614055
  Ewald energy   TEWEN  =    -12901.57693327
  -Hartree energ DENC   =     -2527.97421704
  -exchange      EXHF   =         0.00000000
  -V(xc)+E(xc)   XCENC  =      -997.65471529
  PAW double counting   =     21818.91074235   -20631.87036247
  entropy T*S    EENTRO =        -0.02008495
  eigenvalues    EBANDS =      1404.40819967
  atomic energy  EATOM  =     12697.67401269
  ---------------------------------------------------
  free energy    TOTEN  =      -339.69115524 eV

  energy without entropy =     -339.67107029  energy(sigma->0) =     -339.68446025


--------------------------------------------------------------------------------------------------------




--------------------------------------- Iteration      1(  13)  ---------------------------------------


    POTLOK:  cpu time    0.3916: real time    0.4006
    SETDIJ:  cpu time    0.4479: real time    0.4879
    TRIAL :  cpu time   13.6606: real time   13.8004
    CORREC:  cpu time    4.4819: real time    4.5316
    CHARGE:  cpu time    1.4338: real time    1.4440
    --------------------------------------------
      LOOP:  cpu time   20.4251: real time   20.6740

 eigenvalue-minimisations  :     0
 total energy-change (2. order) :-0.1279104E+02  (-0.1001978E+01)
 number of electron     269.9999993 magnetization     -11.5350584
 augmentation part       86.0910427 magnetization      -7.8542733

 Free energy of the ion-electron system (eV)
  ---------------------------------------------------
  alpha Z        PSCENC =       798.38614055
  Ewald energy   TEWEN  =    -12901.57693327
  -Hartree energ DENC   =     -2519.44928878
  -exchange      EXHF   =         0.00000000
  -V(xc)+E(xc)   XCENC  =      -998.88876840
  PAW double counting   =     21311.13061621   -20074.71216110
  entropy T*S    EENTRO =        -0.02567239
  eigenvalues    EBANDS =      1334.97427084
  atomic energy  EATOM  =     12697.67401269
  ---------------------------------------------------
  free energy    TOTEN  =      -352.48219621 eV

  energy without entropy =     -352.45652382  energy(sigma->0) =     -352.47363874


--------------------------------------------------------------------------------------------------------




--------------------------------------- Iteration      1(  14)  ---------------------------------------


    POTLOK:  cpu time    0.3958: real time    0.3958
    SETDIJ:  cpu time    0.6322: real time    0.6442
    TRIAL :  cpu time   14.3987: real time   14.5239
    CORREC:  cpu time    4.6001: real time    4.6309
    CHARGE:  cpu time    1.4209: real time    1.4209
    --------------------------------------------
      LOOP:  cpu time   21.4622: real time   21.6305

 eigenvalue-minimisations  :     0
 total energy-change (2. order) :-0.9981939E+00  (-0.1066949E+01)
 number of electron     269.9999993 magnetization     -11.5583865
 augmentation part       85.8520331 magnetization      -7.8160702

 Free energy of the ion-electron system (eV)
  ---------------------------------------------------
  alpha Z        PSCENC =       798.38614055
  Ewald energy   TEWEN  =    -12901.57693327
  -Hartree energ DENC   =     -2479.09938223
  -exchange      EXHF   =         0.00000000
  -V(xc)+E(xc)   XCENC  =     -1000.45331830
  PAW double counting   =     20852.81943454   -19604.40467711
  entropy T*S    EENTRO =        -0.02668102
  eigenvalues    EBANDS =      1283.20000542
  atomic energy  EATOM  =     12697.67401269
  ---------------------------------------------------
  free energy    TOTEN  =      -353.48039011 eV

  energy without entropy =     -353.45370909  energy(sigma->0) =     -353.47149644


--------------------------------------------------------------------------------------------------------




--------------------------------------- Iteration      1(  15)  ---------------------------------------


    POTLOK:  cpu time    0.3903: real time    0.3934
    SETDIJ:  cpu time    0.4993: real time    0.4993
    TRIAL :  cpu time   13.7280: real time   13.7465
    CORREC:  cpu time    4.4646: real time    4.5578
    CHARGE:  cpu time    1.4202: real time    1.4234
    --------------------------------------------
      LOOP:  cpu time   20.5059: real time   20.6265

 eigenvalue-minimisations  :     0
 total energy-change (2. order) :-0.1063495E+01  (-0.7239121E+00)
 number of electron     269.9999993 magnetization     -11.4246565
 augmentation part       86.5967243 magnetization      -7.7875050

 Free energy of the ion-electron system (eV)
  ---------------------------------------------------
  alpha Z        PSCENC =       798.38614055
  Ewald energy   TEWEN  =    -12901.57693327
  -Hartree energ DENC   =     -2456.67015099
  -exchange      EXHF   =         0.00000000
  -V(xc)+E(xc)   XCENC  =     -1001.41846774
  PAW double counting   =     20162.02141986   -18905.87150276
  entropy T*S    EENTRO =        -0.03030286
  eigenvalues    EBANDS =      1252.93827776
  atomic energy  EATOM  =     12697.67401269
  ---------------------------------------------------
  free energy    TOTEN  =      -354.54388491 eV

  energy without entropy =     -354.51358205  energy(sigma->0) =     -354.53378396


--------------------------------------------------------------------------------------------------------




--------------------------------------- Iteration      1(  16)  ---------------------------------------


    POTLOK:  cpu time    0.3914: real time    0.3913
    SETDIJ:  cpu time    0.4872: real time    0.4873
    TRIAL :  cpu time   13.6135: real time   13.7858
    CORREC:  cpu time    5.3586: real time    5.4832
    CHARGE:  cpu time    1.4768: real time    1.4801
    --------------------------------------------
      LOOP:  cpu time   21.3485: real time   21.6509

 eigenvalue-minimisations  :     0
 total energy-change (2. order) :-0.7268562E+00  (-0.2635881E+00)
 number of electron     269.9999992 magnetization     -11.6022688
 augmentation part       87.1196858 magnetization      -7.8769367

 Free energy of the ion-electron system (eV)
  ---------------------------------------------------
  alpha Z        PSCENC =       798.38614055
  Ewald energy   TEWEN  =    -12901.57693327
  -Hartree energ DENC   =     -2485.26637612
  -exchange      EXHF   =         0.00000000
  -V(xc)+E(xc)   XCENC  =     -1000.40382269
  PAW double counting   =     19731.50970881   -18480.34892808
  entropy T*S    EENTRO =        -0.03197828
  eigenvalues    EBANDS =      1284.78575983
  atomic energy  EATOM  =     12697.67401269
  ---------------------------------------------------
  free energy    TOTEN  =      -355.27074114 eV

  energy without entropy =     -355.23876286  energy(sigma->0) =     -355.26008171


--------------------------------------------------------------------------------------------------------




--------------------------------------- Iteration      1(  17)  ---------------------------------------


    POTLOK:  cpu time    0.3945: real time    0.4036
    SETDIJ:  cpu time    0.4821: real time    0.4821
    TRIAL :  cpu time   14.5289: real time   14.6858
    CORREC:  cpu time    4.5755: real time    4.5790
    CHARGE:  cpu time    1.4598: real time    1.4598
    --------------------------------------------
      LOOP:  cpu time   21.4492: real time   21.6189

 eigenvalue-minimisations  :     0
 total energy-change (2. order) :-0.2647479E+00  (-0.3502552E+00)
 number of electron     269.9999992 magnetization     -11.5798935
 augmentation part       87.2715993 magnetization      -7.9736616

 Free energy of the ion-electron system (eV)
  ---------------------------------------------------
  alpha Z        PSCENC =       798.38614055
  Ewald energy   TEWEN  =    -12901.57693327
  -Hartree energ DENC   =     -2508.40119336
  -exchange      EXHF   =         0.00000000
  -V(xc)+E(xc)   XCENC  =      -999.47316952
  PAW double counting   =     19610.88917047   -18364.63334580
  entropy T*S    EENTRO =        -0.03267063
  eigenvalues    EBANDS =      1311.63180744
  atomic energy  EATOM  =     12697.67401269
  ---------------------------------------------------
  free energy    TOTEN  =      -355.53548908 eV

  energy without entropy =     -355.50281845  energy(sigma->0) =     -355.52459887


--------------------------------------------------------------------------------------------------------




--------------------------------------- Iteration      1(  18)  ---------------------------------------


    POTLOK:  cpu time    0.3925: real time    0.3924
    SETDIJ:  cpu time    0.4572: real time    0.4573
    TRIAL :  cpu time   13.6573: real time   13.7368
    CORREC:  cpu time    4.4850: real time    4.5387
    CHARGE:  cpu time    1.4406: real time    1.4407
    --------------------------------------------
      LOOP:  cpu time   20.4364: real time   20.5714

 eigenvalue-minimisations  :     0
 total energy-change (2. order) :-0.3500875E+00  (-0.1384854E+00)
 number of electron     269.9999992 magnetization     -11.6057199
 augmentation part       87.0489033 magnetization      -8.0253375

 Free energy of the ion-electron system (eV)
  ---------------------------------------------------
  alpha Z        PSCENC =       798.38614055
  Ewald energy   TEWEN  =    -12901.57693327
  -Hartree energ DENC   =     -2511.43727098
  -exchange      EXHF   =         0.00000000
  -V(xc)+E(xc)   XCENC  =      -998.99101558
  PAW double counting   =     19485.41333366   -18240.47684794
  entropy T*S    EENTRO =        -0.03382740
  eigenvalues    EBANDS =      1315.15567496
  atomic energy  EATOM  =     12697.67401269
  ---------------------------------------------------
  free energy    TOTEN  =      -355.88557654 eV

  energy without entropy =     -355.85174914  energy(sigma->0) =     -355.87430074


--------------------------------------------------------------------------------------------------------




--------------------------------------- Iteration      1(  19)  ---------------------------------------


    POTLOK:  cpu time    0.3922: real time    0.3922
    SETDIJ:  cpu time    0.4594: real time    0.4594
    TRIAL :  cpu time   13.7663: real time   13.8545
    CORREC:  cpu time    5.5910: real time    5.6291
    CHARGE:  cpu time    1.4485: real time    1.4484
    --------------------------------------------
      LOOP:  cpu time   21.6893: real time   21.8174

 eigenvalue-minimisations  :     0
 total energy-change (2. order) :-0.1379769E+00  (-0.6739315E-01)
 number of electron     269.9999992 magnetization     -11.6654644
 augmentation part       86.8604987 magnetization      -8.0726358

 Free energy of the ion-electron system (eV)
  ---------------------------------------------------
  alpha Z        PSCENC =       798.38614055
  Ewald energy   TEWEN  =    -12901.57693327
  -Hartree energ DENC   =     -2498.77637828
  -exchange      EXHF   =         0.00000000
  -V(xc)+E(xc)   XCENC  =      -999.25357798
  PAW double counting   =     19438.19462354   -18190.85959665
  entropy T*S    EENTRO =        -0.03378571
  eigenvalues    EBANDS =      1300.22198338
  atomic energy  EATOM  =     12697.67401269
  ---------------------------------------------------
  free energy    TOTEN  =      -356.02355342 eV

  energy without entropy =     -355.98976770  energy(sigma->0) =     -356.01229151


--------------------------------------------------------------------------------------------------------




--------------------------------------- Iteration      1(  20)  ---------------------------------------


    POTLOK:  cpu time    0.3919: real time    0.3919
    SETDIJ:  cpu time    0.4757: real time    0.4954
    TRIAL :  cpu time   14.4463: real time   14.5446
    CORREC:  cpu time    4.4847: real time    4.4865
    CHARGE:  cpu time    1.4850: real time    1.4877
    --------------------------------------------
      LOOP:  cpu time   21.2886: real time   21.4122

 eigenvalue-minimisations  :     0
 total energy-change (2. order) :-0.6732544E-01  (-0.1101731E+00)
 number of electron     269.9999992 magnetization     -11.6770149
 augmentation part       86.6982782 magnetization      -8.1182439

 Free energy of the ion-electron system (eV)
  ---------------------------------------------------
  alpha Z        PSCENC =       798.38614055
  Ewald energy   TEWEN  =    -12901.57693327
  -Hartree energ DENC   =     -2490.16581829
  -exchange      EXHF   =         0.00000000
  -V(xc)+E(xc)   XCENC  =      -999.47957602
  PAW double counting   =     19419.82269338   -18170.58822695
  entropy T*S    EENTRO =        -0.03474547
  eigenvalues    EBANDS =      1289.87061475
  atomic energy  EATOM  =     12697.67401269
  ---------------------------------------------------
  free energy    TOTEN  =      -356.09087886 eV

  energy without entropy =     -356.05613339  energy(sigma->0) =     -356.07929704


--------------------------------------------------------------------------------------------------------




--------------------------------------- Iteration      1(  21)  ---------------------------------------


    POTLOK:  cpu time    0.3931: real time    0.3930
    SETDIJ:  cpu time    0.4567: real time    0.4567
    TRIAL :  cpu time   13.5743: real time   13.7068
    CORREC:  cpu time    4.5758: real time    4.5768
    CHARGE:  cpu time    1.4499: real time    1.4673
    --------------------------------------------
      LOOP:  cpu time   20.4630: real time   20.6150

 eigenvalue-minimisations  :     0
 total energy-change (2. order) :-0.1101345E+00  (-0.8847021E-01)
 number of electron     269.9999992 magnetization     -11.7679691
 augmentation part       86.9219327 magnetization      -8.2051388

 Free energy of the ion-electron system (eV)
  ---------------------------------------------------
  alpha Z        PSCENC =       798.38614055
  Ewald energy   TEWEN  =    -12901.57693327
  -Hartree energ DENC   =     -2485.53555256
  -exchange      EXHF   =         0.00000000
  -V(xc)+E(xc)   XCENC  =      -999.50722832
  PAW double counting   =     19417.23276594   -18166.79086056
  entropy T*S    EENTRO =        -0.03568060
  eigenvalues    EBANDS =      1283.95138762
  atomic energy  EATOM  =     12697.67401269
  ---------------------------------------------------
  free energy    TOTEN  =      -356.20101339 eV

  energy without entropy =     -356.16533279  energy(sigma->0) =     -356.18911985


--------------------------------------------------------------------------------------------------------




--------------------------------------- Iteration      1(  22)  ---------------------------------------


    POTLOK:  cpu time    0.3924: real time    0.3924
    SETDIJ:  cpu time    0.4617: real time    0.4617
    TRIAL :  cpu time   14.4942: real time   14.6441
    CORREC:  cpu time    5.2268: real time    5.2658
    CHARGE:  cpu time    1.4073: real time    1.4399
    --------------------------------------------
      LOOP:  cpu time   21.9872: real time   22.2100

 eigenvalue-minimisations  :     0
 total energy-change (2. order) :-0.8855666E-01  (-0.2799663E-01)
 number of electron     269.9999992 magnetization     -11.7697917
 augmentation part       86.9747445 magnetization      -8.2239386

 Free energy of the ion-electron system (eV)
  ---------------------------------------------------
  alpha Z        PSCENC =       798.38614055
  Ewald energy   TEWEN  =    -12901.57693327
  -Hartree energ DENC   =     -2501.08948884
  -exchange      EXHF   =         0.00000000
  -V(xc)+E(xc)   XCENC  =      -998.84407440
  PAW double counting   =     19455.16417979   -18207.74303710
  entropy T*S    EENTRO =        -0.03583313
  eigenvalues    EBANDS =      1301.77531114
  atomic energy  EATOM  =     12697.67401269
  ---------------------------------------------------
  free energy    TOTEN  =      -356.28957004 eV

  energy without entropy =     -356.25373691  energy(sigma->0) =     -356.27762567


--------------------------------------------------------------------------------------------------------




--------------------------------------- Iteration      1(  23)  ---------------------------------------


    POTLOK:  cpu time    0.3911: real time    0.3911
    SETDIJ:  cpu time    0.4566: real time    0.4566
    TRIAL :  cpu time   13.7910: real time   13.8653
    CORREC:  cpu time    4.5031: real time    4.5154
    CHARGE:  cpu time    1.4415: real time    1.4436
    --------------------------------------------
      LOOP:  cpu time   20.5856: real time   20.6752

 eigenvalue-minimisations  :     0
 total energy-change (2. order) :-0.2800873E-01  (-0.3779431E-01)
 number of electron     269.9999992 magnetization     -11.8596271
 augmentation part       86.9333739 magnetization      -8.2692480

 Free energy of the ion-electron system (eV)
  ---------------------------------------------------
  alpha Z        PSCENC =       798.38614055
  Ewald energy   TEWEN  =    -12901.57693327
  -Hartree energ DENC   =     -2504.61810945
  -exchange      EXHF   =         0.00000000
  -V(xc)+E(xc)   XCENC  =      -998.67286988
  PAW double counting   =     19463.58202302   -18216.80602835
  entropy T*S    EENTRO =        -0.03669678
  eigenvalues    EBANDS =      1305.75001905
  atomic energy  EATOM  =     12697.67401269
  ---------------------------------------------------
  free energy    TOTEN  =      -356.31757877 eV

  energy without entropy =     -356.28088199  energy(sigma->0) =     -356.30534651


--------------------------------------------------------------------------------------------------------




--------------------------------------- Iteration      1(  24)  ---------------------------------------


    POTLOK:  cpu time    0.3929: real time    0.3929
    SETDIJ:  cpu time    0.4828: real time    0.4828
    TRIAL :  cpu time   13.6023: real time   13.7301
    CORREC:  cpu time    4.5067: real time    4.5475
    CHARGE:  cpu time    1.4074: real time    1.4150
    --------------------------------------------
      LOOP:  cpu time   20.3963: real time   20.5736

 eigenvalue-minimisations  :     0
 total energy-change (2. order) :-0.3780040E-01  (-0.2938331E-01)
 number of electron     269.9999992 magnetization     -11.9388274
[...]
   45       -0.018  -0.018  -2.367  -2.403
   46        0.021   0.013   2.404   2.438
   47        0.033   0.029   2.158   2.219
   48       -0.011  -0.024  -2.219  -2.254
   49        0.014   0.018   2.284   2.316
   50       -0.020  -0.021  -2.380  -2.421
   51       -0.019  -0.018  -2.370  -2.407
   52        0.012   0.024   2.251   2.287
   53       -0.031  -0.033  -2.435  -2.499
   54       -0.019  -0.015  -2.370  -2.404
--------------------------------------------------
tot          0.019   0.060 -12.624 -12.546
 
    FORLOC:  cpu time    0.0589: real time    0.0589
    FORNL :  cpu time   22.3193: real time   22.4714
    STRESS:  cpu time   31.4157: real time   31.6044
    FORCOR:  cpu time    0.4396: real time    0.4896
    OFIELD:  cpu time    0.0021: real time    0.0021

  FORCE on cell =-STRESS in cart. coord.  units (eV):
  Direction    XX          YY          ZZ          XY          YZ          ZX
  --------------------------------------------------------------------------------------
  Alpha Z   798.38614   798.38614   798.38614
  Ewald   -4053.61603 -4053.61603 -4794.40593    -0.00000    -0.00000    -0.00000
  Hartree  1084.01912  1084.01912   333.03320     0.16061    -0.00000    -0.00000
  E(xc)   -1141.40036 -1141.40036 -1139.78021    -0.04769    -0.00000    -0.00000
  Local     369.02719   369.02719  1904.36014    -0.53996    -0.00000    -0.00000
  n-local  -171.48193  -168.76361  -176.86990     0.18269    -0.20726    -0.15683
  augment   784.29164   784.29164   767.97871     0.12648     0.00001     0.00001
  Kinetic  2328.23711  2342.46909  2309.24388     0.51539    -1.60791    -0.62749
  Fock        0.00000     0.00000     0.00000     0.00000     0.00000     0.00000
  -------------------------------------------------------------------------------------
  Total       5.93804     5.93804     1.94602     0.39386     0.00000     0.00000
  in kB      13.40137    13.40137     4.39191     0.88889     0.00000     0.00000
  external pressure =       10.40 kB  Pullay stress =        0.00 kB


 VOLUME and BASIS-vectors are now :
 -----------------------------------------------------------------------------
  energy-cutoff  :      404.80
  volume of cell :      709.91
      direct lattice vectors                 reciprocal lattice vectors
     8.250148166  0.000000000  0.000000000     0.121209944  0.000000000  0.000000000
     0.000000000  8.250148166  0.000000000     0.000000000  0.121209944  0.000000000
     0.000000000  0.000000000 10.429911392     0.000000000  0.000000000  0.095878092

  length of vectors
     8.250148166  8.250148166 10.429911392     0.121209944  0.121209944  0.095878092


 FORCES acting on ions:
    Electron-Ion                     Ewald-Force                    Non-Local-Force
 -----------------------------------------------------------------------------------------------
   0.761E-11 0.761E-11 -.237E-01   -.239E-08 -.239E-08 -.210E-08   0.000E+00 0.000E+00 0.731E-02
   -.132E-09 -.132E-09 -.183E+00   -.239E-08 -.239E-08 0.171E-08   0.000E+00 0.000E+00 0.646E-01
   0.502E-10 0.502E-10 0.144E+00   -.239E-08 -.239E-08 0.861E-08   0.000E+00 0.000E+00 -.201E-01
   -.498E-02 0.624E-02 0.644E-01   -.239E-08 -.802E-09 -.210E-08   -.208E-02 -.771E-02 -.287E-01
   0.107E+00 0.868E-01 -.783E-01   -.239E-08 -.802E-09 0.171E-08   -.879E-01 -.831E-01 0.349E-01
   0.300E-01 0.217E-01 0.268E-02   -.239E-08 -.802E-09 0.861E-08   0.233E-01 0.910E-02 0.559E-02
   0.498E-02 -.624E-02 0.644E-01   -.239E-08 0.631E-08 -.210E-08   0.208E-02 0.771E-02 -.287E-01
   -.107E+00 -.868E-01 -.783E-01   -.239E-08 0.631E-08 0.171E-08   0.879E-01 0.831E-01 0.349E-01
   -.300E-01 -.217E-01 0.268E-02   -.239E-08 0.631E-08 0.861E-08   -.233E-01 -.910E-02 0.559E-02
   0.624E-02 -.498E-02 0.644E-01   -.802E-09 -.239E-08 -.210E-08   -.771E-02 -.208E-02 -.287E-01
   0.868E-01 0.107E+00 -.783E-01   -.802E-09 -.239E-08 0.171E-08   -.831E-01 -.879E-01 0.349E-01
   0.217E-01 0.300E-01 0.268E-02   -.803E-09 -.239E-08 0.861E-08   0.910E-02 0.233E-01 0.559E-02
   0.732E-02 0.732E-02 0.160E+00   -.802E-09 -.802E-09 -.210E-08   -.228E-02 -.228E-02 -.687E-01
   -.229E-01 -.229E-01 -.347E-01   -.802E-09 -.802E-09 0.171E-08   0.700E-02 0.700E-02 0.272E-01
   -.325E-01 -.325E-01 -.139E-01   -.803E-09 -.802E-09 0.861E-08   0.226E-02 0.226E-02 -.277E-01
   0.116E-01 -.116E-01 0.750E-02   -.802E-09 0.631E-08 -.210E-08   -.121E-01 0.121E-01 -.195E-01
   0.790E-01 -.790E-01 -.114E+00   -.802E-09 0.631E-08 0.171E-08   -.815E-01 0.815E-01 0.705E-01
   -.230E-02 0.230E-02 0.594E-01   -.803E-09 0.631E-08 0.861E-08   0.201E-01 -.201E-01 -.286E-01
   -.624E-02 0.498E-02 0.644E-01   0.631E-08 -.239E-08 -.210E-08   0.771E-02 0.208E-02 -.287E-01
   -.868E-01 -.107E+00 -.783E-01   0.631E-08 -.239E-08 0.171E-08   0.831E-01 0.879E-01 0.349E-01
   -.217E-01 -.300E-01 0.268E-02   0.631E-08 -.239E-08 0.861E-08   -.910E-02 -.233E-01 0.559E-02
   -.116E-01 0.116E-01 0.750E-02   0.631E-08 -.802E-09 -.210E-08   0.121E-01 -.121E-01 -.195E-01
   -.790E-01 0.790E-01 -.114E+00   0.631E-08 -.802E-09 0.171E-08   0.815E-01 -.815E-01 0.705E-01
   0.230E-02 -.230E-02 0.594E-01   0.631E-08 -.802E-09 0.861E-08   -.201E-01 0.201E-01 -.286E-01
   -.732E-02 -.732E-02 0.160E+00   0.631E-08 0.631E-08 -.210E-08   0.228E-02 0.228E-02 -.687E-01
   0.229E-01 0.229E-01 -.347E-01   0.631E-08 0.631E-08 0.171E-08   -.700E-02 -.700E-02 0.272E-01
   0.325E-01 0.325E-01 -.139E-01   0.631E-08 0.631E-08 0.861E-08   -.226E-02 -.226E-02 -.277E-01
   0.543E-01 0.543E-01 -.236E+00   -.169E-07 -.169E-07 -.180E-07   -.817E-02 -.817E-02 0.216E+00
   0.418E+00 0.418E+00 0.136E+00   -.169E-07 -.169E-07 -.170E-08   -.190E+00 -.190E+00 -.114E+00
   -.261E-01 -.261E-01 -.138E+00   -.169E-07 -.169E-07 0.115E-07   -.402E-02 -.402E-02 0.222E+00
   -.175E-01 -.662E-01 -.127E+00   -.169E-07 0.802E-09 -.180E-07   0.219E-03 0.569E-02 0.128E+00
   -.100E+00 -.443E+00 0.731E-01   -.169E-07 0.802E-09 -.170E-08   0.120E+00 0.311E+00 -.107E+00
   -.173E-01 0.250E-01 -.516E-01   -.169E-07 0.802E-09 0.115E-07   0.625E-01 0.613E-01 0.132E+00
   -.111E-01 0.111E-01 0.231E+00   -.169E-07 0.130E-07 -.180E-07   -.177E-01 0.177E-01 -.332E+00
   -.767E-01 0.767E-01 -.310E+00   -.169E-07 0.130E-07 -.170E-08   0.337E-01 -.337E-01 0.289E+00
   -.615E-02 0.615E-02 0.346E+00   -.169E-07 0.130E-07 0.115E-07   0.443E-01 -.443E-01 -.398E+00
   -.662E-01 -.175E-01 -.127E+00   0.802E-09 -.169E-07 -.180E-07   0.569E-02 0.219E-03 0.128E+00
   -.443E+00 -.100E+00 0.731E-01   0.802E-09 -.169E-07 -.170E-08   0.311E+00 0.120E+00 -.107E+00
   0.250E-01 -.173E-01 -.516E-01   0.802E-09 -.169E-07 0.115E-07   0.613E-01 0.625E-01 0.132E+00
   -.780E-10 -.787E-10 -.114E-01   0.802E-09 0.802E-09 -.180E-07   0.000E+00 0.000E+00 0.310E-01
   -.969E-10 -.961E-10 -.170E-01   0.802E-09 0.802E-09 -.170E-08   0.000E+00 0.000E+00 -.737E-01
   0.285E-10 0.297E-10 0.604E-01   0.802E-09 0.802E-09 0.115E-07   0.000E+00 0.000E+00 -.839E-02
   0.662E-01 0.175E-01 -.127E+00   0.802E-09 0.130E-07 -.180E-07   -.569E-02 -.219E-03 0.128E+00
   0.443E+00 0.100E+00 0.731E-01   0.802E-09 0.130E-07 -.170E-08   -.311E+00 -.120E+00 -.107E+00
   -.250E-01 0.173E-01 -.516E-01   0.802E-09 0.130E-07 0.115E-07   -.613E-01 -.625E-01 0.132E+00
   0.111E-01 -.111E-01 0.231E+00   0.130E-07 -.169E-07 -.180E-07   0.177E-01 -.177E-01 -.332E+00
   0.767E-01 -.767E-01 -.310E+00   0.130E-07 -.169E-07 -.170E-08   -.337E-01 0.337E-01 0.289E+00
   0.615E-02 -.615E-02 0.346E+00   0.130E-07 -.169E-07 0.115E-07   -.443E-01 0.443E-01 -.398E+00
   0.175E-01 0.662E-01 -.127E+00   0.130E-07 0.802E-09 -.180E-07   -.219E-03 -.569E-02 0.128E+00
   0.100E+00 0.443E+00 0.731E-01   0.130E-07 0.802E-09 -.170E-08   -.120E+00 -.311E+00 -.107E+00
   0.173E-01 -.250E-01 -.516E-01   0.130E-07 0.802E-09 0.115E-07   -.625E-01 -.613E-01 0.132E+00
   -.543E-01 -.543E-01 -.236E+00   0.130E-07 0.130E-07 -.180E-07   0.817E-02 0.817E-02 0.216E+00
   -.418E+00 -.418E+00 0.136E+00   0.130E-07 0.130E-07 -.170E-08   0.190E+00 0.190E+00 -.114E+00
   0.261E-01 0.261E-01 -.138E+00   0.130E-07 0.130E-07 0.115E-07   0.402E-02 0.402E-02 0.222E+00
 -----------------------------------------------------------------------------------------------
   -.451E-07 -.451E-07 -.327E+00   -.614E-13 -.142E-13 0.128E-13   -.772E-16 0.607E-17 0.328E+00
 
 
 POSITION                                       TOTAL-FORCE (eV/Angst)
 -----------------------------------------------------------------------------------
      0.00000      0.00000      0.00000         0.000000      0.000000     -0.017661
      0.00000      0.00000      3.47664         0.000000      0.000000     -0.122078
      0.00000      0.00000      6.95327         0.000000      0.000000      0.123977
      0.00000      2.75005      0.00000        -0.006872     -0.000844      0.038434
      0.00000      2.75005      3.47664         0.026950      0.010658     -0.045035
      0.00000      2.75005      6.95327         0.051319      0.029468      0.006146
      0.00000      5.50010      0.00000         0.006872      0.000844      0.038434
      0.00000      5.50010      3.47664        -0.026950     -0.010658     -0.045035
      0.00000      5.50010      6.95327        -0.051319     -0.029468      0.006146
      2.75005      0.00000      0.00000        -0.000844     -0.006872      0.038434
      2.75005      0.00000      3.47664         0.010658      0.026950     -0.045035
      2.75005      0.00000      6.95327         0.029468      0.051319      0.006146
      2.75005      2.75005      0.00000         0.005176      0.005176      0.098895
      2.75005      2.75005      3.47664        -0.016934     -0.016934     -0.009254
      2.75005      2.75005      6.95327        -0.030879     -0.030879     -0.039897
      2.75005      5.50010      0.00000         0.000458     -0.000458     -0.011143
      2.75005      5.50010      3.47664         0.004103     -0.004103     -0.048188
      2.75005      5.50010      6.95327         0.015461     -0.015461      0.031834
      5.50010      0.00000      0.00000         0.000844      0.006872      0.038434
      5.50010      0.00000      3.47664        -0.010658     -0.026950     -0.045035
      5.50010      0.00000      6.95327        -0.029468     -0.051319      0.006146
      5.50010      2.75005      0.00000        -0.000458      0.000458     -0.011143
      5.50010      2.75005      3.47664        -0.004103      0.004103     -0.048188
      5.50010      2.75005      6.95327        -0.015461      0.015461      0.031834
      5.50010      5.50010      0.00000        -0.005176     -0.005176      0.098895
      5.50010      5.50010      3.47664         0.016934      0.016934     -0.009254
      5.50010      5.50010      6.95327         0.030879      0.030879     -0.039897
      1.37502      1.37502      1.73832         0.045003      0.045003     -0.023454
      1.37502      1.37502      5.21496         0.234464      0.234464      0.025512
      1.37502      1.37502      8.69159        -0.028056     -0.028056      0.073477
      1.37502      4.12507      1.73832        -0.017390     -0.059646     -0.000080
      1.37502      4.12507      5.21496         0.018085     -0.138520     -0.029512
      1.37502      4.12507      8.69159         0.044771      0.084161      0.070900
      1.37502      6.87512      1.73832        -0.028965      0.028965     -0.092624
      1.37502      6.87512      5.21496        -0.046053      0.046053     -0.026680
      1.37502      6.87512      8.69159         0.037907     -0.037907     -0.044058
      4.12507      1.37502      1.73832        -0.059646     -0.017390     -0.000080
      4.12507      1.37502      5.21496        -0.138520      0.018085     -0.029512
      4.12507      1.37502      8.69159         0.084161      0.044771      0.070900
      4.12507      4.12507      1.73832         0.000000      0.000000      0.021638
      4.12507      4.12507      5.21496         0.000000      0.000000     -0.083683
      4.12507      4.12507      8.69159         0.000000      0.000000      0.045557
      4.12507      6.87512      1.73832         0.059646      0.017390     -0.000080
      4.12507      6.87512      5.21496         0.138520     -0.018085     -0.029512
      4.12507      6.87512      8.69159        -0.084161     -0.044771      0.070900
      6.87512      1.37502      1.73832         0.028965     -0.028965     -0.092624
      6.87512      1.37502      5.21496         0.046053     -0.046053     -0.026680
      6.87512      1.37502      8.69159        -0.037907      0.037907     -0.044058
      6.87512      4.12507      1.73832         0.017390      0.059646     -0.000080
      6.87512      4.12507      5.21496        -0.018085      0.138520     -0.029512
      6.87512      4.12507      8.69159        -0.044771     -0.084161      0.070900
      6.87512      6.87512      1.73832        -0.045003     -0.045003     -0.023454
      6.87512      6.87512      5.21496        -0.234464     -0.234464      0.025512
      6.87512      6.87512      8.69159         0.028056      0.028056      0.073477
 -----------------------------------------------------------------------------------
    total drift:                               -0.000000     -0.000000      0.000204


--------------------------------------------------------------------------------------------------------



  FREE ENERGIE OF THE ION-ELECTRON SYSTEM (eV)
  ---------------------------------------------------
  free  energy   TOTEN  =      -356.50468395 eV

  energy  without entropy=     -356.46292669  energy(sigma->0) =     -356.49076486
 


--------------------------------------------------------------------------------------------------------


    POTLOK:  cpu time    0.8666: real time    0.8669


--------------------------------------------------------------------------------------------------------


     LOOP+:  cpu time 1955.4244: real time 1971.2565
    4ORBIT:  cpu time    0.0000: real time    0.0000
 


 total charge     
 
# of ion       s       p       d       tot
------------------------------------------
    1        0.405   0.427   0.000   0.832
    2        0.405   0.429   0.000   0.834
    3        0.405   0.430   0.000   0.834
    4        0.405   0.427   0.000   0.832
    5        0.405   0.428   0.000   0.833
    6        0.404   0.428   0.000   0.833
    7        0.405   0.427   0.000   0.832
    8        0.405   0.428   0.000   0.833
    9        0.404   0.428   0.000   0.833
   10        0.405   0.427   0.000   0.832
   11        0.405   0.427   0.000   0.833
   12        0.404   0.429   0.000   0.833
   13        0.405   0.427   0.000   0.832
   14        0.405   0.426   0.000   0.831
   15        0.404   0.428   0.000   0.832
   16        0.405   0.427   0.000   0.833
   17        0.405   0.428   0.000   0.833
   18        0.404   0.429   0.000   0.833
   19        0.405   0.427   0.000   0.832
   20        0.405   0.427   0.000   0.833
   21        0.404   0.429   0.000   0.833
   22        0.405   0.427   0.000   0.832
   23        0.405   0.428   0.000   0.833
   24        0.404   0.429   0.000   0.833
   25        0.405   0.427   0.000   0.832
   26        0.405   0.426   0.000   0.831
   27        0.404   0.427   0.000   0.832
   28        0.333   0.354   5.125   5.811
   29        0.334   0.359   5.116   5.810
   30        0.333   0.349   5.135   5.817
   31        0.334   0.351   5.134   5.818
   32        0.333   0.357   5.108   5.798
   33        0.334   0.350   5.137   5.821
   34        0.335   0.348   5.139   5.821
   35        0.333   0.353   5.140   5.827
   36        0.332   0.353   5.135   5.821
   37        0.334   0.352   5.139   5.824
   38        0.333   0.354   5.150   5.837
   39        0.333   0.350   5.139   5.823
   40        0.335   0.350   5.136   5.821
   41        0.332   0.352   5.138   5.822
   42        0.334   0.351   5.136   5.821
   43        0.334   0.352   5.139   5.825
   44        0.334   0.354   5.151   5.839
   45        0.334   0.350   5.140   5.823
   46        0.335   0.348   5.138   5.821
   47        0.333   0.354   5.140   5.827
   48        0.332   0.353   5.132   5.817
   49        0.334   0.352   5.129   5.814
   50        0.333   0.357   5.107   5.797
   51        0.334   0.350   5.134   5.818
   52        0.334   0.353   5.140   5.827
   53        0.335   0.359   5.119   5.813
   54        0.333   0.348   5.145   5.826
--------------------------------------------------
tot         19.939  21.059 138.622 179.620
 


 magnetization (x)
 
# of ion       s       p       d       tot
------------------------------------------
    1        0.000  -0.002   0.000  -0.002
    2       -0.009  -0.019   0.000  -0.028
    3        0.012   0.020   0.000   0.032
    4       -0.000  -0.000   0.000  -0.000
    5       -0.005  -0.011   0.000  -0.016
    6        0.016   0.027   0.000   0.044
    7        0.000  -0.000   0.000  -0.000
    8       -0.005  -0.012   0.000  -0.017
    9        0.016   0.028   0.000   0.044
   10       -0.000  -0.000   0.000  -0.000
   11       -0.005  -0.010   0.000  -0.015
   12        0.017   0.029   0.000   0.045
   13       -0.000   0.002   0.000   0.002
   14       -0.002  -0.003   0.000  -0.005
   15        0.021   0.035   0.000   0.055
   16        0.000  -0.002   0.000  -0.002
   17       -0.004  -0.009   0.000  -0.013
   18        0.018   0.030   0.000   0.048
   19       -0.000  -0.000   0.000  -0.000
   20       -0.005  -0.010   0.000  -0.015
   21        0.017   0.029   0.000   0.046
   22        0.000  -0.002   0.000  -0.002
   23       -0.004  -0.009   0.000  -0.013
   24        0.018   0.030   0.000   0.048
   25       -0.000   0.001   0.000   0.001
   26       -0.001  -0.003   0.000  -0.005
   27        0.021   0.035   0.000   0.056
   28        0.013   0.023   2.274   2.310
   29       -0.031  -0.033  -2.435  -2.499
   30       -0.020  -0.015  -2.382  -2.416
   31        0.014   0.018   2.276   2.308
   32       -0.020  -0.021  -2.382  -2.423
   33       -0.018  -0.019  -2.365  -2.403
   34        0.021   0.013   2.401   2.435
   35        0.033   0.029   2.159   2.220
   36       -0.011  -0.024  -2.213  -2.247
   37        0.015   0.020   2.278   2.312
   38       -0.021  -0.021  -2.359  -2.402
   39       -0.018  -0.018  -2.369  -2.405
   40        0.016   0.015   2.303   2.335
   41       -0.010  -0.011  -2.327  -2.347
   42       -0.016  -0.022  -2.356  -2.394
   43        0.015   0.019   2.277   2.311
   44       -0.021  -0.021  -2.358  -2.401
   45       -0.018  -0.018  -2.367  -2.403
   46        0.021   0.013   2.404   2.438
   47        0.033   0.029   2.158   2.219
   48       -0.011  -0.024  -2.219  -2.254
   49        0.014   0.018   2.284   2.316
   50       -0.020  -0.021  -2.380  -2.421
   51       -0.019  -0.018  -2.370  -2.407
   52        0.012   0.024   2.251   2.287
   53       -0.031  -0.033  -2.435  -2.499
   54       -0.019  -0.015  -2.370  -2.404
--------------------------------------------------
tot          0.019   0.060 -12.624 -12.546
 

 total amount of memory used by VASP MPI-rank0   815466. kBytes
=======================================================================

   base      :      30000. kBytes
   nonl-proj :      28494. kBytes
   fftplans  :      31580. kBytes
   grid      :      21385. kBytes
   one-center:        435. kBytes
   wavefun   :     703572. kBytes
 
  
  
 General timing and accounting informations for this job:
 ========================================================
  
                  Total CPU time used (sec):     1985.375
                            User time (sec):     1958.197
                          System time (sec):       27.178
                         Elapsed time (sec):     2003.515
  
                   Maximum memory used (kb):      976172.
                   Average memory used (kb):           0.
  
                          Minor page faults:       627315
                          Major page faults:           20
                 Voluntary context switches:         3574
