   36   36    1    2
  0.1314651E+02  0.8250148E-09  0.8250148E-09  0.6953274E-09  0.2000000E-15
  1.000000000000000E-004
  CAR 
 AlMn_pv                                 
    180     36    110
 
  0.0000000E+00  0.0000000E+00  0.0000000E+00  0.6666667E-02
    1       -2.520042     -2.520042   1.000000   1.000000
    2       -0.366809     -0.366809   1.000000   1.000000
    3       -0.338434     -0.338434   1.000000   1.000000
    4       -0.331179     -0.331179   1.000000   1.000000
    5       -0.311222     -0.311222   1.000000   1.000000
    6       -0.123014     -0.123014   1.000000   1.000000
    7        1.353725      1.353725   1.000000   1.000000
    8        1.389929      1.389929   1.000000   1.000000
    9        1.393568      1.393568   1.000000   1.000000
   10        1.398131      1.398131   1.000000   1.000000
   11        1.429735      1.429735   1.000000   1.000000
   12        1.564107      1.564107   1.000000   1.000000
   13        1.570348      1.570348   1.000000   1.000000
   14        1.608522      1.608522   1.000000   1.000000
   15        1.622980      1.622980   1.000000   1.000000
   16        2.747919      2.747919   1.000000   1.000000
   17        2.755500      2.755500   1.000000   1.000000
   18        2.814599      2.814599   1.000000   1.000000
   19        2.817793      2.817793   1.000000   1.000000
   20        3.475850      3.475850   1.000000   1.000000
   21        3.548896      3.548896   1.000000   1.000000
   22        3.557359      3.557359   1.000000   1.000000
   23        3.628512      3.628512   1.000000   1.000000
   24        4.086329      4.086329   1.000000   1.000000
   25        4.223965      4.223965   1.000000   1.000000
   26        4.337740      4.337740   1.000000   1.000000
   27        4.486722      4.486722   1.000000   1.000000
   28        4.531929      4.531929   1.000000   1.000000
   29        4.613071      4.613071   1.000000   1.000000
   30        4.619745      4.619745   1.000000   1.000000
   31        4.669418      4.669418   1.000000   1.000000
   32        4.737514      4.737514   1.000000   1.000000
   33        4.758026      4.758026   1.000000   1.000000
   34        4.762054      4.762054   1.000000   1.000000
   35        4.881582      4.881582   1.000000   1.000000
   36        4.888174      4.888174   1.000000   1.000000
   37        4.917257      4.917257   1.000000   1.000000
   38        4.921345      4.921345   1.000000   1.000000
   39        5.024316      5.024316   1.000000   1.000000
   40        5.167852      5.167852   1.000000   1.000000
   41        5.251913      5.251913   1.000000   1.000000
   42        5.300228      5.300228   1.000000   1.000000
   43        5.352994      5.352994   1.000000   1.000000
   44        5.375588      5.375588   1.000000   1.000000
   45        5.385072      5.385072   1.000000   1.000000
   46        5.425125      5.425125   1.000000   1.000000
   47        5.525499      5.525499   1.000000   1.000000
   48        5.596250      5.596250   1.000000   1.000000
   49        5.607342      5.607342   1.000000   1.000000
   50        5.669964      5.669964   1.000000   1.000000
   51        5.670215      5.670215   1.000000   1.000000
   52        5.685314      5.685314   1.000000   1.000000
   53        5.808569      5.808569   1.000000   1.000000
   54        5.833438      5.833438   1.000000   1.000000
   55        5.854719      5.854719   1.000000   1.000000
   56        5.936962      5.936962   1.000000   1.000000
   57        5.962460      5.962460   1.000000   1.000000
   58        6.150262      6.150262   1.000000   1.000000
   59        6.223142      6.223142   1.000000   1.000000
   60        6.227437      6.227437   1.000000   1.000000
   61        6.237461      6.237461   1.000000   1.000000
   62        6.397325      6.397325   1.000000   1.000000
   63        6.403146      6.403146   1.000000   1.000000
   64        6.429715      6.429715   1.000000   1.000000
   65        6.481895      6.481895   1.000000   1.000000
   66        6.513982      6.513982   1.000000   1.000000
   67        6.547023      6.547023   1.000000   1.000000
   68        6.584919      6.584919   1.000000   1.000000
   69        6.590301      6.590301   1.000000   1.000000
   70        6.648223      6.648223   1.000000   1.000000
   71        6.650004      6.650004   1.000000   1.000000
   72        6.657848      6.657848   1.000000   1.000000
   73        6.704748      6.704748   1.000000   1.000000
   74        6.709208      6.709208   1.000000   1.000000
   75        6.779603      6.779603   1.000000   1.000000
   76        6.785174      6.785174   1.000000   1.000000
   77        6.787412      6.787412   1.000000   1.000000
   78        6.930190      6.930190   1.000000   1.000000
   79        6.948838      6.948838   1.000000   1.000000
   80        7.112581      7.112581   1.000091   1.000091
   81        7.256056      7.256056   1.002843   1.002843
   82        7.267838      7.267838   1.003580   1.003580
   83        7.271195      7.271195   1.003810   1.003810
   84        7.369460      7.369460   1.017682   1.017683
   85        7.378877      7.378877   1.019757   1.019757
   86        7.459437      7.459437   1.035164   1.035164
   87        7.475944      7.475944   1.035226   1.035226
   88        7.547273      7.547273   0.997464   0.997464
   89        7.580934      7.580934   0.946005   0.946002
   90        7.606271      7.606271   0.888959   0.888958
   91        7.739830      7.739830   0.389224   0.389224
   92        7.885304      7.885303  -0.003701  -0.003701
   93        7.924594      7.924594  -0.030006  -0.030007
   94        8.025603      8.025603  -0.024878  -0.024878
   95        8.088701      8.088702  -0.011646  -0.011647
   96        8.169703      8.169707  -0.002905  -0.002904
   97        8.200338      8.200339  -0.001542  -0.001542
   98        8.220763      8.220623  -0.000974  -0.000982
   99        8.313010      8.313014  -0.000095  -0.000095
  100        8.339630      8.339652  -0.000044  -0.000044
  101        8.453679      8.453877  -0.000001  -0.000001
  102        8.557043      8.554847  -0.000000  -0.000000
  103        8.577900      8.588608  -0.000000  -0.000000
  104        8.616988      8.612594  -0.000000  -0.000000
  105        8.660921      8.658785  -0.000000  -0.000000
  106        8.785214      8.784409  -0.000000  -0.000000
  107        8.825370      8.824699  -0.000000  -0.000000
  108        8.851954      8.838192  -0.000000  -0.000000
  109        8.857241      8.857067  -0.000000  -0.000000
  110        8.862793      8.864113  -0.000000  -0.000000
 
  0.2000000E+00  0.0000000E+00  0.0000000E+00  0.1333333E-01
    1       -2.429495     -2.429495   1.000000   1.000000
    2       -1.103293     -1.103293   1.000000   1.000000
    3       -0.277772     -0.277772   1.000000   1.000000
    4       -0.230271     -0.230271   1.000000   1.000000
    5       -0.057076     -0.057076   1.000000   1.000000
    6        0.566654      0.566654   1.000000   1.000000
    7        0.884373      0.884373   1.000000   1.000000
    8        0.921453      0.921453   1.000000   1.000000
    9        0.947259      0.947259   1.000000   1.000000
   10        1.419117      1.419117   1.000000   1.000000
   11        1.488830      1.488830   1.000000   1.000000
   12        1.490334      1.490334   1.000000   1.000000
   13        1.925012      1.925012   1.000000   1.000000
   14        2.296112      2.296112   1.000000   1.000000
   15        2.311360      2.311360   1.000000   1.000000
   16        2.339122      2.339122   1.000000   1.000000
   17        2.348382      2.348382   1.000000   1.000000
   18        2.829828      2.829828   1.000000   1.000000
   19        3.210298      3.210298   1.000000   1.000000
   20        3.291457      3.291457   1.000000   1.000000
   21        3.564191      3.564191   1.000000   1.000000
   22        3.678644      3.678644   1.000000   1.000000
   23        3.745271      3.745271   1.000000   1.000000
   24        4.071073      4.071073   1.000000   1.000000
   25        4.190130      4.190130   1.000000   1.000000
   26        4.255238      4.255238   1.000000   1.000000
   27        4.324084      4.324084   1.000000   1.000000
   28        4.449459      4.449459   1.000000   1.000000
   29        4.544241      4.544241   1.000000   1.000000
   30        4.570811      4.570811   1.000000   1.000000
   31        4.640967      4.640967   1.000000   1.000000
   32        4.650742      4.650742   1.000000   1.000000
   33        4.703924      4.703924   1.000000   1.000000
   34        4.750410      4.750410   1.000000   1.000000
   35        4.874517      4.874517   1.000000   1.000000
   36        4.926937      4.926937   1.000000   1.000000
   37        4.995404      4.995404   1.000000   1.000000
   38        5.014600      5.014600   1.000000   1.000000
   39        5.060756      5.060756   1.000000   1.000000
   40        5.077808      5.077808   1.000000   1.000000
   41        5.134543      5.134543   1.000000   1.000000
   42        5.259390      5.259390   1.000000   1.000000
   43        5.319797      5.319797   1.000000   1.000000
   44        5.323582      5.323582   1.000000   1.000000
   45        5.385493      5.385493   1.000000   1.000000
   46        5.407190      5.407190   1.000000   1.000000
   47        5.521535      5.521535   1.000000   1.000000
   48        5.614726      5.614726   1.000000   1.000000
   49        5.615318      5.615318   1.000000   1.000000
   50        5.704740      5.704740   1.000000   1.000000
   51        5.734242      5.734242   1.000000   1.000000
   52        5.770777      5.770777   1.000000   1.000000
   53        5.797135      5.797135   1.000000   1.000000
   54        5.841581      5.841581   1.000000   1.000000
   55        5.915752      5.915752   1.000000   1.000000
   56        5.954332      5.954332   1.000000   1.000000
   57        5.963188      5.963188   1.000000   1.000000
   58        6.136394      6.136394   1.000000   1.000000
   59        6.156531      6.156531   1.000000   1.000000
   60        6.243596      6.243596   1.000000   1.000000
   61        6.289451      6.289451   1.000000   1.000000
   62        6.331191      6.331191   1.000000   1.000000
   63        6.342332      6.342332   1.000000   1.000000
   64        6.401135      6.401135   1.000000   1.000000
   65        6.437447      6.437447   1.000000   1.000000
   66        6.490994      6.490994   1.000000   1.000000
   67        6.501258      6.501258   1.000000   1.000000
   68        6.539397      6.539397   1.000000   1.000000
   69        6.561972      6.561972   1.000000   1.000000
   70        6.590838      6.590838   1.000000   1.000000
   71        6.618581      6.618581   1.000000   1.000000
   72        6.662936      6.662936   1.000000   1.000000
   73        6.725100      6.725100   1.000000   1.000000
   74        6.740463      6.740463   1.000000   1.000000
   75        6.777736      6.777736   1.000000   1.000000
   76        6.798521      6.798521   1.000000   1.000000
   77        6.836241      6.836241   1.000000   1.000000
   78        6.894473      6.894473   1.000000   1.000000
   79        6.922535      6.922535   1.000000   1.000000
   80        6.982376      6.982376   1.000002   1.000002
   81        7.110626      7.110626   1.000086   1.000086
   82        7.302401      7.302401   1.006664   1.006664
   83        7.352670      7.352670   1.014295   1.014295
   84        7.384505      7.384505   1.021028   1.021028
   85        7.387028      7.387028   1.021600   1.021600
   86        7.500817      7.500817   1.030465   1.030465
   87        7.535413      7.535413   1.009597   1.009596
   88        7.543505      7.543505   1.001678   1.001678
   89        7.570821      7.570821   0.964313   0.964313
   90        7.624463      7.624464   0.838160   0.838161
   91        7.757391      7.757391   0.318752   0.318752
   92        7.899723      7.899723  -0.016473  -0.016472
   93        8.007874      8.007875  -0.028861  -0.028861
   94        8.067210      8.067210  -0.015652  -0.015652
   95        8.116168      8.116169  -0.007634  -0.007634
   96        8.146696      8.146697  -0.004499  -0.004498
   97        8.191419      8.191419  -0.001865  -0.001865
   98        8.247063      8.247068  -0.000528  -0.000528
   99        8.351784      8.351782  -0.000031  -0.000031
  100        8.398460      8.398678  -0.000007  -0.000007
  101        8.434047      8.434134  -0.000002  -0.000002
  102        8.477613      8.477775  -0.000000  -0.000000
  103        8.497890      8.498080  -0.000000  -0.000000
  104        8.583858      8.584403  -0.000000  -0.000000
  105        8.595396      8.595217  -0.000000  -0.000000
  106        8.690339      8.689130  -0.000000  -0.000000
  107        8.770950      8.775130  -0.000000  -0.000000
  108        8.883378      8.935401  -0.000000  -0.000000
  109        8.977563      8.971445  -0.000000  -0.000000
  110        9.000758      9.018180  -0.000000  -0.000000
 
  0.4000000E+00  0.0000000E+00  0.0000000E+00  0.1333333E-01
    1       -2.159515     -2.159515   1.000000   1.000000
    2       -1.714476     -1.714476   1.000000   1.000000
    3       -0.030392     -0.030392   1.000000   1.000000
    4        0.013209      0.013209   1.000000   1.000000
    5        0.138457      0.138457   1.000000   1.000000
    6        0.373906      0.373906   1.000000   1.000000
    7        0.412771      0.412771   1.000000   1.000000
    8        0.457324      0.457324   1.000000   1.000000
    9        1.580578      1.580578   1.000000   1.000000
   10        1.605774      1.605774   1.000000   1.000000
   11        1.670341      1.670341   1.000000   1.000000
   12        1.769936      1.769936   1.000000   1.000000
   13        1.909623      1.909623   1.000000   1.000000
   14        1.969968      1.969968   1.000000   1.000000
   15        2.224523      2.224523   1.000000   1.000000
   16        2.332104      2.332104   1.000000   1.000000
   17        2.678620      2.678620   1.000000   1.000000
   18        2.900688      2.900688   1.000000   1.000000
   19        3.060948      3.060948   1.000000   1.000000
   20        3.519271      3.519271   1.000000   1.000000
   21        3.761001      3.761001   1.000000   1.000000
   22        3.764324      3.764324   1.000000   1.000000
   23        3.827097      3.827097   1.000000   1.000000
   24        4.005328      4.005328   1.000000   1.000000
   25        4.035327      4.035327   1.000000   1.000000
   26        4.076295      4.076295   1.000000   1.000000
   27        4.217318      4.217318   1.000000   1.000000
   28        4.268137      4.268137   1.000000   1.000000
   29        4.298470      4.298470   1.000000   1.000000
   30        4.506238      4.506238   1.000000   1.000000
   31        4.546665      4.546665   1.000000   1.000000
   32        4.590460      4.590460   1.000000   1.000000
   33        4.678649      4.678649   1.000000   1.000000
   34        4.772815      4.772815   1.000000   1.000000
   35        4.821755      4.821755   1.000000   1.000000
   36        4.916496      4.916496   1.000000   1.000000
   37        4.980257      4.980257   1.000000   1.000000
   38        5.067846      5.067846   1.000000   1.000000
   39        5.109043      5.109043   1.000000   1.000000
   40        5.136837      5.136837   1.000000   1.000000
   41        5.167963      5.167963   1.000000   1.000000
   42        5.215960      5.215960   1.000000   1.000000
   43        5.285898      5.285898   1.000000   1.000000
   44        5.374320      5.374320   1.000000   1.000000
   45        5.394138      5.394138   1.000000   1.000000
   46        5.490798      5.490798   1.000000   1.000000
   47        5.523992      5.523992   1.000000   1.000000
   48        5.604950      5.604950   1.000000   1.000000
   49        5.642344      5.642344   1.000000   1.000000
   50        5.686182      5.686182   1.000000   1.000000
   51        5.697874      5.697874   1.000000   1.000000
   52        5.722790      5.722790   1.000000   1.000000
   53        5.740690      5.740690   1.000000   1.000000
   54        5.806575      5.806575   1.000000   1.000000
   55        5.871001      5.871001   1.000000   1.000000
   56        6.006041      6.006041   1.000000   1.000000
   57        6.105649      6.105649   1.000000   1.000000
   58        6.115360      6.115360   1.000000   1.000000
   59        6.172532      6.172532   1.000000   1.000000
   60        6.184383      6.184383   1.000000   1.000000
   61        6.255357      6.255357   1.000000   1.000000
   62        6.311387      6.311387   1.000000   1.000000
   63        6.318490      6.318490   1.000000   1.000000
   64        6.388510      6.388510   1.000000   1.000000
   65        6.408013      6.408013   1.000000   1.000000
   66        6.436204      6.436204   1.000000   1.000000
   67        6.447444      6.447444   1.000000   1.000000
   68        6.496986      6.496986   1.000000   1.000000
   69        6.503187      6.503187   1.000000   1.000000
   70        6.523493      6.523493   1.000000   1.000000
   71        6.540640      6.540640   1.000000   1.000000
   72        6.564472      6.564472   1.000000   1.000000
   73        6.669582      6.669582   1.000000   1.000000
   74        6.687586      6.687586   1.000000   1.000000
   75        6.781297      6.781297   1.000000   1.000000
   76        6.799323      6.799323   1.000000   1.000000
   77        6.903370      6.903370   1.000000   1.000000
   78        6.946249      6.946249   1.000000   1.000000
   79        6.978084      6.978084   1.000001   1.000001
   80        6.985994      6.985994   1.000002   1.000002
   81        7.037400      7.037400   1.000010   1.000010
   82        7.277353      7.277353   1.004278   1.004278
   83        7.332452      7.332452   1.010742   1.010742
   84        7.417295      7.417295   1.028513   1.028513
   85        7.451698      7.451698   1.034496   1.034496
   86        7.457328      7.457328   1.035015   1.035015
   87        7.515411      7.515411   1.024032   1.024033
   88        7.576064      7.576064   0.955225   0.955226
   89        7.641733      7.641733   0.782744   0.782759
   90        7.673404      7.673404   0.665284   0.665288
   91        7.900221      7.900221  -0.016910  -0.016909
   92        7.928226      7.928226  -0.031204  -0.031204
   93        7.991367      7.991367  -0.032147  -0.032148
   94        8.048344      8.048344  -0.019683  -0.019684
   95        8.096968      8.096967  -0.010325  -0.010326
   96        8.184036      8.184036  -0.002175  -0.002175
   97        8.204577      8.204576  -0.001406  -0.001406
   98        8.236225      8.236224  -0.000684  -0.000684
   99        8.294323      8.294321  -0.000158  -0.000158
  100        8.330328      8.330325  -0.000058  -0.000058
  101        8.365908      8.365892  -0.000020  -0.000020
  102        8.383214      8.383216  -0.000012  -0.000012
  103        8.474331      8.474295  -0.000001  -0.000001
  104        8.523343      8.523291  -0.000000  -0.000000
  105        8.551429      8.551474  -0.000000  -0.000000
  106        8.640895      8.640868  -0.000000  -0.000000
  107        8.705330      8.704605  -0.000000  -0.000000
  108        8.916702      8.902448  -0.000000  -0.000000
  109        9.016056      9.009512  -0.000000  -0.000000
  110        9.094843      9.077766  -0.000000  -0.000000
 
  0.0000000E+00  0.2000000E+00  0.0000000E+00  0.1333333E-01
    1       -2.429546     -2.429546   1.000000   1.000000
    2       -1.103301     -1.103301   1.000000   1.000000
    3       -0.259999     -0.259999   1.000000   1.000000
    4       -0.248556     -0.248556   1.000000   1.000000
    5       -0.057255     -0.057255   1.000000   1.000000
    6        0.567052      0.567052   1.000000   1.000000
    7        0.882131      0.882131   1.000000   1.000000
    8        0.928803      0.928803   1.000000   1.000000
    9        0.939770      0.939770   1.000000   1.000000
   10        1.451454      1.451454   1.000000   1.000000
   11        1.460740      1.460740   1.000000   1.000000
   12        1.488170      1.488170   1.000000   1.000000
   13        1.925450      1.925450   1.000000   1.000000
   14        2.313937      2.313937   1.000000   1.000000
   15        2.323134      2.323134   1.000000   1.000000
   16        2.330188      2.330188   1.000000   1.000000
   17        2.332573      2.332573   1.000000   1.000000
   18        2.833455      2.833455   1.000000   1.000000
   19        3.243649      3.243649   1.000000   1.000000
   20        3.252414      3.252414   1.000000   1.000000
   21        3.613976      3.613976   1.000000   1.000000
   22        3.617209      3.617209   1.000000   1.000000
   23        3.737694      3.737694   1.000000   1.000000
   24        4.062964      4.062964   1.000000   1.000000
   25        4.171436      4.171436   1.000000   1.000000
   26        4.314240      4.314240   1.000000   1.000000
   27        4.329582      4.329582   1.000000   1.000000
   28        4.437777      4.437777   1.000000   1.000000
   29        4.589165      4.589165   1.000000   1.000000
   30        4.593731      4.593731   1.000000   1.000000
   31        4.598883      4.598883   1.000000   1.000000
   32        4.603203      4.603203   1.000000   1.000000
   33        4.713108      4.713108   1.000000   1.000000
   34        4.728425      4.728425   1.000000   1.000000
   35        4.809270      4.809270   1.000000   1.000000
   36        4.898271      4.898271   1.000000   1.000000
   37        5.024919      5.024919   1.000000   1.000000
   38        5.042229      5.042229   1.000000   1.000000
   39        5.065410      5.065410   1.000000   1.000000
   40        5.068474      5.068474   1.000000   1.000000
   41        5.120349      5.120349   1.000000   1.000000
   42        5.306542      5.306542   1.000000   1.000000
   43        5.336628      5.336628   1.000000   1.000000
   44        5.368694      5.368694   1.000000   1.000000
   45        5.375028      5.375028   1.000000   1.000000
   46        5.417614      5.417614   1.000000   1.000000
   47        5.552203      5.552203   1.000000   1.000000
   48        5.577036      5.577036   1.000000   1.000000
   49        5.594886      5.594886   1.000000   1.000000
   50        5.676255      5.676255   1.000000   1.000000
   51        5.680982      5.680982   1.000000   1.000000
   52        5.768686      5.768686   1.000000   1.000000
   53        5.802815      5.802815   1.000000   1.000000
   54        5.845202      5.845202   1.000000   1.000000
   55        5.936556      5.936556   1.000000   1.000000
   56        5.955145      5.955145   1.000000   1.000000
   57        5.995887      5.995887   1.000000   1.000000
   58        6.177213      6.177213   1.000000   1.000000
   59        6.226825      6.226825   1.000000   1.000000
   60        6.243235      6.243235   1.000000   1.000000
   61        6.244823      6.244823   1.000000   1.000000
   62        6.373943      6.373943   1.000000   1.000000
   63        6.375489      6.375489   1.000000   1.000000
   64        6.406898      6.406898   1.000000   1.000000
   65        6.442332      6.442332   1.000000   1.000000
   66        6.473542      6.473542   1.000000   1.000000
   67        6.528226      6.528226   1.000000   1.000000
   68        6.550316      6.550316   1.000000   1.000000
   69        6.563259      6.563259   1.000000   1.000000
   70        6.650218      6.650218   1.000000   1.000000
   71        6.658209      6.658209   1.000000   1.000000
   72        6.695848      6.695848   1.000000   1.000000
   73        6.702977      6.702977   1.000000   1.000000
   74        6.735375      6.735375   1.000000   1.000000
   75        6.758611      6.758611   1.000000   1.000000
   76        6.788624      6.788624   1.000000   1.000000
   77        6.793972      6.793972   1.000000   1.000000
   78        6.865567      6.865567   1.000000   1.000000
   79        6.893674      6.893674   1.000000   1.000000
   80        6.997170      6.997170   1.000003   1.000003
   81        7.131517      7.131517   1.000154   1.000154
   82        7.232651      7.232651   1.001761   1.001761
   83        7.301478      7.301478   1.006555   1.006555
   84        7.334530      7.334530   1.011077   1.011077
   85        7.379586      7.379586   1.019906   1.019906
   86        7.427717      7.427717   1.030682   1.030682
   87        7.493323      7.493323   1.032630   1.032630
   88        7.520522      7.520522   1.021024   1.021024
   89        7.621514      7.621514   0.846977   0.846976
   90        7.659939      7.659939   0.717489   0.717484
   91        7.851062      7.851062   0.044317   0.044316
   92        7.882169      7.882169  -0.000392  -0.000391
   93        7.916545      7.916545  -0.026676  -0.026677
   94        8.027489      8.027491  -0.024438  -0.024438
   95        8.049986      8.049986  -0.019268  -0.019267
   96        8.111957      8.111956  -0.008186  -0.008186
   97        8.181727      8.181731  -0.002281  -0.002279
   98        8.198516      8.198513  -0.001604  -0.001603
   99        8.305943      8.305960  -0.000115  -0.000115
  100        8.340140      8.340133  -0.000043  -0.000043
  101        8.383422      8.383701  -0.000012  -0.000011
  102        8.514826      8.515063  -0.000000  -0.000000
  103        8.566192      8.567555  -0.000000  -0.000000
  104        8.721694      8.721713  -0.000000  -0.000000
  105        8.731175      8.730977  -0.000000  -0.000000
  106        8.764658      8.803470  -0.000000  -0.000000
  107        8.871840      8.876073  -0.000000  -0.000000
  108        8.900317      8.885715  -0.000000  -0.000000
  109        8.945089      8.944981  -0.000000  -0.000000
  110        8.956776      9.025269  -0.000000  -0.000000
 
  0.2000000E+00  0.2000000E+00  0.0000000E+00  0.2666667E-01
    1       -2.339268     -2.339268   1.000000   1.000000
    2       -1.024656     -1.024656   1.000000   1.000000
    3       -1.010220     -1.010220   1.000000   1.000000
    4        0.008575      0.008575   1.000000   1.000000
    5        0.226906      0.226906   1.000000   1.000000
    6        0.640641      0.640641   1.000000   1.000000
    7        0.652638      0.652638   1.000000   1.000000
    8        0.936760      0.936760   1.000000   1.000000
    9        0.957856      0.957856   1.000000   1.000000
   10        1.582380      1.582380   1.000000   1.000000
   11        1.724523      1.724523   1.000000   1.000000
   12        1.771519      1.771519   1.000000   1.000000
   13        1.843552      1.843552   1.000000   1.000000
   14        1.986596      1.986596   1.000000   1.000000
   15        1.995057      1.995057   1.000000   1.000000
   16        2.804539      2.804539   1.000000   1.000000
   17        2.860635      2.860635   1.000000   1.000000
   18        2.877073      2.877073   1.000000   1.000000
   19        2.884355      2.884355   1.000000   1.000000
   20        2.941095      2.941095   1.000000   1.000000
   21        3.653498      3.653498   1.000000   1.000000
   22        3.780624      3.780624   1.000000   1.000000
   23        3.797519      3.797519   1.000000   1.000000
   24        3.851947      3.851947   1.000000   1.000000
   25        4.118421      4.118421   1.000000   1.000000
   26        4.329315      4.329315   1.000000   1.000000
   27        4.355699      4.355699   1.000000   1.000000
   28        4.368504      4.368504   1.000000   1.000000
   29        4.414844      4.414844   1.000000   1.000000
   30        4.474484      4.474484   1.000000   1.000000
   31        4.507174      4.507174   1.000000   1.000000
   32        4.626772      4.626772   1.000000   1.000000
   33        4.658666      4.658666   1.000000   1.000000
   34        4.788285      4.788285   1.000000   1.000000
   35        4.815013      4.815013   1.000000   1.000000
   36        4.868990      4.868990   1.000000   1.000000
   37        4.908688      4.908688   1.000000   1.000000
   38        4.972758      4.972758   1.000000   1.000000
   39        5.099628      5.099628   1.000000   1.000000
   40        5.147626      5.147626   1.000000   1.000000
   41        5.241175      5.241175   1.000000   1.000000
   42        5.255149      5.255149   1.000000   1.000000
   43        5.334105      5.334105   1.000000   1.000000
   44        5.347557      5.347557   1.000000   1.000000
   45        5.400885      5.400885   1.000000   1.000000
   46        5.406868      5.406868   1.000000   1.000000
   47        5.538391      5.538391   1.000000   1.000000
   48        5.619682      5.619682   1.000000   1.000000
   49        5.699654      5.699654   1.000000   1.000000
   50        5.704994      5.704994   1.000000   1.000000
   51        5.730229      5.730229   1.000000   1.000000
   52        5.821436      5.821436   1.000000   1.000000
   53        5.825693      5.825693   1.000000   1.000000
   54        5.864734      5.864734   1.000000   1.000000
   55        5.892032      5.892032   1.000000   1.000000
   56        5.932092      5.932092   1.000000   1.000000
   57        6.031029      6.031029   1.000000   1.000000
   58        6.131110      6.131110   1.000000   1.000000
   59        6.171001      6.171001   1.000000   1.000000
   60        6.243488      6.243488   1.000000   1.000000
   61        6.289914      6.289914   1.000000   1.000000
   62        6.309763      6.309763   1.000000   1.000000
   63        6.346694      6.346694   1.000000   1.000000
   64        6.407646      6.407646   1.000000   1.000000
   65        6.438797      6.438797   1.000000   1.000000
   66        6.464329      6.464329   1.000000   1.000000
   67        6.496196      6.496196   1.000000   1.000000
   68        6.519119      6.519119   1.000000   1.000000