       N       E                     dE             d eps       ncg     rms          ort
DAV:   1     0.135320355866E+04    0.13532E+04   -0.58602E+04  3960   0.145E+03
DAV:   2    -0.557663589925E+02   -0.14090E+04   -0.13795E+04  3960   0.446E+02
DAV:   3    -0.236895224290E+03   -0.18113E+03   -0.16398E+03  3960   0.172E+02
DAV:   4    -0.265718774721E+03   -0.28824E+02   -0.25789E+02  3960   0.746E+01
DAV:   5    -0.268955188883E+03   -0.32364E+01   -0.30771E+01  3960   0.221E+01
DAV:   6    -0.269233004537E+03   -0.27782E+00   -0.26983E+00  3960   0.566E+00
DAV:   7    -0.269263789911E+03   -0.30785E-01   -0.30267E-01  3960   0.168E+00
DAV:   8    -0.269267040849E+03   -0.32509E-02   -0.32121E-02  3960   0.460E-01
SDA:   9    -0.654027911716E+02    0.20386E+03   -0.32121E-02  3960   0.226E+04 0.000E+00
CGA:  10    -0.210159145340E+03   -0.14476E+03   -0.14702E+03  3960   0.949E+02 0.306E+03
CGA:  11    -0.218760631093E+03   -0.86015E+01   -0.85461E+01  3960   0.629E+02 0.982E+00
CGA:  12    -0.228054302673E+03   -0.92937E+01   -0.92442E+01  3960   0.840E+02-0.180E+00
CGA:  13    -0.233300564977E+03   -0.52463E+01   -0.53435E+01  3960   0.941E+01 0.135E+00
CGA:  14    -0.234118352914E+03   -0.81779E+00   -0.82145E+00  3960   0.546E+01-0.120E-01
CGA:  15    -0.234912697983E+03   -0.79435E+00   -0.79665E+00  3960   0.611E+01 0.280E-01
CGA:  16    -0.235391690590E+03   -0.47899E+00   -0.47445E+00  3960   0.134E+01 0.440E-01
CGA:  17    -0.235574253871E+03   -0.18256E+00   -0.18259E+00  3960   0.131E+01 0.305E-04
CGA:  18    -0.235751067222E+03   -0.17681E+00   -0.17700E+00  3960   0.107E+01 0.736E-03
CGA:  19    -0.235825467843E+03   -0.74401E-01   -0.75201E-01  3960   0.321E+00-0.777E-02
CGA:  20    -0.235880766036E+03   -0.55298E-01   -0.55285E-01  3960   0.443E+00 0.551E-03
CGA:  21    -0.235949461559E+03   -0.68696E-01   -0.68708E-01  3960   0.236E+00 0.736E-03
CGA:  22    -0.235969121788E+03   -0.19660E-01   -0.19666E-01  3960   0.991E-01-0.210E-03
CGA:  23    -0.235984397404E+03   -0.15276E-01   -0.15276E-01  3960   0.162E+00-0.176E-03
CGA:  24    -0.236008423954E+03   -0.24027E-01   -0.24019E-01  3960   0.112E+00-0.640E-03
CGA:  25    -0.236020809944E+03   -0.12386E-01   -0.12392E-01  3960   0.606E-01-0.233E-03
CGA:  26    -0.236030875354E+03   -0.10065E-01   -0.10069E-01  3960   0.721E-01-0.136E-03
CGA:  27    -0.236038227242E+03   -0.73519E-02   -0.73521E-02  3960   0.285E-01 0.840E-04
CGA:  28    -0.236041883366E+03   -0.36561E-02   -0.36564E-02  3960   0.232E-01 0.699E-04
CGA:  29    -0.236045789705E+03   -0.39063E-02   -0.39058E-02  3960   0.309E-01 0.475E-04
CGA:  30    -0.236049088885E+03   -0.32992E-02   -0.32992E-02  3960   0.156E-01 0.693E-04
CGA:  31    -0.236051574508E+03   -0.24856E-02   -0.24852E-02  3960   0.120E-01 0.503E-04
CGA:  32    -0.236053295146E+03   -0.17206E-02   -0.17210E-02  3960   0.746E-02 0.757E-04
CGA:  33    -0.236054033511E+03   -0.73837E-03   -0.74062E-03  3960   0.529E-02 0.477E-04
CGA:  34    -0.236054877143E+03   -0.84363E-03   -0.84303E-03  3960   0.528E-02 0.574E-04
CGA:  35    -0.236055713671E+03   -0.83653E-03   -0.83615E-03  3960   0.401E-02 0.357E-04
CGA:  36    -0.236056201732E+03   -0.48806E-03   -0.48836E-03  3960   0.288E-02 0.178E-04
CGA:  37    -0.236056561644E+03   -0.35991E-03   -0.36028E-03  3960   0.154E-02 0.117E-04
CGA:  38    -0.236056755668E+03   -0.19402E-03   -0.19414E-03  3960   0.123E-02 0.735E-05
CGA:  39    -0.236056950737E+03   -0.19507E-03   -0.19507E-03  3960   0.146E-02-0.155E-05
SDA:  40    -0.236057144116E+03   -0.19338E-03   -0.19319E-03  3960   0.915E-03-0.147E-04
CGA:  41    -0.236057223480E+03   -0.79364E-04   -0.79080E-04  3960   0.703E-03-0.488E-05
CGA:  42    -0.236057320123E+03   -0.96643E-04   -0.96612E-04  3960   0.388E-03-0.853E-05
CGA:  43    -0.236057369561E+03   -0.49438E-04   -0.49422E-04  3960   0.347E-03-0.136E-05
CGA:  44    -0.236057412655E+03   -0.43094E-04   -0.43093E-04  3960   0.204E-03-0.649E-07
CGA:  45    -0.236057467738E+03   -0.55083E-04   -0.55809E-04  3960   0.534E-03-0.551E-05
CGA:  46    -0.236057521856E+03   -0.54118E-04   -0.53868E-04  3960   0.978E-04-0.564E-05
CGA:  47    -0.236057561280E+03   -0.39423E-04   -0.39054E-04  3960   0.119E-03 0.145E-05
CGA:  48    -0.236057573018E+03   -0.11738E-04   -0.11772E-04  3960   0.102E-03 0.528E-06
CGA:  49    -0.236057598157E+03   -0.25139E-04   -0.24969E-04  3960   0.133E-03 0.204E-05
CGA:  50    -0.236057609542E+03   -0.11385E-04   -0.11460E-04  3960   0.452E-04 0.113E-05
CGA:  51    -0.236057616910E+03   -0.73683E-05   -0.73666E-05  3960   0.582E-04 0.485E-06
CGA:  52    -0.236057622583E+03   -0.56730E-05   -0.56801E-05  3960   0.203E-04 0.125E-06
CGA:  53    -0.236057627227E+03   -0.46439E-05   -0.46448E-05  3960   0.380E-04 0.485E-08
CGA:  54    -0.236057631807E+03   -0.45797E-05   -0.45731E-05  3960   0.968E-05-0.170E-06
CGA:  55    -0.236057635311E+03   -0.35047E-05   -0.35779E-05  3960   0.232E-04-0.336E-06
CGA:  56    -0.236057636779E+03   -0.14673E-05   -0.14686E-05  3960   0.413E-05-0.894E-08
CGA:  57    -0.236057637589E+03   -0.81064E-06   -0.79399E-06  3960   0.665E-05 0.551E-06
CGA:  58    -0.236057638610E+03   -0.10211E-05   -0.10310E-05  3960   0.673E-05 0.377E-06
CGA:  59    -0.236057639687E+03   -0.10765E-05   -0.10761E-05  3960   0.450E-05-0.142E-06
CGA:  60    -0.236057640139E+03   -0.45253E-06   -0.44571E-06  3960   0.227E-05-0.126E-06
CGA:  61    -0.236057640759E+03   -0.61914E-06   -0.60462E-06  3960   0.218E-05 0.125E-06
CGA:  62    -0.236057640951E+03   -0.19286E-06   -0.19495E-06  3960   0.859E-06 0.260E-07
CGA:  63    -0.236057641150E+03   -0.19889E-06   -0.20626E-06  3960   0.233E-05-0.851E-07
CGA:  64    -0.236057641398E+03   -0.24717E-06   -0.23641E-06  3960   0.623E-06-0.213E-06
CGA:  65    -0.236057641490E+03   -0.92703E-07   -0.92297E-07  3960   0.130E-05-0.172E-06
   1 F= -.23605764E+03 E0= -.23607336E+03  d E =0.471535E-01  mag=    -0.0000
