 vasp.5.4.4.18Apr17-6-g9f103f2a35 (build Dec 20 2018 12:05:58) complex          
  
 executed on             LinuxIFC date 2019.06.20  16:49:22
 running on   32 total cores
 distrk:  each k-point on    8 cores,    4 groups
 distr:  one band on NCORES_PER_BAND=   4 cores,    2 groups


--------------------------------------------------------------------------------------------------------


 INCAR:
 POTCAR:    PAW_PBE Al 04Jan2001                  
 POTCAR:    PAW_PBE Mn 06Sep2000                  

 ----------------------------------------------------------------------------- 
|                                                                             |
|           W    W    AA    RRRRR   N    N  II  N    N   GGGG   !!!           |
|           W    W   A  A   R    R  NN   N  II  NN   N  G    G  !!!           |
|           W    W  A    A  R    R  N N  N  II  N N  N  G       !!!           |
|           W WW W  AAAAAA  RRRRR   N  N N  II  N  N N  G  GGG   !            |
|           WW  WW  A    A  R   R   N   NN  II  N   NN  G    G                |
|           W    W  A    A  R    R  N    N  II  N    N   GGGG   !!!           |
|                                                                             |
|      You have enabled k-point parallelism (KPAR>1).                         |
|      This developmental code was originally  written by Paul Kent at ORNL,  |
|      and carefully double checked in Vienna.                                |
|      GW as well as linear response parallelism added by Martijn Marsman     |
|      and Georg Kresse.                                                      |
|      Carefully verify results versus KPAR=1.                                |
|      Report problems to Paul Kent and Vienna.                               |
|                                                                             |
 ----------------------------------------------------------------------------- 

 POTCAR:    PAW_PBE Al 04Jan2001                  
   VRHFIN =Al: s2p1                                                             
   LEXCH  = PE                                                                  
   EATOM  =    53.5387 eV,    3.9350 Ry                                         
                                                                                
   TITEL  = PAW_PBE Al 04Jan2001                                                
   LULTRA =        F    use ultrasoft PP ?                                      
   IUNSCR =        1    unscreen: 0-lin 1-nonlin 2-no                           
   RPACOR =    1.500    partial core radius                                     
   POMASS =   26.981; ZVAL   =    3.000    mass and valenz                      
   RCORE  =    1.900    outmost cutoff radius                                   
   RWIGS  =    2.650; RWIGS  =    1.402    wigner-seitz radius (au A)           
   ENMAX  =  240.300; ENMIN  =  180.225 eV                                      
   ICORE  =        2    local potential                                         
   LCOR   =        T    correct aug charges                                     
   LPAW   =        T    paw PP                                                  
   EAUG   =  291.052                                                            
   DEXC   =    0.000                                                            
   RMAX   =    1.939    core radius for proj-oper                               
   RAUG   =    1.300    factor for augmentation sphere                          
   RDEP   =    1.966    radius for radial grids                                 
   RDEPT  =    1.856    core radius for aug-charge                              
                                                                                
   Atomic configuration                                                         
    6 entries                                                                   
     n  l   j            E        occ.                                          
     1  0  0.50     -1511.1048   2.0000                                         
     2  0  0.50      -108.1629   2.0000                                         
     2  1  1.50       -69.6402   6.0000                                         
     3  0  0.50        -7.7528   2.0000                                         
     3  1  1.50        -2.7121   1.0000                                         
     3  2  2.50        -2.7212   0.0000                                         
   Description                                                                  
     l       E           TYP  RCUT    TYP  RCUT                                 
     0     -7.7528455     23  1.900                                             
     0     -3.3096929     23  1.900                                             
     1     -2.7120682     23  1.900                                             
     1     13.6058260     23  1.900                                             
     2     -2.7211652      7  1.900                                             
  local pseudopotential read in
  partial core-charges read in
  partial kinetic energy density read in
  atomic valenz-charges read in
  non local Contribution for L=           0  read in
    real space projection operators read in
  non local Contribution for L=           0  read in
    real space projection operators read in
  non local Contribution for L=           1  read in
    real space projection operators read in
  non local Contribution for L=           1  read in
    real space projection operators read in
    PAW grid and wavefunctions read in
 
   number of l-projection  operators is LMAX  =           4
   number of lm-projection operators is LMMAX =           8
 
 POTCAR:    PAW_PBE Mn 06Sep2000                  
   VRHFIN =Mn: d6 s1                                                            
   LEXCH  = PE                                                                  
   EATOM  =   416.7541 eV,   30.6306 Ry                                         
                                                                                
   TITEL  = PAW_PBE Mn 06Sep2000                                                
   LULTRA =        F    use ultrasoft PP ?                                      
   IUNSCR =        1    unscreen: 0-lin 1-nonlin 2-no                           
   RPACOR =    2.000    partial core radius                                     
   POMASS =   54.938; ZVAL   =    7.000    mass and valenz                      
   RCORE  =    2.300    outmost cutoff radius                                   
   RWIGS  =    2.500; RWIGS  =    1.323    wigner-seitz radius (au A)           
   ENMAX  =  269.864; ENMIN  =  202.398 eV                                      
   RCLOC  =    1.725    cutoff for local pot                                    
   LCOR   =        T    correct aug charges                                     
   LPAW   =        T    paw PP                                                  
   EAUG   =  500.711                                                            
   DEXC   =    0.000                                                            
   RMAX   =    2.343    core radius for proj-oper                               
   RAUG   =    1.300    factor for augmentation sphere                          
   RDEP   =    2.338    radius for radial grids                                 
   RDEPT  =    1.911    core radius for aug-charge                              
                                                                                
   Atomic configuration                                                         
    9 entries                                                                   
     n  l   j            E        occ.                                          
     1  0  0.50     -6424.8288   2.0000                                         
     2  0  0.50      -739.1154   2.0000                                         
     2  1  1.50      -625.3949   6.0000                                         
     3  0  0.50       -81.6100   2.0000                                         
     3  1  1.50       -50.4667   6.0000                                         
     3  2  2.50        -3.3745   6.0000                                         
     4  0  0.50        -4.1331   1.0000                                         
     4  1  0.50        -4.0817   0.0000                                         
     4  3  2.50        -1.3606   0.0000                                         
   Description                                                                  
     l       E           TYP  RCUT    TYP  RCUT                                 
     2     -3.3744664     23  2.300                                             
     2     -4.7350490     23  2.300                                             
     0     -4.1331408     23  2.300                                             
     0      7.6656614     23  2.300                                             
     1     -2.7211652     23  2.300                                             
     1     20.4087390     23  2.300                                             
  local pseudopotential read in
  partial core-charges read in
  partial kinetic energy density read in
  atomic valenz-charges read in
  non local Contribution for L=           2  read in
    real space projection operators read in
  non local Contribution for L=           2  read in
    real space projection operators read in
  non local Contribution for L=           0  read in
    real space projection operators read in
  non local Contribution for L=           0  read in
    real space projection operators read in
  non local Contribution for L=           1  read in
    real space projection operators read in
  non local Contribution for L=           1  read in
    real space projection operators read in
    PAW grid and wavefunctions read in
 
   number of l-projection  operators is LMAX  =           6
   number of lm-projection operators is LMMAX =          18
 

 ----------------------------------------------------------------------------- 
|                                                                             |
|  ADVICE TO THIS USER RUNNING 'VASP/VAMP'   (HEAR YOUR MASTER'S VOICE ...):  |
|                                                                             |
|      You have a (more or less) 'large supercell' and for larger cells       |
|      it might be more efficient to use real space projection opertators     |
|      So try LREAL= Auto  in the INCAR   file.                               |
|      Mind:          For very  accurate calculation you might also keep the  |
|      reciprocal projection scheme          (i.e. LREAL=.FALSE.)             |
|                                                                             |
 ----------------------------------------------------------------------------- 

  PAW_PBE Al 04Jan2001                  :
 energy of atom  1       EATOM=  -53.5387
 kinetic energy error for atom=    0.0005 (will be added to EATOM!!)
  PAW_PBE Mn 06Sep2000                  :
 energy of atom  2       EATOM= -416.7541
 kinetic energy error for atom=    0.0080 (will be added to EATOM!!)
 
 
 POSCAR: NewRef: 18, @ ['Mn', array([1.37502469, 
  positions in cartesian coordinates
  velocities in cartesian coordinates
  No initial velocities read in
 exchange correlation table for  LEXCH =        8
   RHO(1)=    0.500       N(1)  =     2000
   RHO(2)=  100.500       N(2)  =     4000
 


--------------------------------------------------------------------------------------------------------


 ion  position               nearest neighbor table
   1  0.000  0.000  0.000-  20 2.61  24 2.61  32 2.61  36 2.61  31 2.61  23 2.61  35 2.61  19 2.61
                             3 2.75   7 2.75   5 2.75  13 2.75
   2  0.000  0.000  0.500-  19 2.61  23 2.61  31 2.61  35 2.61  20 2.61  32 2.61  24 2.61  36 2.61
                             4 2.75   8 2.75   6 2.75  14 2.75
   3  0.000  0.333  0.000-  20 2.61  32 2.61  22 2.61  34 2.61  19 2.61  31 2.61  33 2.61  21 2.61
                             9 2.75   1 2.75   5 2.75  15 2.75
   4  0.000  0.333  0.500-  19 2.61  31 2.61  21 2.61  33 2.61  32 2.61  20 2.61  22 2.61  34 2.61
                            10 2.75   2 2.75   6 2.75  16 2.75
   5  0.000  0.667  0.000-  22 2.61  34 2.61  24 2.61  36 2.61  21 2.61  33 2.61  35 2.61  23 2.61
                             3 2.75  11 2.75   1 2.75  17 2.75
   6  0.000  0.667  0.500-  21 2.61  33 2.61  23 2.61  35 2.61  34 2.61  22 2.61  24 2.61  36 2.61
                             4 2.75  12 2.75   2 2.75  18 2.75
   7  0.333  0.000  0.000-  20 2.61  24 2.61  26 2.61  30 2.61  23 2.61  19 2.61  29 2.61  25 2.61
                            13 2.75   1 2.75   9 2.75  11 2.75
   8  0.333  0.000  0.500-  19 2.61  23 2.61  25 2.61  29 2.61  20 2.61  24 2.61  26 2.61  30 2.61
                            14 2.75   2 2.75  10 2.75  12 2.75
   9  0.333  0.333  0.000-  20 2.61  22 2.61  26 2.61  19 2.61  28 2.61  21 2.61  25 2.61  27 2.61
                             3 2.75   7 2.75  11 2.75  15 2.75
  10  0.333  0.333  0.500-  19 2.61  21 2.61  25 2.61  20 2.61  27 2.61  26 2.61  22 2.61  28 2.61
                             4 2.75   8 2.75  12 2.75  16 2.75
  11  0.333  0.667  0.000-  22 2.61  24 2.61  28 2.61  21 2.61  30 2.61  23 2.61  27 2.61  29 2.61
                            17 2.75   5 2.75   9 2.75   7 2.75
  12  0.333  0.667  0.500-  21 2.61  23 2.61  27 2.61  22 2.61  29 2.61  28 2.61  24 2.61  30 2.61
                            18 2.75   6 2.75  10 2.75   8 2.75
  13  0.667  0.000  0.000-  26 2.61  30 2.61  32 2.61  36 2.61  29 2.61  25 2.61  35 2.61  31 2.61
                             7 2.75  15 2.75   1 2.75  17 2.75
  14  0.667  0.000  0.500-  25 2.61  29 2.61  31 2.61  35 2.61  26 2.61  30 2.61  32 2.61  36 2.61
                             8 2.75  16 2.75   2 2.75  18 2.75
  15  0.667  0.333  0.000-  26 2.61  28 2.61  32 2.61  25 2.61  34 2.61  27 2.61  31 2.61  33 2.61
                            17 2.75   9 2.75  13 2.75   3 2.75
  16  0.667  0.333  0.500-  25 2.61  27 2.61  31 2.61  26 2.61  33 2.61  32 2.61  28 2.61  34 2.61
                            18 2.75  10 2.75  14 2.75   4 2.75
  17  0.667  0.667  0.000-  28 2.61  30 2.61  34 2.61  27 2.61  36 2.61  29 2.61  33 2.61  35 2.61
                            11 2.75  15 2.75  13 2.75   5 2.75
  18  0.667  0.667  0.500-  27 2.61  29 2.61  33 2.61  28 2.61  35 2.61  34 2.61  30 2.61  36 2.61
                            12 2.75  16 2.75  14 2.75   6 2.75
  19  0.167  0.167  0.250-  10 2.61   8 2.61   4 2.61   9 2.61   2 2.61   7 2.61   3 2.61   1 2.61
                            21 2.75  25 2.75  23 2.75  31 2.75
  20  0.167  0.167  0.750-   9 2.61   7 2.61   3 2.61  10 2.61   1 2.61   4 2.61   8 2.61   2 2.61
                            22 2.75  26 2.75  24 2.75  32 2.75
  21  0.167  0.500  0.250-  12 2.61  10 2.61   6 2.61  11 2.61   4 2.61   9 2.61   5 2.61   3 2.61
                            19 2.75  23 2.75  27 2.75  33 2.75
  22  0.167  0.500  0.750-  11 2.61   9 2.61   5 2.61  12 2.61   3 2.61   6 2.61  10 2.61   4 2.61
                            20 2.75  24 2.75  28 2.75  34 2.75
  23  0.167  0.833  0.250-   8 2.61  12 2.61   2 2.61   6 2.61  11 2.61   7 2.61   5 2.61   1 2.61
                            21 2.75  29 2.75  19 2.75  35 2.75
  24  0.167  0.833  0.750-   7 2.61  11 2.61   1 2.61   5 2.61   8 2.61  12 2.61   2 2.61   6 2.61
                            22 2.75  30 2.75  20 2.75  36 2.75
  25  0.500  0.167  0.250-  16 2.61  14 2.61  10 2.61  15 2.61   8 2.61  13 2.61   9 2.61   7 2.61
                            19 2.75  27 2.75  31 2.75  29 2.75
  26  0.500  0.167  0.750-  15 2.61  13 2.61   9 2.61  16 2.61   7 2.61  10 2.61  14 2.61   8 2.61
                            20 2.75  28 2.75  32 2.75  30 2.75
  27  0.500  0.500  0.250-  18 2.61  16 2.61  12 2.61  17 2.61  10 2.61  15 2.61  11 2.61   9 2.61
                            21 2.75  25 2.75  29 2.75  33 2.75
  28  0.500  0.500  0.750-  17 2.61  15 2.61  11 2.61  18 2.61   9 2.61  12 2.61  16 2.61  10 2.61
                            22 2.75  26 2.75  30 2.75  34 2.75
  29  0.500  0.833  0.250-  14 2.61  18 2.61   8 2.61  12 2.61  17 2.61  13 2.61  11 2.61   7 2.61
                            23 2.75  27 2.75  35 2.75  25 2.75
  30  0.500  0.833  0.750-  13 2.61  17 2.61   7 2.61  11 2.61  14 2.61  18 2.61   8 2.61  12 2.61
                            24 2.75  28 2.75  36 2.75  26 2.75
  31  0.833  0.167  0.250-   4 2.61  16 2.61  14 2.61   2 2.61  15 2.61   3 2.61  13 2.61   1 2.61
                            25 2.75  33 2.75  19 2.75  35 2.75
  32  0.833  0.167  0.750-   3 2.61  15 2.61  13 2.61   1 2.61   4 2.61  16 2.61   2 2.61  14 2.61
                            26 2.75  34 2.75  20 2.75  36 2.75
  33  0.833  0.500  0.250-   6 2.61  18 2.61  16 2.61   4 2.61  17 2.61   5 2.61  15 2.61   3 2.61
                            27 2.75  31 2.75  35 2.75  21 2.75
  34  0.833  0.500  0.750-   5 2.61  17 2.61  15 2.61   3 2.61   6 2.61  18 2.61   4 2.61  16 2.61
                            28 2.75  32 2.75  36 2.75  22 2.75
  35  0.833  0.833  0.250-   2 2.61   6 2.61  14 2.61  18 2.61  13 2.61   5 2.61  17 2.61   1 2.61
                            29 2.75  33 2.75  31 2.75  23 2.75
  36  0.833  0.833  0.750-   1 2.61   5 2.61  13 2.61  17 2.61   2 2.61  14 2.61   6 2.61  18 2.61
                            30 2.75  34 2.75  32 2.75  24 2.75
 
  LATTYP: Found a simple tetragonal cell.
 ALAT       =     8.2501481662
 C/A-ratio  =     0.8428059861
  
  Lattice vectors:
  
 A1 = (   8.2501481662,   0.0000000000,   0.0000000000)
 A2 = (   0.0000000000,   8.2501481662,   0.0000000000)
 A3 = (   0.0000000000,   0.0000000000,   6.9532742610)


Analysis of symmetry for initial positions (statically):
=====================================================================
 Subroutine PRICEL returns following result:
 
  LATTYP: Found a simple tetragonal cell.
 ALAT       =     2.7500493888
 C/A-ratio  =     1.2642089792
  
  Lattice vectors:
  
 A1 = (   2.7500493888,   0.0000000000,   0.0000000000)
 A2 = (   0.0000000000,   2.7500493888,   0.0000000000)
 A3 = (   0.0000000000,   0.0000000000,   3.4766371305)
 
  18 primitive cells build up your supercell.
 

 Routine SETGRP: Setting up the symmetry group for a 
 simple tetragonal supercell.


 Subroutine GETGRP returns: Found 16 space group operations
 (whereof 16 operations were pure point group operations)
 out of a pool of 16 trial point group operations.


The static configuration has the point symmetry D_4h.


Analysis of symmetry for dynamics (positions and initial velocities):
=====================================================================
 Subroutine PRICEL returns following result:
 
  LATTYP: Found a simple tetragonal cell.
 ALAT       =     2.7500493888
 C/A-ratio  =     1.2642089792
  
  Lattice vectors:
  
 A1 = (   2.7500493888,   0.0000000000,   0.0000000000)
 A2 = (   0.0000000000,   2.7500493888,   0.0000000000)
 A3 = (   0.0000000000,   0.0000000000,   3.4766371305)
 
  18 primitive cells build up your supercell.
 

 Routine SETGRP: Setting up the symmetry group for a 
 simple tetragonal supercell.


 Subroutine GETGRP returns: Found 16 space group operations
 (whereof 16 operations were pure point group operations)
 out of a pool of 16 trial point group operations.


The dynamic configuration has the point symmetry D_4h.


Analysis of structural, dynamic, and magnetic symmetry:
=====================================================================
 Subroutine PRICEL returns:
 Original cell was already a primitive cell.
 

 Routine SETGRP: Setting up the symmetry group for a 
 simple tetragonal supercell.


 Subroutine GETGRP returns: Found  8 space group operations
 (whereof  1 operations were pure point group operations)
 out of a pool of 16 trial point group operations.


The magnetic configuration has the point symmetry C_1 .
 The point group associated with its full space group is D_2h.


 Subroutine INISYM returns: Found  8 space group operations
 (whereof  1 operations are pure point group operations),
 and found     1 'primitive' translations

 
 
 KPOINTS: automatic KPOINTS                       

Automatic generation of k-mesh.
 generate k-points for:    5    5    6
Space group operators:
 irot       det(A)        alpha          n_x          n_y          n_z        tau_x        tau_y        tau_z
    1     1.000000     0.000001     1.000000     0.000000     0.000000     0.000000     0.000000     0.000000
    2    -1.000000     0.000001     1.000000     0.000000     0.000000     0.333333     0.333333     0.000000
    3     1.000000   179.999999     0.000000     0.000000     1.000000     0.333333     0.333333     0.500000
    4    -1.000000   179.999999     0.000000     0.000000     1.000000     0.000000     0.000000     0.500000
    5     1.000000   180.000000     0.000000     1.000000     0.000000     0.333333     0.000000     0.500000
    6    -1.000000   180.000000     0.000000     1.000000     0.000000     0.000000     0.333333     0.500000
    7     1.000000   180.000000     1.000000     0.000000     0.000000     0.000000     0.333333     0.000000
    8    -1.000000   180.000000     1.000000     0.000000     0.000000     0.333333     0.000000     0.000000
 
 Subroutine IBZKPT returns following result:
 ===========================================
 
 Found     36 irreducible k-points:
 
 Following reciprocal coordinates:
            Coordinates               Weight
  0.000000  0.000000  0.000000      1.000000
  0.200000  0.000000  0.000000      2.000000
  0.400000  0.000000  0.000000      2.000000
  0.000000  0.200000  0.000000      2.000000
  0.200000  0.200000  0.000000      4.000000
  0.400000  0.200000  0.000000      4.000000
  0.000000  0.400000  0.000000      2.000000
  0.200000  0.400000  0.000000      4.000000
  0.400000  0.400000  0.000000      4.000000
  0.000000  0.000000  0.166667      2.000000
  0.200000  0.000000  0.166667      4.000000
  0.400000  0.000000  0.166667      4.000000
  0.000000  0.200000  0.166667      4.000000
  0.200000  0.200000  0.166667      8.000000
  0.400000  0.200000  0.166667      8.000000
  0.000000  0.400000  0.166667      4.000000
  0.200000  0.400000  0.166667      8.000000
  0.400000  0.400000  0.166667      8.000000
  0.000000  0.000000  0.333333      2.000000
  0.200000  0.000000  0.333333      4.000000
  0.400000  0.000000  0.333333      4.000000
  0.000000  0.200000  0.333333      4.000000
  0.200000  0.200000  0.333333      8.000000
  0.400000  0.200000  0.333333      8.000000
  0.000000  0.400000  0.333333      4.000000
  0.200000  0.400000  0.333333      8.000000
  0.400000  0.400000  0.333333      8.000000
  0.000000  0.000000  0.500000      1.000000
  0.200000  0.000000  0.500000      2.000000
  0.400000  0.000000  0.500000      2.000000
  0.000000  0.200000  0.500000      2.000000
  0.200000  0.200000  0.500000      4.000000
  0.400000  0.200000  0.500000      4.000000
  0.000000  0.400000  0.500000      2.000000
  0.200000  0.400000  0.500000      4.000000
  0.400000  0.400000  0.500000      4.000000
 
 Following cartesian coordinates:
            Coordinates               Weight
  0.000000  0.000000  0.000000      1.000000
  0.024242  0.000000  0.000000      2.000000
  0.048484  0.000000  0.000000      2.000000
  0.000000  0.024242  0.000000      2.000000
  0.024242  0.024242  0.000000      4.000000
  0.048484  0.024242  0.000000      4.000000
  0.000000  0.048484  0.000000      2.000000
  0.024242  0.048484  0.000000      4.000000
  0.048484  0.048484  0.000000      4.000000
  0.000000  0.000000  0.023970      2.000000
  0.024242  0.000000  0.023970      4.000000
  0.048484  0.000000  0.023970      4.000000
  0.000000  0.024242  0.023970      4.000000
  0.024242  0.024242  0.023970      8.000000
  0.048484  0.024242  0.023970      8.000000
  0.000000  0.048484  0.023970      4.000000
  0.024242  0.048484  0.023970      8.000000
  0.048484  0.048484  0.023970      8.000000
  0.000000  0.000000  0.047939      2.000000
  0.024242  0.000000  0.047939      4.000000
  0.048484  0.000000  0.047939      4.000000
  0.000000  0.024242  0.047939      4.000000
  0.024242  0.024242  0.047939      8.000000
  0.048484  0.024242  0.047939      8.000000
  0.000000  0.048484  0.047939      4.000000
  0.024242  0.048484  0.047939      8.000000
  0.048484  0.048484  0.047939      8.000000
  0.000000  0.000000  0.071909      1.000000
  0.024242  0.000000  0.071909      2.000000
  0.048484  0.000000  0.071909      2.000000
  0.000000  0.024242  0.071909      2.000000
  0.024242  0.024242  0.071909      4.000000
  0.048484  0.024242  0.071909      4.000000
  0.000000  0.048484  0.071909      2.000000
  0.024242  0.048484  0.071909      4.000000
  0.048484  0.048484  0.071909      4.000000
 


--------------------------------------------------------------------------------------------------------




 Dimension of arrays:
   k-points           NKPTS =     36   k-points in BZ     NKDIM =     36   number of bands    NBANDS=    110
   number of dos      NEDOS =    301   number of ions     NIONS =     36
   non local maximal  LDIM  =      6   non local SUM 2l+1 LMDIM =     18
   total plane-waves  NPLWV = 139968
   max r-space proj   IRMAX =      1   max aug-charges    IRDMAX=  92271
   dimension x,y,z NGX =    54 NGY =   54 NGZ =   48
   dimension x,y,z NGXF=   108 NGYF=  108 NGZF=   96
   support grid    NGXF=   216 NGYF=  216 NGZF=  192
   ions per type =              18  18
   NGX,Y,Z   is equivalent  to a cutoff of  10.88, 10.88, 11.48 a.u.
   NGXF,Y,Z  is equivalent  to a cutoff of  21.76, 21.76, 22.95 a.u.

 SYSTEM =  AlMn_pv                                 
 POSCAR =  NewRef: 18, @ ['Mn', array([1.37502469, 

 Startparameter for this run:
   NWRITE =      2    write-flag & timer
   PREC   = accura    normal or accurate (medium, high low for compatibility)
   ISTART =      0    job   : 0-new  1-cont  2-samecut
   ICHARG =      2    charge: 1-file 2-atom 10-const
   ISPIN  =      2    spin polarized calculation?
   LNONCOLLINEAR =      F non collinear calculations
   LSORBIT =      F    spin-orbit coupling
   INIWAV =      1    electr: 0-lowe 1-rand  2-diag
   LASPH  =      F    aspherical Exc in radial PAW
   METAGGA=      F    non-selfconsistent MetaGGA calc.

 Electronic Relaxation 1
   ENCUT  =  404.8 eV  29.75 Ry    5.45 a.u.  13.53 13.53 11.41*2*pi/ulx,y,z
   ENINI  =  404.8     initial cutoff
   ENAUG  =  500.7 eV  augmentation charge cutoff
   NELM   =    100;   NELMIN=  4; NELMDL= -8     # of ELM steps 
   EDIFF  = 0.1E-06   stopping-criterion for ELM
   LREAL  =      F    real-space projection
   NLSPLINE    = F    spline interpolate recip. space projectors
   LCOMPAT=      F    compatible to vasp.4.4
   GGA_COMPAT  = T    GGA compatible to vasp.4.4-vasp.4.6
   LMAXPAW     = -100 max onsite density
   LMAXMIX     =    2 max onsite mixed and CHGCAR
   VOSKOWN=      0    Vosko Wilk Nusair interpolation
   ROPT   =    0.00000   0.00000
 Ionic relaxation
   EDIFFG = 0.1E-05   stopping-criterion for IOM
   NSW    =      0    number of steps for IOM
   NBLOCK =      1;   KBLOCK =      1    inner block; outer block 
   IBRION =     -1    ionic relax: 0-MD 1-quasi-New 2-CG
   NFREE  =      0    steps in history (QN), initial steepest desc. (CG)
   ISIF   =      2    stress and relaxation
   IWAVPR =     10    prediction:  0-non 1-charg 2-wave 3-comb
   ISYM   =      2    0-nonsym 1-usesym 2-fastsym
   LCORR  =      T    Harris-Foulkes like correction to forces

   POTIM  = 0.2000    time-step for ionic-motion
   TEIN   =    0.0    initial temperature
   TEBEG  =    0.0;   TEEND  =   0.0 temperature during run
   SMASS  =  -3.00    Nose mass-parameter (am)
   estimated Nose-frequenzy (Omega)   =  0.10E-29 period in steps =****** mass=  -0.156E-26a.u.
   SCALEE = 1.0000    scale energy and forces
   NPACO  =    256;   APACO  = 16.0  distance and # of slots for P.C.
   PSTRESS=    0.0 pullay stress

  Mass of Ions in am
   POMASS =  26.98 54.94
  Ionic Valenz
   ZVAL   =   3.00  7.00
  Atomic Wigner-Seitz radii
   RWIGS  =  -1.00 -1.00
  virtual crystal weights 
   VCA    =   1.00  1.00
   NELECT =     180.0000    total number of electrons
   NUPDOWN=      -1.0000    fix difference up-down

 DOS related values:
   EMIN   =  10.00;   EMAX   =-10.00  energy-range for DOS
   EFERMI =   0.00
   ISMEAR =     1;   SIGMA  =   0.20  broadening in eV -4-tet -1-fermi 0-gaus

 Electronic relaxation 2 (details)
   IALGO  =     58    algorithm
   LDIAG  =      T    sub-space diagonalisation (order eigenvalues)
   LSUBROT=      F    optimize rotation matrix (better conditioning)
   TURBO    =      0    0=normal 1=particle mesh
   IRESTART =      0    0=no restart 2=restart with 2 vectors
   NREBOOT  =      0    no. of reboots
   NMIN     =      0    reboot dimension
   EREF     =   0.00    reference energy to select bands
   IMIX   =      4    mixing-type and parameters
     AMIX     =   0.40;   BMIX     =  1.00
     AMIX_MAG =   1.60;   BMIX_MAG =  1.00
     AMIN     =   0.10
     WC   =   100.;   INIMIX=   1;  MIXPRE=   1;  MAXMIX= -45

 Intra band minimization:
   WEIMIN = 0.0000     energy-eigenvalue tresh-hold
   EBREAK =  0.23E-09  absolut break condition
   DEPER  =   0.30     relativ break condition  

   TIME   =   0.40     timestep for ELM

  volume/ion in A,a.u.               =      13.15        88.72
  Fermi-wavevector in a.u.,A,eV,Ry     =   1.186118  2.241439 19.141722  1.406877
  Thomas-Fermi vector in A             =   2.322298
 
 Write flags
   LWAVE        =      F    write WAVECAR
   LDOWNSAMPLE  =      F    k-point downsampling of WAVECAR
   LCHARG       =      F    write CHGCAR
   LVTOT        =      F    write LOCPOT, total local potential
   LVHAR        =      F    write LOCPOT, Hartree potential only
   LELF         =      F    write electronic localiz. function (ELF)
   LORBIT       =     10    0 simple, 1 ext, 2 COOP (PROOUT), +10 PAW based schemes


 Dipole corrections
   LMONO  =      F    monopole corrections only (constant potential shift)
   LDIPOL =      F    correct potential (dipole corrections)
   IDIPOL =      0    1-x, 2-y, 3-z, 4-all directions 
   EPSILON=  1.0000000 bulk dielectric constant

 Exchange correlation treatment:
   GGA     =    --    GGA type
   LEXCH   =     8    internal setting for exchange type
   VOSKOWN=      0    Vosko Wilk Nusair interpolation
   LHFCALC =     F    Hartree Fock is set to
   LHFONE  =     F    Hartree Fock one center treatment
   AEXX    =    0.0000 exact exchange contribution

 Linear response parameters
   LEPSILON=     F    determine dielectric tensor
   LRPA    =     F    only Hartree local field effects (RPA)
   LNABLA  =     F    use nabla operator in PAW spheres
   LVEL    =     F    velocity operator in full k-point grid
   LINTERFAST=   F  fast interpolation
   KINTER  =     0    interpolate to denser k-point grid
   CSHIFT  =0.1000    complex shift for real part using Kramers Kronig
   OMEGAMAX=  -1.0    maximum frequency
   DEG_THRESHOLD= 0.2000000E-02 threshold for treating states as degnerate
   RTIME   =   -0.100 relaxation time in fs
  (WPLASMAI=    0.000 imaginary part of plasma frequency in eV, 0.658/RTIME)
   DFIELD  = 0.0000000 0.0000000 0.0000000 field for delta impulse in time
 
 Orbital magnetization related:
   ORBITALMAG=     F  switch on orbital magnetization
   LCHIMAG   =     F  perturbation theory with respect to B field
   DQ        =  0.001000  dq finite difference perturbation B field
   LLRAUG    =     F  two centre corrections for induced B field



--------------------------------------------------------------------------------------------------------


 Static calculation
 charge density and potential will be updated during run
 spin polarized calculation
 Conjugate gradient for all bands (Freysoldt, et al. PRB 79, 241103 (2009))
 preconditioned conjugated gradient                                        
 perform sub-space diagonalisation
    before iterative eigenvector-optimisation
 modified Broyden-mixing scheme, WC =      100.0
 initial mixing is a Kerker type mixing with AMIX =  0.4000 and BMIX =      1.0000
 Hartree-type preconditioning will be used
 using additional bands           20
 reciprocal scheme for non local part
 use partial core corrections
 no Harris-corrections to forces 
 use gradient corrections 
 use of overlap-Matrix (Vanderbilt PP)
 Methfessel and Paxton  Order N= 1 SIGMA  =   0.20


--------------------------------------------------------------------------------------------------------


  energy-cutoff  :      404.80
  volume of cell :      473.27
      direct lattice vectors                 reciprocal lattice vectors
     8.250148166  0.000000000  0.000000000     0.121209944  0.000000000  0.000000000
     0.000000000  8.250148166  0.000000000     0.000000000  0.121209944  0.000000000
     0.000000000  0.000000000  6.953274261     0.000000000  0.000000000  0.143817137

  length of vectors
     8.250148166  8.250148166  6.953274261     0.121209944  0.121209944  0.143817137


 
 k-points in units of 2pi/SCALE and weight: automatic KPOINTS                       
   0.00000000  0.00000000  0.00000000       0.007
   0.02424199  0.00000000  0.00000000       0.013
   0.04848398  0.00000000  0.00000000       0.013
   0.00000000  0.02424199  0.00000000       0.013
   0.02424199  0.02424199  0.00000000       0.027
   0.04848398  0.02424199  0.00000000       0.027
   0.00000000  0.04848398  0.00000000       0.013
   0.02424199  0.04848398  0.00000000       0.027
   0.04848398  0.04848398  0.00000000       0.027
   0.00000000  0.00000000  0.02396952       0.013
   0.02424199  0.00000000  0.02396952       0.027
   0.04848398  0.00000000  0.02396952       0.027
   0.00000000  0.02424199  0.02396952       0.027
   0.02424199  0.02424199  0.02396952       0.053
   0.04848398  0.02424199  0.02396952       0.053
   0.00000000  0.04848398  0.02396952       0.027
   0.02424199  0.04848398  0.02396952       0.053
   0.04848398  0.04848398  0.02396952       0.053
   0.00000000  0.00000000  0.04793905       0.013
   0.02424199  0.00000000  0.04793905       0.027
   0.04848398  0.00000000  0.04793905       0.027
   0.00000000  0.02424199  0.04793905       0.027
   0.02424199  0.02424199  0.04793905       0.053
   0.04848398  0.02424199  0.04793905       0.053
   0.00000000  0.04848398  0.04793905       0.027
   0.02424199  0.04848398  0.04793905       0.053
   0.04848398  0.04848398  0.04793905       0.053
   0.00000000  0.00000000  0.07190857       0.007
   0.02424199  0.00000000  0.07190857       0.013
   0.04848398  0.00000000  0.07190857       0.013
   0.00000000  0.02424199  0.07190857       0.013
   0.02424199  0.02424199  0.07190857       0.027
   0.04848398  0.02424199  0.07190857       0.027
   0.00000000  0.04848398  0.07190857       0.013
   0.02424199  0.04848398  0.07190857       0.027
   0.04848398  0.04848398  0.07190857       0.027
 
 k-points in reciprocal lattice and weights: automatic KPOINTS                       
   0.00000000  0.00000000  0.00000000       0.007
   0.20000000  0.00000000  0.00000000       0.013
   0.40000000  0.00000000  0.00000000       0.013
   0.00000000  0.20000000  0.00000000       0.013
   0.20000000  0.20000000  0.00000000       0.027
   0.40000000  0.20000000  0.00000000       0.027
   0.00000000  0.40000000  0.00000000       0.013
   0.20000000  0.40000000  0.00000000       0.027
   0.40000000  0.40000000  0.00000000       0.027
   0.00000000  0.00000000  0.16666667       0.013
   0.20000000  0.00000000  0.16666667       0.027
   0.40000000  0.00000000  0.16666667       0.027
   0.00000000  0.20000000  0.16666667       0.027
   0.20000000  0.20000000  0.16666667       0.053
   0.40000000  0.20000000  0.16666667       0.053
   0.00000000  0.40000000  0.16666667       0.027
   0.20000000  0.40000000  0.16666667       0.053
   0.40000000  0.40000000  0.16666667       0.053
   0.00000000  0.00000000  0.33333333       0.013
   0.20000000  0.00000000  0.33333333       0.027
   0.40000000  0.00000000  0.33333333       0.027
   0.00000000  0.20000000  0.33333333       0.027
   0.20000000  0.20000000  0.33333333       0.053
   0.40000000  0.20000000  0.33333333       0.053
   0.00000000  0.40000000  0.33333333       0.027
   0.20000000  0.40000000  0.33333333       0.053
   0.40000000  0.40000000  0.33333333       0.053
   0.00000000  0.00000000  0.50000000       0.007
   0.20000000  0.00000000  0.50000000       0.013
   0.40000000  0.00000000  0.50000000       0.013
   0.00000000  0.20000000  0.50000000       0.013
   0.20000000  0.20000000  0.50000000       0.027
   0.40000000  0.20000000  0.50000000       0.027
   0.00000000  0.40000000  0.50000000       0.013
   0.20000000  0.40000000  0.50000000       0.027
   0.40000000  0.40000000  0.50000000       0.027
 
 position of ions in fractional coordinates (direct lattice) 
   0.00000000  0.00000000  0.00000000
   0.00000000  0.00000000  0.50000000
   0.00000000  0.33333333  0.00000000
   0.00000000  0.33333333  0.50000000
   0.00000000  0.66666667  0.00000000
   0.00000000  0.66666667  0.50000000
   0.33333333  0.00000000  0.00000000
   0.33333333  0.00000000  0.50000000
   0.33333333  0.33333333  0.00000000
   0.33333333  0.33333333  0.50000000
   0.33333333  0.66666667  0.00000000
   0.33333333  0.66666667  0.50000000
   0.66666667  0.00000000  0.00000000
   0.66666667  0.00000000  0.50000000
   0.66666667  0.33333333  0.00000000
   0.66666667  0.33333333  0.50000000
   0.66666667  0.66666667  0.00000000
   0.66666667  0.66666667  0.50000000
   0.16666667  0.16666667  0.25000000
   0.16666667  0.16666667  0.75000000
   0.16666667  0.50000000  0.25000000
   0.16666667  0.50000000  0.75000000
   0.16666667  0.83333333  0.25000000
   0.16666667  0.83333333  0.75000000
   0.50000000  0.16666667  0.25000000
   0.50000000  0.16666667  0.75000000
   0.50000000  0.50000000  0.25000000
   0.50000000  0.50000000  0.75000000
   0.50000000  0.83333333  0.25000000
   0.50000000  0.83333333  0.75000000
   0.83333333  0.16666667  0.25000000
   0.83333333  0.16666667  0.75000000
   0.83333333  0.50000000  0.25000000
   0.83333333  0.50000000  0.75000000
   0.83333333  0.83333333  0.25000000
   0.83333333  0.83333333  0.75000000
 
 position of ions in cartesian coordinates  (Angst):
   0.00000000  0.00000000  0.00000000
   0.00000000  0.00000000  3.47663713
   0.00000000  2.75004939  0.00000000
   0.00000000  2.75004939  3.47663713
   0.00000000  5.50009878  0.00000000
   0.00000000  5.50009878  3.47663713
   2.75004939  0.00000000  0.00000000
   2.75004939  0.00000000  3.47663713
   2.75004939  2.75004939  0.00000000
   2.75004939  2.75004939  3.47663713
   2.75004939  5.50009878  0.00000000
   2.75004939  5.50009878  3.47663713
   5.50009878  0.00000000  0.00000000
   5.50009878  0.00000000  3.47663713
   5.50009878  2.75004939  0.00000000
   5.50009878  2.75004939  3.47663713
   5.50009878  5.50009878  0.00000000
   5.50009878  5.50009878  3.47663713
   1.37502469  1.37502469  1.73831857
   1.37502469  1.37502469  5.21495570
   1.37502469  4.12507408  1.73831857
   1.37502469  4.12507408  5.21495570
   1.37502469  6.87512347  1.73831857
   1.37502469  6.87512347  5.21495570
   4.12507408  1.37502469  1.73831857
   4.12507408  1.37502469  5.21495570
   4.12507408  4.12507408  1.73831857
   4.12507408  4.12507408  5.21495570
   4.12507408  6.87512347  1.73831857
   4.12507408  6.87512347  5.21495570
   6.87512347  1.37502469  1.73831857
   6.87512347  1.37502469  5.21495570
   6.87512347  4.12507408  1.73831857
   6.87512347  4.12507408  5.21495570
   6.87512347  6.87512347  1.73831857
   6.87512347  6.87512347  5.21495570
 


--------------------------------------------------------------------------------------------------------


 k-point  1 :   0.0000 0.0000 0.0000  plane waves:    8799
 k-point  2 :   0.2000 0.0000 0.0000  plane waves:    8753
 k-point  3 :   0.4000 0.0000 0.0000  plane waves:    8757
 k-point  4 :   0.0000 0.2000 0.0000  plane waves:    8753
 k-point  5 :   0.2000 0.2000 0.0000  plane waves:    8767
 k-point  6 :   0.4000 0.2000 0.0000  plane waves:    8761
 k-point  7 :   0.0000 0.4000 0.0000  plane waves:    8757
 k-point  8 :   0.2000 0.4000 0.0000  plane waves:    8761
 k-point  9 :   0.4000 0.4000 0.0000  plane waves:    8731
 k-point 10 :   0.0000 0.0000 0.1667  plane waves:    8763
 k-point 11 :   0.2000 0.0000 0.1667  plane waves:    8771
 k-point 12 :   0.4000 0.0000 0.1667  plane waves:    8747
 k-point 13 :   0.0000 0.2000 0.1667  plane waves:    8771
 k-point 14 :   0.2000 0.2000 0.1667  plane waves:    8764
 k-point 15 :   0.4000 0.2000 0.1667  plane waves:    8768
 k-point 16 :   0.0000 0.4000 0.1667  plane waves:    8747
 k-point 17 :   0.2000 0.4000 0.1667  plane waves:    8768
 k-point 18 :   0.4000 0.4000 0.1667  plane waves:    8740
 k-point 19 :   0.0000 0.0000 0.3333  plane waves:    8743
 k-point 20 :   0.2000 0.0000 0.3333  plane waves:    8736
 k-point 21 :   0.4000 0.0000 0.3333  plane waves:    8753
 k-point 22 :   0.0000 0.2000 0.3333  plane waves:    8736
 k-point 23 :   0.2000 0.2000 0.3333  plane waves:    8753
 k-point 24 :   0.4000 0.2000 0.3333  plane waves:    8743
 k-point 25 :   0.0000 0.4000 0.3333  plane waves:    8753
 k-point 26 :   0.2000 0.4000 0.3333  plane waves:    8743
 k-point 27 :   0.4000 0.4000 0.3333  plane waves:    8755
 k-point 28 :   0.0000 0.0000 0.5000  plane waves:    8742
 k-point 29 :   0.2000 0.0000 0.5000  plane waves:    8756
 k-point 30 :   0.4000 0.0000 0.5000  plane waves:    8744
 k-point 31 :   0.0000 0.2000 0.5000  plane waves:    8756
 k-point 32 :   0.2000 0.2000 0.5000  plane waves:    8762
 k-point 33 :   0.4000 0.2000 0.5000  plane waves:    8732
 k-point 34 :   0.0000 0.4000 0.5000  plane waves:    8744
 k-point 35 :   0.2000 0.4000 0.5000  plane waves:    8732
 k-point 36 :   0.4000 0.4000 0.5000  plane waves:    8736

 maximum and minimum number of plane-waves per node :      2208     2165

 maximum number of plane-waves:      8799
 maximum index in each direction: 
   IXMAX=   13   IYMAX=   13   IZMAX=   11
   IXMIN=  -13   IYMIN=  -13   IZMIN=  -11


 parallel 3D FFT for wavefunctions:
    minimum data exchange during FFTs selected (reduces bandwidth)
 parallel 3D FFT for charge:
    minimum data exchange during FFTs selected (reduces bandwidth)


 total amount of memory used by VASP MPI-rank0   533785. kBytes
=======================================================================

   base      :      30000. kBytes
   nonl-proj :      24164. kBytes
   fftplans  :      21726. kBytes
   grid      :      14732. kBytes
   one-center:        279. kBytes
   wavefun   :     442884. kBytes
 
     INWAV:  cpu time    0.0001: real time    0.0001
 Broyden mixing: mesh for mixing (old mesh)
   NGX = 27   NGY = 27   NGZ = 23
  (NGX  =108   NGY  =108   NGZ  = 96)
  gives a total of  16767 points

 initial charge density was supplied:
 charge density of overlapping atoms calculated
 number of electron     180.0000000 magnetization       0.0000000
 keeping initial charge density in first step


--------------------------------------------------------------------------------------------------------


 Maximum index for augmentation-charges        11261 (set IRDMAX)


--------------------------------------------------------------------------------------------------------


 First call to EWALD:  gamma=   0.227
 Maximum number of real-space cells 3x 3x 3
 Maximum number of reciprocal cells 3x 3x 3

    FEWALD:  cpu time    0.0089: real time    0.0089


--------------------------------------- Iteration      1(   1)  ---------------------------------------


    POTLOK:  cpu time    0.2501: real time    0.2501
    SETDIJ:  cpu time    0.3606: real time    0.3606
    TRIAL :  cpu time   12.5411: real time   12.6386
    CORREC:  cpu time    0.0045: real time    0.0047
    --------------------------------------------
      LOOP:  cpu time   13.3074: real time   13.4109

 eigenvalue-minimisations  : 15840
 total energy-change (2. order) : 0.1353204E+04  (-0.5860187E+04)
 number of electron     180.0000000 magnetization      -0.0000000
 augmentation part      180.0000000 magnetization      -0.0000000

 Free energy of the ion-electron system (eV)
  ---------------------------------------------------
  alpha Z        PSCENC =       532.25742704
  Ewald energy   TEWEN  =     -8601.05107233
  -Hartree energ DENC   =     -1903.73857242
  -exchange      EXHF   =         0.00000000
  -V(xc)+E(xc)   XCENC  =      -664.56815948
  PAW double counting   =      8494.55058411    -7650.81563588
  entropy T*S    EENTRO =         0.00431976
  eigenvalues    EBANDS =      2681.44865940
  atomic energy  EATOM  =      8465.11600846
  ---------------------------------------------------
  free energy    TOTEN  =      1353.20355866 eV

  energy without entropy =     1353.19923891  energy(sigma->0) =     1353.20211874


--------------------------------------------------------------------------------------------------------




--------------------------------------- Iteration      1(   2)  ---------------------------------------


    TRIAL :  cpu time   12.4489: real time   12.5646
    CORREC:  cpu time    0.0057: real time    0.0066
    --------------------------------------------
      LOOP:  cpu time   12.4558: real time   12.5749

 eigenvalue-minimisations  : 15840
 total energy-change (2. order) :-0.1408970E+04  (-0.1379485E+04)
 number of electron     180.0000000 magnetization      -0.0000000
 augmentation part      180.0000000 magnetization      -0.0000000

 Free energy of the ion-electron system (eV)
  ---------------------------------------------------
  alpha Z        PSCENC =       532.25742704
  Ewald energy   TEWEN  =     -8601.05107233
  -Hartree energ DENC   =     -1903.73857242
  -exchange      EXHF   =         0.00000000
  -V(xc)+E(xc)   XCENC  =      -664.56815948
  PAW double counting   =      8494.55058411    -7650.81563588
  entropy T*S    EENTRO =        -0.00672405
  eigenvalues    EBANDS =      1272.48978555
  atomic energy  EATOM  =      8465.11600846
  ---------------------------------------------------
  free energy    TOTEN  =       -55.76635899 eV

  energy without entropy =      -55.75963495  energy(sigma->0) =      -55.76411764


--------------------------------------------------------------------------------------------------------




--------------------------------------- Iteration      1(   3)  ---------------------------------------


    TRIAL :  cpu time   17.4191: real time   17.5418
    CORREC:  cpu time    0.0067: real time    0.0068
    --------------------------------------------
      LOOP:  cpu time   17.4266: real time   17.5521

 eigenvalue-minimisations  : 24304
 total energy-change (2. order) :-0.1811289E+03  (-0.1639799E+03)
 number of electron     180.0000000 magnetization      -0.0000000
 augmentation part      180.0000000 magnetization      -0.0000000

 Free energy of the ion-electron system (eV)
  ---------------------------------------------------
  alpha Z        PSCENC =       532.25742704
  Ewald energy   TEWEN  =     -8601.05107233
  -Hartree energ DENC   =     -1903.73857242
  -exchange      EXHF   =         0.00000000
  -V(xc)+E(xc)   XCENC  =      -664.56815948
  PAW double counting   =      8494.55058411    -7650.81563588
  entropy T*S    EENTRO =         0.00163174
  eigenvalues    EBANDS =      1091.35256447
  atomic energy  EATOM  =      8465.11600846
  ---------------------------------------------------
  free energy    TOTEN  =      -236.89522429 eV

  energy without entropy =     -236.89685603  energy(sigma->0) =     -236.89576820


--------------------------------------------------------------------------------------------------------




--------------------------------------- Iteration      1(   4)  ---------------------------------------


    TRIAL :  cpu time   19.2660: real time   19.4557
    CORREC:  cpu time    0.0069: real time    0.0071
    --------------------------------------------
      LOOP:  cpu time   19.2745: real time   19.4665

 eigenvalue-minimisations  : 25928
 total energy-change (2. order) :-0.2882355E+02  (-0.2578859E+02)
 number of electron     180.0000000 magnetization      -0.0000000
 augmentation part      180.0000000 magnetization      -0.0000000

 Free energy of the ion-electron system (eV)
  ---------------------------------------------------
  alpha Z        PSCENC =       532.25742704
  Ewald energy   TEWEN  =     -8601.05107233
  -Hartree energ DENC   =     -1903.73857242
  -exchange      EXHF   =         0.00000000
  -V(xc)+E(xc)   XCENC  =      -664.56815948
  PAW double counting   =      8494.55058411    -7650.81563588
  entropy T*S    EENTRO =         0.01937012
  eigenvalues    EBANDS =      1062.51127565
  atomic energy  EATOM  =      8465.11600846
  ---------------------------------------------------
  free energy    TOTEN  =      -265.71877472 eV

  energy without entropy =     -265.73814484  energy(sigma->0) =     -265.72523143


--------------------------------------------------------------------------------------------------------




--------------------------------------- Iteration      1(   5)  ---------------------------------------


    TRIAL :  cpu time   18.7980: real time   18.8843
    CORREC:  cpu time    0.0070: real time    0.0080
    --------------------------------------------
      LOOP:  cpu time   18.8065: real time   18.8964

 eigenvalue-minimisations  : 26616
 total energy-change (2. order) :-0.3236414E+01  (-0.3077106E+01)
 number of electron     180.0000000 magnetization      -0.0000000
 augmentation part      180.0000000 magnetization      -0.0000000

 Free energy of the ion-electron system (eV)
  ---------------------------------------------------
  alpha Z        PSCENC =       532.25742704
  Ewald energy   TEWEN  =     -8601.05107233
  -Hartree energ DENC   =     -1903.73857242
  -exchange      EXHF   =         0.00000000
  -V(xc)+E(xc)   XCENC  =      -664.56815948
  PAW double counting   =      8494.55058411    -7650.81563588
  entropy T*S    EENTRO =         0.01899373
  eigenvalues    EBANDS =      1059.27523788
  atomic energy  EATOM  =      8465.11600846
  ---------------------------------------------------
  free energy    TOTEN  =      -268.95518888 eV

  energy without entropy =     -268.97418261  energy(sigma->0) =     -268.96152013


--------------------------------------------------------------------------------------------------------




--------------------------------------- Iteration      1(   6)  ---------------------------------------


    TRIAL :  cpu time   18.6888: real time   18.8205
    CORREC:  cpu time    0.0071: real time    0.0072
    --------------------------------------------
      LOOP:  cpu time   18.6967: real time   18.8315

 eigenvalue-minimisations  : 26448
 total energy-change (2. order) :-0.2778157E+00  (-0.2698279E+00)
 number of electron     180.0000000 magnetization      -0.0000000
 augmentation part      180.0000000 magnetization      -0.0000000

 Free energy of the ion-electron system (eV)
  ---------------------------------------------------
  alpha Z        PSCENC =       532.25742704
  Ewald energy   TEWEN  =     -8601.05107233
  -Hartree energ DENC   =     -1903.73857242
  -exchange      EXHF   =         0.00000000
  -V(xc)+E(xc)   XCENC  =      -664.56815948
  PAW double counting   =      8494.55058411    -7650.81563588
  entropy T*S    EENTRO =         0.02026234
  eigenvalues    EBANDS =      1058.99615362
  atomic energy  EATOM  =      8465.11600846
  ---------------------------------------------------
  free energy    TOTEN  =      -269.23300454 eV

  energy without entropy =     -269.25326687  energy(sigma->0) =     -269.23975865


--------------------------------------------------------------------------------------------------------




--------------------------------------- Iteration      1(   7)  ---------------------------------------


    TRIAL :  cpu time   19.8448: real time   20.0064
    CORREC:  cpu time    0.0071: real time    0.0072
    --------------------------------------------
      LOOP:  cpu time   19.8548: real time   20.0178

 eigenvalue-minimisations  : 26936
 total energy-change (2. order) :-0.3078537E-01  (-0.3026682E-01)
 number of electron     180.0000000 magnetization      -0.0000000
 augmentation part      180.0000000 magnetization      -0.0000000

 Free energy of the ion-electron system (eV)
  ---------------------------------------------------
  alpha Z        PSCENC =       532.25742704
  Ewald energy   TEWEN  =     -8601.05107233
  -Hartree energ DENC   =     -1903.73857242
  -exchange      EXHF   =         0.00000000
  -V(xc)+E(xc)   XCENC  =      -664.56815948
  PAW double counting   =      8494.55058411    -7650.81563588
  entropy T*S    EENTRO =         0.02074419
  eigenvalues    EBANDS =      1058.96488640
  atomic energy  EATOM  =      8465.11600846
  ---------------------------------------------------
  free energy    TOTEN  =      -269.26378991 eV

  energy without entropy =     -269.28453410  energy(sigma->0) =     -269.27070464


--------------------------------------------------------------------------------------------------------




--------------------------------------- Iteration      1(   8)  ---------------------------------------


    TRIAL :  cpu time   18.4539: real time   18.5578
    CORREC:  cpu time    0.0070: real time    0.0079
    CHARGE:  cpu time    0.8568: real time    0.8572
    --------------------------------------------
      LOOP:  cpu time   19.3188: real time   19.4269

 eigenvalue-minimisations  : 25960
 total energy-change (2. order) :-0.3250938E-02  (-0.3212106E-02)
 number of electron     179.9999997 magnetization       0.0000000
 augmentation part       42.6255921 magnetization       0.0000000

 Free energy of the ion-electron system (eV)
  ---------------------------------------------------
  alpha Z        PSCENC =       532.25742704
  Ewald energy   TEWEN  =     -8601.05107233
  -Hartree energ DENC   =     -1903.73857242
  -exchange      EXHF   =         0.00000000
  -V(xc)+E(xc)   XCENC  =      -664.56815948
  PAW double counting   =      8494.55058411    -7650.81563588
  entropy T*S    EENTRO =         0.02093117
  eigenvalues    EBANDS =      1058.96144848
  atomic energy  EATOM  =      8465.11600846
  ---------------------------------------------------
  free energy    TOTEN  =      -269.26704085 eV

  energy without entropy =     -269.28797201  energy(sigma->0) =     -269.27401790


--------------------------------------------------------------------------------------------------------




--------------------------------------- Iteration      1(   9)  ---------------------------------------


    POTLOK:  cpu time    0.2514: real time    0.2515
    SETDIJ:  cpu time    0.3384: real time    0.3386
    TRIAL :  cpu time    6.1404: real time    6.2289
    CORREC:  cpu time    2.5843: real time    2.6135
    CHARGE:  cpu time    0.8613: real time    0.8613
    --------------------------------------------
      LOOP:  cpu time   10.1812: real time   10.2993

 eigenvalue-minimisations  :     0
 total energy-change (2. order) : 0.2038642E+03  (-0.1470225E+03)
 number of electron     179.9999997 magnetization      -0.0000000
 augmentation part       54.9568431 magnetization      -0.0000000

 Free energy of the ion-electron system (eV)
  ---------------------------------------------------
  alpha Z        PSCENC =       532.25742704
  Ewald energy   TEWEN  =     -8601.05107233
  -Hartree energ DENC   =      -840.74240988
  -exchange      EXHF   =         0.00000000
  -V(xc)+E(xc)   XCENC  =      -694.90038592
  PAW double counting   =     12764.60307758   -11817.73872357
  entropy T*S    EENTRO =         0.01171270
  eigenvalues    EBANDS =       127.03235629
  atomic energy  EATOM  =      8465.11600846
  ---------------------------------------------------
  free energy    TOTEN  =       -65.40279117 eV

  energy without entropy =      -65.41450387  energy(sigma->0) =      -65.40669540


--------------------------------------------------------------------------------------------------------




--------------------------------------- Iteration      1(  10)  ---------------------------------------


    POTLOK:  cpu time    0.2474: real time    0.2475
    SETDIJ:  cpu time    0.3200: real time    0.3201
    TRIAL :  cpu time    6.1858: real time    6.2410
    CORREC:  cpu time    2.6545: real time    2.6690
    CHARGE:  cpu time    0.8541: real time    0.8541
    --------------------------------------------
      LOOP:  cpu time   10.3159: real time   10.3869

 eigenvalue-minimisations  :     0
 total energy-change (2. order) :-0.1447564E+03  (-0.8546051E+01)
 number of electron     179.9999996 magnetization       0.0000000
 augmentation part       58.0245806 magnetization       0.0000000

 Free energy of the ion-electron system (eV)
  ---------------------------------------------------
  alpha Z        PSCENC =       532.25742704
  Ewald energy   TEWEN  =     -8601.05107233
  -Hartree energ DENC   =     -1400.83911375
  -exchange      EXHF   =         0.00000000
  -V(xc)+E(xc)   XCENC  =      -675.62536055
  PAW double counting   =     13773.07633634   -12948.22006194
  entropy T*S    EENTRO =         0.00801325
  eigenvalues    EBANDS =       645.11497869
  atomic energy  EATOM  =      8465.11600846
  ---------------------------------------------------
  free energy    TOTEN  =      -210.15914534 eV

  energy without entropy =     -210.16715859  energy(sigma->0) =     -210.16181642


--------------------------------------------------------------------------------------------------------




--------------------------------------- Iteration      1(  11)  ---------------------------------------


    POTLOK:  cpu time    0.2468: real time    0.2468
    SETDIJ:  cpu time    0.3234: real time    0.3235
    TRIAL :  cpu time    7.0502: real time    7.1598
    CORREC:  cpu time    2.6360: real time    2.6782
    CHARGE:  cpu time    0.8544: real time    0.8544
    --------------------------------------------
      LOOP:  cpu time   11.1285: real time   11.2805

 eigenvalue-minimisations  :     0
 total energy-change (2. order) :-0.8601486E+01  (-0.9244205E+01)
 number of electron     179.9999996 magnetization       0.0000000
 augmentation part       59.2184225 magnetization       0.0000000

 Free energy of the ion-electron system (eV)
  ---------------------------------------------------
  alpha Z        PSCENC =       532.25742704
  Ewald energy   TEWEN  =     -8601.05107233
  -Hartree energ DENC   =     -1583.33803983
  -exchange      EXHF   =         0.00000000
  -V(xc)+E(xc)   XCENC  =      -669.19866771
  PAW double counting   =     14483.81859494   -13689.28345369
  entropy T*S    EENTRO =         0.01893282
  eigenvalues    EBANDS =       842.91055879
  atomic energy  EATOM  =      8465.11600846
  ---------------------------------------------------
  free energy    TOTEN  =      -218.76063109 eV

  energy without entropy =     -218.77956391  energy(sigma->0) =     -218.76694203


--------------------------------------------------------------------------------------------------------




--------------------------------------- Iteration      1(  12)  ---------------------------------------


    POTLOK:  cpu time    0.2468: real time    0.2468
    SETDIJ:  cpu time    0.3594: real time    0.3756
    TRIAL :  cpu time    6.8192: real time    6.8549
    CORREC:  cpu time    2.6575: real time    2.7278
    CHARGE:  cpu time    0.8805: real time    0.8808
    --------------------------------------------
      LOOP:  cpu time   10.9685: real time   11.0910

 eigenvalue-minimisations  :     0
 total energy-change (2. order) :-0.9293672E+01  (-0.5343531E+01)
 number of electron     179.9999997 magnetization       0.0000000
 augmentation part       58.0934753 magnetization       0.0000000

 Free energy of the ion-electron system (eV)
  ---------------------------------------------------
  alpha Z        PSCENC =       532.25742704
  Ewald energy   TEWEN  =     -8601.05107233
  -Hartree energ DENC   =     -1714.47640583
  -exchange      EXHF   =         0.00000000
  -V(xc)+E(xc)   XCENC  =      -664.99312658
  PAW double counting   =     14441.15732522   -13643.62238739
  entropy T*S    EENTRO =         0.02546973
  eigenvalues    EBANDS =       957.53899592
  atomic energy  EATOM  =      8465.11600846
  ---------------------------------------------------
  free energy    TOTEN  =      -228.05430267 eV

  energy without entropy =     -228.07977241  energy(sigma->0) =     -228.06279258


--------------------------------------------------------------------------------------------------------




--------------------------------------- Iteration      1(  13)  ---------------------------------------


    POTLOK:  cpu time    0.2467: real time    0.2468
    SETDIJ:  cpu time    0.3249: real time    0.3250
    TRIAL :  cpu time    6.2219: real time    6.2299
    CORREC:  cpu time    2.6452: real time    2.6501
    CHARGE:  cpu time    0.8728: real time    0.8733
    --------------------------------------------
      LOOP:  cpu time   10.3460: real time   10.3611

 eigenvalue-minimisations  :     0
 total energy-change (2. order) :-0.5246262E+01  (-0.8214528E+00)
 number of electron     179.9999997 magnetization      -0.0000000
 augmentation part       57.3124066 magnetization      -0.0000000

 Free energy of the ion-electron system (eV)
  ---------------------------------------------------
  alpha Z        PSCENC =       532.25742704
  Ewald energy   TEWEN  =     -8601.05107233
  -Hartree energ DENC   =     -1695.87038692
  -exchange      EXHF   =         0.00000000
  -V(xc)+E(xc)   XCENC  =      -666.01666210
  PAW double counting   =     14175.51600602   -13352.60800350
  entropy T*S    EENTRO =         0.02551420
  eigenvalues    EBANDS =       909.33064863
  atomic energy  EATOM  =      8465.11600846
  ---------------------------------------------------
  free energy    TOTEN  =      -233.30056498 eV

  energy without entropy =     -233.32607918  energy(sigma->0) =     -233.30906971


--------------------------------------------------------------------------------------------------------




--------------------------------------- Iteration      1(  14)  ---------------------------------------


    POTLOK:  cpu time    0.2470: real time    0.2472
    SETDIJ:  cpu time    0.3236: real time    0.3237
    TRIAL :  cpu time    6.2158: real time    6.2281
    CORREC:  cpu time    2.5991: real time    2.6112
    CHARGE:  cpu time    0.8712: real time    0.8716
    --------------------------------------------
      LOOP:  cpu time   10.2580: real time   10.2836

 eigenvalue-minimisations  :     0
 total energy-change (2. order) :-0.8177879E+00  (-0.7966529E+00)
 number of electron     179.9999996 magnetization       0.0000000
 augmentation part       57.2829511 magnetization       0.0000000

 Free energy of the ion-electron system (eV)
  ---------------------------------------------------
  alpha Z        PSCENC =       532.25742704
  Ewald energy   TEWEN  =     -8601.05107233
  -Hartree energ DENC   =     -1653.68052149
  -exchange      EXHF   =         0.00000000
  -V(xc)+E(xc)   XCENC  =      -667.56400015
  PAW double counting   =     13848.38005095   -13013.82113933
  entropy T*S    EENTRO =         0.03386610
  eigenvalues    EBANDS =       856.21937974
  atomic energy  EATOM  =      8465.11600846
  ---------------------------------------------------
  free energy    TOTEN  =      -234.11835291 eV

  energy without entropy =     -234.15221902  energy(sigma->0) =     -234.12964162


--------------------------------------------------------------------------------------------------------




--------------------------------------- Iteration      1(  15)  ---------------------------------------


    POTLOK:  cpu time    0.2447: real time    0.2531
    SETDIJ:  cpu time    0.3186: real time    0.3306
    TRIAL :  cpu time    6.1425: real time    6.2282
    CORREC:  cpu time    2.6425: real time    2.6876
    CHARGE:  cpu time    0.8656: real time    0.8660
    --------------------------------------------
      LOOP:  cpu time   10.2166: real time   10.3697

 eigenvalue-minimisations  :     0
 total energy-change (2. order) :-0.7943451E+00  (-0.4744513E+00)
 number of electron     179.9999996 magnetization       0.0000000
 augmentation part       57.8316988 magnetization       0.0000000

 Free energy of the ion-electron system (eV)
  ---------------------------------------------------
  alpha Z        PSCENC =       532.25742704
  Ewald energy   TEWEN  =     -8601.05107233
  -Hartree energ DENC   =     -1640.65277944
  -exchange      EXHF   =         0.00000000
  -V(xc)+E(xc)   XCENC  =      -667.94251312
  PAW double counting   =     13328.03272483   -12489.93542198
  entropy T*S    EENTRO =         0.03496107
  eigenvalues    EBANDS =       839.22906246
  atomic energy  EATOM  =      8465.11600846
  ---------------------------------------------------
  free energy    TOTEN  =      -234.91269798 eV

  energy without entropy =     -234.94765905  energy(sigma->0) =     -234.92435167


--------------------------------------------------------------------------------------------------------




--------------------------------------- Iteration      1(  16)  ---------------------------------------


    POTLOK:  cpu time    0.2467: real time    0.2468
    SETDIJ:  cpu time    0.3288: real time    0.3289
    TRIAL :  cpu time    6.1873: real time    6.2269
    CORREC:  cpu time    2.5856: real time    2.6531
    CHARGE:  cpu time    0.8455: real time    0.8563
    --------------------------------------------
      LOOP:  cpu time   10.1976: real time   10.3171

 eigenvalue-minimisations  :     0
 total energy-change (2. order) :-0.4789926E+00  (-0.1825943E+00)
 number of electron     179.9999996 magnetization       0.0000000
 augmentation part       58.2325763 magnetization       0.0000000

 Free energy of the ion-electron system (eV)
  ---------------------------------------------------
  alpha Z        PSCENC =       532.25742704
  Ewald energy   TEWEN  =     -8601.05107233
  -Hartree energ DENC   =     -1660.61004836
  -exchange      EXHF   =         0.00000000
  -V(xc)+E(xc)   XCENC  =      -667.13195051
  PAW double counting   =     13071.40857703   -12237.67820279
  entropy T*S    EENTRO =         0.03825292
  eigenvalues    EBANDS =       862.26260981
  atomic energy  EATOM  =      8465.11600846
  ---------------------------------------------------
  free energy    TOTEN  =      -235.39169059 eV

  energy without entropy =     -235.42994351  energy(sigma->0) =     -235.40444156


--------------------------------------------------------------------------------------------------------




--------------------------------------- Iteration      1(  17)  ---------------------------------------


    POTLOK:  cpu time    0.2470: real time    0.2471
    SETDIJ:  cpu time    0.3172: real time    0.3232
    TRIAL :  cpu time    7.1992: real time    7.2572
    CORREC:  cpu time    3.4202: real time    3.4584
    CHARGE:  cpu time    0.8567: real time    0.8787
    --------------------------------------------
      LOOP:  cpu time   12.0441: real time   12.1736

 eigenvalue-minimisations  :     0
 total energy-change (2. order) :-0.1825633E+00  (-0.1770023E+00)
 number of electron     179.9999996 magnetization       0.0000000
 augmentation part       58.2058426 magnetization       0.0000000

 Free energy of the ion-electron system (eV)
  ---------------------------------------------------
  alpha Z        PSCENC =       532.25742704
  Ewald energy   TEWEN  =     -8601.05107233
  -Hartree energ DENC   =     -1678.38698468
  -exchange      EXHF   =         0.00000000
  -V(xc)+E(xc)   XCENC  =      -666.34995373
  PAW double counting   =     13018.43719883   -12189.03598634
  entropy T*S    EENTRO =         0.04048323
  eigenvalues    EBANDS =       883.40085596
  atomic energy  EATOM  =      8465.11600846
  ---------------------------------------------------
  free energy    TOTEN  =      -235.57425387 eV

  energy without entropy =     -235.61473710  energy(sigma->0) =     -235.58774828


--------------------------------------------------------------------------------------------------------




--------------------------------------- Iteration      1(  18)  ---------------------------------------


    POTLOK:  cpu time    0.2467: real time    0.2468
    SETDIJ:  cpu time    0.3208: real time    0.3210
    TRIAL :  cpu time    6.1680: real time    6.2408
    CORREC:  cpu time    2.6250: real time    2.6270
    CHARGE:  cpu time    0.8728: real time    0.8754
    --------------------------------------------
      LOOP:  cpu time   10.2345: real time   10.3130

 eigenvalue-minimisations  :     0
 total energy-change (2. order) :-0.1768134E+00  (-0.7520074E-01)
 number of electron     179.9999996 magnetization       0.0000000
 augmentation part       58.0094798 magnetization       0.0000000

 Free energy of the ion-electron system (eV)
  ---------------------------------------------------
  alpha Z        PSCENC =       532.25742704
  Ewald energy   TEWEN  =     -8601.05107233
  -Hartree energ DENC   =     -1674.69684222
  -exchange      EXHF   =         0.00000000
  -V(xc)+E(xc)   XCENC  =      -666.28953609
  PAW double counting   =     12977.79360584   -12148.30761719
  entropy T*S    EENTRO =         0.04146773
  eigenvalues    EBANDS =       879.38647604
  atomic energy  EATOM  =      8465.11600846
  ---------------------------------------------------
  free energy    TOTEN  =      -235.75106722 eV

  energy without entropy =     -235.79253495  energy(sigma->0) =     -235.76488980


--------------------------------------------------------------------------------------------------------




--------------------------------------- Iteration      1(  19)  ---------------------------------------


    POTLOK:  cpu time    0.2470: real time    0.2471
    SETDIJ:  cpu time    0.3727: real time    0.3729
    TRIAL :  cpu time    6.1521: real time    6.1713
    CORREC:  cpu time    2.6605: real time    2.6647
    CHARGE:  cpu time    0.8562: real time    0.8569
    --------------------------------------------
      LOOP:  cpu time   10.2958: real time   10.3221

 eigenvalue-minimisations  :     0
 total energy-change (2. order) :-0.7440062E-01  (-0.5528500E-01)
 number of electron     179.9999996 magnetization      -0.0000000
 augmentation part       57.8051105 magnetization      -0.0000000

 Free energy of the ion-electron system (eV)
  ---------------------------------------------------
  alpha Z        PSCENC =       532.25742704
  Ewald energy   TEWEN  =     -8601.05107233
  -Hartree energ DENC   =     -1664.13988777
  -exchange      EXHF   =         0.00000000
  -V(xc)+E(xc)   XCENC  =      -666.57601320
  PAW double counting   =     12959.09529757   -12127.62784955
  entropy T*S    EENTRO =         0.04269792
  eigenvalues    EBANDS =       867.05915422
  atomic energy  EATOM  =      8465.11600846
  ---------------------------------------------------
  free energy    TOTEN  =      -235.82546784 eV

  energy without entropy =     -235.86816576  energy(sigma->0) =     -235.83970048


--------------------------------------------------------------------------------------------------------




--------------------------------------- Iteration      1(  20)  ---------------------------------------


    POTLOK:  cpu time    0.2470: real time    0.2470
    SETDIJ:  cpu time    0.3441: real time    0.3443
    TRIAL :  cpu time    6.1137: real time    6.1798
    CORREC:  cpu time    2.5866: real time    2.6272
    CHARGE:  cpu time    0.8548: real time    0.8551
    --------------------------------------------
      LOOP:  cpu time   10.1488: real time   10.2569

 eigenvalue-minimisations  :     0
 total energy-change (2. order) :-0.5529819E-01  (-0.6870773E-01)
 number of electron     179.9999996 magnetization       0.0000000
 augmentation part       57.8227686 magnetization       0.0000000

 Free energy of the ion-electron system (eV)
  ---------------------------------------------------
  alpha Z        PSCENC =       532.25742704
  Ewald energy   TEWEN  =     -8601.05107233
  -Hartree energ DENC   =     -1655.28718613
  -exchange      EXHF   =         0.00000000
  -V(xc)+E(xc)   XCENC  =      -666.83348577
  PAW double counting   =     12951.76946980   -12118.35128696
  entropy T*S    EENTRO =         0.04399189
  eigenvalues    EBANDS =       856.45666194
  atomic energy  EATOM  =      8465.11600846
  ---------------------------------------------------
  free energy    TOTEN  =      -235.88076604 eV

  energy without entropy =     -235.92475793  energy(sigma->0) =     -235.89543000


--------------------------------------------------------------------------------------------------------




--------------------------------------- Iteration      1(  21)  ---------------------------------------


    POTLOK:  cpu time    0.2521: real time    0.2653
    SETDIJ:  cpu time    0.3308: real time    0.3310
    TRIAL :  cpu time    6.2475: real time    6.2734
    CORREC:  cpu time    2.5939: real time    2.6224
    CHARGE:  cpu time    0.9156: real time    0.9248
    --------------------------------------------
      LOOP:  cpu time   10.3449: real time   10.4237

 eigenvalue-minimisations  :     0
 total energy-change (2. order) :-0.6869552E-01  (-0.1966597E-01)
 number of electron     179.9999996 magnetization       0.0000000
 augmentation part       57.9314967 magnetization       0.0000000

 Free energy of the ion-electron system (eV)
  ---------------------------------------------------
  alpha Z        PSCENC =       532.25742704
  Ewald energy   TEWEN  =     -8601.05107233
  -Hartree energ DENC   =     -1659.63276404
  -exchange      EXHF   =         0.00000000
  -V(xc)+E(xc)   XCENC  =      -666.59719324
  PAW double counting   =     12976.55793547   -12143.84778625
  entropy T*S    EENTRO =         0.04476448
  eigenvalues    EBANDS =       861.20399145
  atomic energy  EATOM  =      8465.11600846
  ---------------------------------------------------
  free energy    TOTEN  =      -235.94946156 eV

  energy without entropy =     -235.99422604  energy(sigma->0) =     -235.96438305


--------------------------------------------------------------------------------------------------------




--------------------------------------- Iteration      1(  22)  ---------------------------------------


    POTLOK:  cpu time    0.2467: real time    0.2468
    SETDIJ:  cpu time    0.3347: real time    0.3350
    TRIAL :  cpu time    6.1047: real time    6.1677
    CORREC:  cpu time    3.5435: real time    3.5880
    CHARGE:  cpu time    0.8522: real time    0.8527
    --------------------------------------------
      LOOP:  cpu time   11.0860: real time   11.1955

 eigenvalue-minimisations  :     0
 total energy-change (2. order) :-0.1966023E-01  (-0.1527556E-01)
 number of electron     179.9999996 magnetization       0.0000000
 augmentation part       58.0121358 magnetization       0.0000000

 Free energy of the ion-electron system (eV)
  ---------------------------------------------------
  alpha Z        PSCENC =       532.25742704
  Ewald energy   TEWEN  =     -8601.05107233
  -Hartree energ DENC   =     -1666.26491954
  -exchange      EXHF   =         0.00000000
  -V(xc)+E(xc)   XCENC  =      -666.33907944
  PAW double counting   =     12991.84741647   -12160.44766487
  entropy T*S    EENTRO =         0.04535425
  eigenvalues    EBANDS =       868.86799795
  atomic energy  EATOM  =      8465.11600846
  ---------------------------------------------------
  free energy    TOTEN  =      -235.96912179 eV

  energy without entropy =     -236.01447604  energy(sigma->0) =     -235.98423987


--------------------------------------------------------------------------------------------------------




--------------------------------------- Iteration      1(  23)  ---------------------------------------


    POTLOK:  cpu time    0.2465: real time    0.2467
    SETDIJ:  cpu time    0.3213: real time    0.3274
    TRIAL :  cpu time    6.8884: real time    6.9390
    CORREC:  cpu time    2.5960: real time    2.5972
    CHARGE:  cpu time    0.8565: real time    0.8568
    --------------------------------------------
      LOOP:  cpu time   10.9169: real time   10.9770

 eigenvalue-minimisations  :     0
 total energy-change (2. order) :-0.1527562E-01  (-0.2401878E-01)
 number of electron     179.9999996 magnetization       0.0000000
 augmentation part       58.0103890 magnetization       0.0000000

 Free energy of the ion-electron system (eV)
  ---------------------------------------------------
  alpha Z        PSCENC =       532.25742704
  Ewald energy   TEWEN  =     -8601.05107233
  -Hartree energ DENC   =     -1670.72826027
  -exchange      EXHF   =         0.00000000
  -V(xc)+E(xc)   XCENC  =      -666.14996541
  PAW double counting   =     12997.93443626   -12167.39019563
  entropy T*S    EENTRO =         0.04590928
  eigenvalues    EBANDS =       873.98187023
  atomic energy  EATOM  =      8465.11600846
  ---------------------------------------------------
  free energy    TOTEN  =      -235.98439740 eV

  energy without entropy =     -236.03030669  energy(sigma->0) =     -235.99970050


--------------------------------------------------------------------------------------------------------




--------------------------------------- Iteration      1(  24)  ---------------------------------------


    POTLOK:  cpu time    0.2467: real time    0.2467
    SETDIJ:  cpu time    0.3880: real time    0.3880
    TRIAL :  cpu time    6.1416: real time    6.2150
    CORREC:  cpu time    2.6665: real time    2.6679
    CHARGE:  cpu time    0.8571: real time    0.8571
    --------------------------------------------
      LOOP:  cpu time   10.3028: real time   10.3799

 eigenvalue-minimisations  :     0
 total energy-change (2. order) :-0.2402655E-01  (-0.1239240E-01)
 number of electron     179.9999996 magnetization       0.0000000
 augmentation part       57.9284453 magnetization       0.0000000

 Free energy of the ion-electron system (eV)
  ---------------------------------------------------
  alpha Z        PSCENC =       532.25742704
  Ewald energy   TEWEN  =     -8601.05107233
  -Hartree energ DENC   =     -1670.49045168
  -exchange      EXHF   =         0.00000000
  -V(xc)+E(xc)   XCENC  =      -666.10190530
  PAW double counting   =     12992.94787980   -12162.17867027
  entropy T*S    EENTRO =         0.04621822
  eigenvalues    EBANDS =       873.44645106
  atomic energy  EATOM  =      8465.11600846
  ---------------------------------------------------
  free energy    TOTEN  =      -236.00842395 eV

  energy without entropy =     -236.05464217  energy(sigma->0) =     -236.02383003


--------------------------------------------------------------------------------------------------------




--------------------------------------- Iteration      1(  25)  ---------------------------------------


    POTLOK:  cpu time    0.2483: real time    0.2483
    SETDIJ:  cpu time    0.3216: real time    0.3215
    TRIAL :  cpu time    6.1950: real time    6.2079
    CORREC:  cpu time    2.6037: real time    2.6122
    CHARGE:  cpu time    0.8566: real time    0.8566
    --------------------------------------------
      LOOP:  cpu time   10.2434: real time   10.2651

 eigenvalue-minimisations  :     0
 total energy-change (2. order) :-0.1238599E-01  (-0.1006917E-01)
 number of electron     179.9999996 magnetization      -0.0000000
[...]
  8.437  14.377  -0.000   0.000   0.000  -0.001   0.000   0.001
 14.377  24.501  -0.000   0.000   0.001  -0.001   0.001   0.002
 -0.000  -0.000   1.996   0.000  -0.000   5.748   0.000  -0.000
  0.000   0.000   0.000   1.995  -0.000   0.000   5.746  -0.000
  0.000   0.001  -0.000  -0.000   1.996  -0.000  -0.000   5.748
 -0.001  -0.001   5.748   0.000  -0.000  16.470   0.001  -0.001
  0.000   0.001   0.000   5.746  -0.000   0.001  16.466  -0.000
  0.001   0.002  -0.000  -0.000   5.748  -0.001  -0.000  16.471
 total augmentation occupancy for first ion, spin component:           1
  4.379  -1.252   0.001   0.001   0.002  -0.001  -0.000   0.000
 -1.252   0.377   0.002   0.001  -0.003   0.000  -0.000   0.000
  0.001   0.002   1.426  -0.008  -0.003  -0.101   0.000   0.000
  0.001   0.001  -0.008   1.513  -0.004   0.000  -0.102   0.000
  0.002  -0.003  -0.003  -0.004   1.411   0.000   0.000  -0.101
 -0.001   0.000  -0.101   0.000   0.000   0.008  -0.000  -0.000
 -0.000  -0.000   0.000  -0.102   0.000  -0.000   0.007   0.000
  0.000   0.000   0.000   0.000  -0.101  -0.000   0.000   0.008
 total augmentation occupancy for first ion, spin component:           2
  0.063  -0.019  -0.019  -0.028  -0.016   0.001   0.001   0.001
 -0.019   0.006  -0.003  -0.004  -0.001   0.000   0.000   0.000
 -0.019  -0.003   0.013  -0.075   0.017  -0.001   0.001  -0.000
 -0.028  -0.004  -0.075   0.043   0.029   0.001  -0.002  -0.000
 -0.016  -0.001   0.017   0.029   0.029  -0.000  -0.001  -0.002
  0.001   0.000  -0.001   0.001  -0.000   0.000   0.000  -0.000
  0.001   0.000   0.001  -0.002  -0.001   0.000   0.000  -0.000
  0.001   0.000  -0.000  -0.000  -0.002  -0.000  -0.000   0.000


------------------------ aborting loop because EDIFF is reached ----------------------------------------


 


 total charge     
 
# of ion       s       p       d       tot
------------------------------------------
    1        0.405   0.430   0.000   0.834
    2        0.404   0.431   0.000   0.835
    3        0.405   0.431   0.000   0.835
    4        0.404   0.430   0.000   0.834
    5        0.405   0.428   0.000   0.833
    6        0.405   0.429   0.000   0.833
    7        0.405   0.431   0.000   0.835
    8        0.404   0.430   0.000   0.834
    9        0.405   0.430   0.000   0.834
   10        0.404   0.431   0.000   0.835
   11        0.405   0.428   0.000   0.833
   12        0.405   0.429   0.000   0.833
   13        0.406   0.425   0.000   0.831
   14        0.406   0.425   0.000   0.831
   15        0.406   0.425   0.000   0.831
   16        0.406   0.425   0.000   0.831
   17        0.405   0.426   0.000   0.831
   18        0.405   0.426   0.000   0.831
   19        0.331   0.356   5.132   5.820
   20        0.331   0.356   5.132   5.820
   21        0.335   0.349   5.141   5.825
   22        0.332   0.358   5.121   5.812
   23        0.332   0.358   5.121   5.812
   24        0.335   0.349   5.141   5.825
   25        0.331   0.355   5.122   5.808
   26        0.331   0.355   5.144   5.830
   27        0.338   0.353   5.131   5.821
   28        0.332   0.352   5.139   5.824
   29        0.333   0.353   5.142   5.827
   30        0.337   0.353   5.120   5.810
   31        0.331   0.355   5.144   5.830
   32        0.331   0.355   5.122   5.808
   33        0.337   0.353   5.120   5.810
   34        0.333   0.353   5.142   5.827
   35        0.332   0.352   5.139   5.824
   36        0.338   0.353   5.131   5.821
--------------------------------------------------
tot         13.287  14.075  92.385 119.748
 


 magnetization (x)
 
# of ion       s       p       d       tot
------------------------------------------
    1        0.005   0.009   0.000   0.014
    2        0.005   0.009   0.000   0.014
    3       -0.005  -0.008   0.000  -0.013
    4       -0.005  -0.010   0.000  -0.015
    5       -0.000   0.000   0.000   0.000
    6       -0.000  -0.000   0.000  -0.001
    7        0.005   0.008   0.000   0.013
    8        0.005   0.010   0.000   0.015
    9       -0.005  -0.009   0.000  -0.014
   10       -0.005  -0.009   0.000  -0.014
   11        0.000  -0.000   0.000  -0.000
   12        0.000   0.000   0.000   0.001
   13        0.007   0.018   0.000   0.025
   14        0.008   0.018   0.000   0.026
   15       -0.007  -0.018   0.000  -0.025
   16       -0.008  -0.018   0.000  -0.026
   17        0.000   0.000   0.000   0.000
   18        0.000   0.000   0.000   0.000
   19        0.019   0.025   2.147   2.190
   20       -0.019  -0.025  -2.147  -2.190
   21       -0.030  -0.020  -2.319  -2.369
   22        0.005   0.014   2.322   2.341
   23       -0.005  -0.014  -2.322  -2.341
   24        0.030   0.020   2.319   2.369
   25        0.012   0.005   2.275   2.292
   26       -0.012  -0.005  -2.263  -2.280
   27        0.027   0.019   2.462   2.508
   28        0.021   0.013   2.177   2.212
   29       -0.022  -0.013  -2.183  -2.217
   30       -0.027  -0.019  -2.469  -2.515
   31        0.012   0.005   2.263   2.280
   32       -0.012  -0.005  -2.275  -2.292
   33        0.027   0.019   2.469   2.515
   34        0.022   0.013   2.183   2.217
   35       -0.021  -0.013  -2.177  -2.212
   36       -0.027  -0.019  -2.462  -2.508
--------------------------------------------------
tot          0.000   0.000  -0.000  -0.000
 
    FORLOC:  cpu time    0.0277: real time    0.0278
    FORNL :  cpu time    9.5122: real time    9.5747
    STRESS:  cpu time   14.6387: real time   14.8018
    FORCOR:  cpu time    0.2712: real time    0.2712
    OFIELD:  cpu time    0.0016: real time    0.0016

  FORCE on cell =-STRESS in cart. coord.  units (eV):
  Direction    XX          YY          ZZ          XY          YZ          ZX
  --------------------------------------------------------------------------------------
  Alpha Z   532.25743   532.25743   532.25743
  Ewald   -2702.40749 -2702.40749 -3196.26924    -0.00000    -0.00000    -0.00000
  Hartree   722.83484   720.08661   223.68453    -0.00000    -0.00000    -0.00000
  E(xc)    -760.55443  -759.84102  -759.66032    -0.00000    -0.00000    -0.00000
  Local     244.02063   251.19822  1266.01321    -0.00000    -0.00000     0.00000
  n-local  -112.69823  -110.13878  -120.01516    -0.31764     0.20656    -0.35463
  augment   523.22175   520.30123   513.33181     0.00000     0.00001     0.00001
  Kinetic  1558.32540  1554.79463  1540.92130     0.28766    -0.14002     1.13207
  Fock        0.00000     0.00000     0.00000     0.00000     0.00000     0.00000
  -------------------------------------------------------------------------------------
  Total       4.99989     6.25083     0.26355    -0.00000     0.00000     0.00000
  in kB      16.92614    21.16097     0.89221    -0.00000     0.00000     0.00000
  external pressure =       12.99 kB  Pullay stress =        0.00 kB


 VOLUME and BASIS-vectors are now :
 -----------------------------------------------------------------------------
  energy-cutoff  :      404.80
  volume of cell :      473.27
      direct lattice vectors                 reciprocal lattice vectors
     8.250148166  0.000000000  0.000000000     0.121209944  0.000000000  0.000000000
     0.000000000  8.250148166  0.000000000     0.000000000  0.121209944  0.000000000
     0.000000000  0.000000000  6.953274261     0.000000000  0.000000000  0.143817137

  length of vectors
     8.250148166  8.250148166  6.953274261     0.121209944  0.121209944  0.143817137


 FORCES acting on ions:
    Electron-Ion                     Ewald-Force                    Non-Local-Force
 -----------------------------------------------------------------------------------------------
   -.156E+00 0.178E+00 0.199E-01   -.239E-08 -.239E-08 0.411E-08   0.318E-01 -.101E+00 -.277E-01
   -.156E+00 0.178E+00 -.199E-01   -.239E-08 -.239E-08 0.411E-08   0.318E-01 -.101E+00 0.277E-01
   -.156E+00 -.178E+00 -.199E-01   -.239E-08 -.802E-09 0.411E-08   0.318E-01 0.101E+00 0.277E-01
   -.156E+00 -.178E+00 0.199E-01   -.239E-08 -.802E-09 0.411E-08   0.318E-01 0.101E+00 -.277E-01
   0.104E+00 -.328E-08 -.194E-08   -.239E-08 0.631E-08 0.411E-08   -.154E-01 -.867E-18 0.867E-18
   0.104E+00 -.329E-08 -.188E-08   -.239E-08 0.631E-08 0.411E-08   -.154E-01 0.867E-18 -.130E-17
   0.156E+00 0.178E+00 0.199E-01   -.802E-09 -.239E-08 0.411E-08   -.318E-01 -.101E+00 -.277E-01
   0.156E+00 0.178E+00 -.199E-01   -.802E-09 -.239E-08 0.411E-08   -.318E-01 -.101E+00 0.277E-01
   0.156E+00 -.178E+00 -.199E-01   -.802E-09 -.802E-09 0.411E-08   -.318E-01 0.101E+00 0.277E-01
   0.156E+00 -.178E+00 0.199E-01   -.802E-09 -.802E-09 0.411E-08   -.318E-01 0.101E+00 -.277E-01
   -.104E+00 -.328E-08 -.193E-08   -.802E-09 0.631E-08 0.411E-08   0.154E-01 0.867E-18 -.867E-18
   -.104E+00 -.329E-08 -.188E-08   -.802E-09 0.631E-08 0.411E-08   0.154E-01 -.867E-18 -.434E-18
   -.328E-08 0.131E+00 0.236E-01   0.631E-08 -.239E-08 0.411E-08   0.434E-18 -.152E+00 -.791E-01
   -.328E-08 0.131E+00 -.236E-01   0.631E-08 -.239E-08 0.411E-08   0.434E-18 -.152E+00 0.791E-01
   -.328E-08 -.131E+00 -.236E-01   0.631E-08 -.802E-09 0.411E-08   -.434E-18 0.152E+00 0.791E-01
   -.328E-08 -.131E+00 0.236E-01   0.631E-08 -.802E-09 0.411E-08   -.434E-18 0.152E+00 -.791E-01
   -.331E-08 -.328E-08 -.191E-08   0.631E-08 0.631E-08 0.411E-08   0.000E+00 0.000E+00 0.000E+00
   -.331E-08 -.328E-08 -.190E-08   0.631E-08 0.631E-08 0.411E-08   0.000E+00 0.000E+00 0.000E+00
   0.489E-08 0.198E+00 -.511E-08   -.169E-07 -.169E-07 -.411E-08   0.000E+00 -.135E+00 0.000E+00
   0.489E-08 -.198E+00 0.362E-09   -.169E-07 -.169E-07 -.411E-08   0.000E+00 0.135E+00 0.000E+00
   0.479E-08 0.619E+00 -.504E-08   -.169E-07 0.802E-09 -.411E-08   0.000E+00 -.293E+00 0.000E+00
   0.494E-08 0.523E+00 0.268E-09   -.169E-07 0.802E-09 -.411E-08   -.260E-17 -.316E+00 0.000E+00
   0.494E-08 -.523E+00 -.520E-08   -.169E-07 0.130E-07 -.411E-08   0.867E-18 0.316E+00 0.000E+00
   0.479E-08 -.619E+00 0.431E-09   -.169E-07 0.130E-07 -.411E-08   0.000E+00 0.293E+00 0.000E+00
   -.435E-02 0.216E+00 -.945E-09   0.802E-09 -.169E-07 -.411E-08   0.765E-01 -.214E-01 -.347E-17
   -.435E-02 -.216E+00 -.383E-08   0.802E-09 -.169E-07 -.411E-08   0.765E-01 0.214E-01 -.867E-18
   0.554E+00 -.481E+00 -.837E-09   0.802E-09 0.802E-09 -.411E-08   -.274E+00 0.260E+00 -.867E-18
   -.726E-01 -.100E+00 -.365E-08   0.802E-09 0.802E-09 -.411E-08   0.466E-01 0.160E+00 -.173E-17
   -.726E-01 0.100E+00 -.761E-09   0.802E-09 0.130E-07 -.411E-08   0.466E-01 -.160E+00 -.184E-17
   0.554E+00 0.481E+00 -.372E-08   0.802E-09 0.130E-07 -.411E-08   -.274E+00 -.260E+00 -.173E-17
   0.435E-02 0.216E+00 -.932E-09   0.130E-07 -.169E-07 -.411E-08   -.765E-01 -.214E-01 0.867E-18
   0.435E-02 -.216E+00 -.383E-08   0.130E-07 -.169E-07 -.411E-08   -.765E-01 0.214E-01 0.347E-17
   -.554E+00 -.481E+00 -.826E-09   0.130E-07 0.802E-09 -.411E-08   0.274E+00 0.260E+00 0.173E-17
   0.726E-01 -.100E+00 -.364E-08   0.130E-07 0.802E-09 -.411E-08   -.466E-01 0.160E+00 0.184E-17
   0.726E-01 0.100E+00 -.747E-09   0.130E-07 0.130E-07 -.411E-08   -.466E-01 -.160E+00 0.173E-17
   -.554E+00 0.481E+00 -.372E-08   0.130E-07 0.130E-07 -.411E-08   0.274E+00 -.260E+00 0.867E-18
 -----------------------------------------------------------------------------------------------
   -.267E-07 -.269E-07 -.783E-07   -.197E-14 0.275E-13 0.265E-14   0.555E-16 -.111E-15 0.000E+00
 
 
 POSITION                                       TOTAL-FORCE (eV/Angst)
 -----------------------------------------------------------------------------------
      0.00000      0.00000      0.00000        -0.126784      0.086655     -0.005524
      0.00000      0.00000      3.47664        -0.126784      0.086655      0.005524
      0.00000      2.75005      0.00000        -0.126784     -0.086655      0.005524
      0.00000      2.75005      3.47664        -0.126784     -0.086655     -0.005524
      0.00000      5.50010      0.00000         0.090550     -0.000000      0.000000
      0.00000      5.50010      3.47664         0.090550     -0.000000      0.000000
      2.75005      0.00000      0.00000         0.126784      0.086655     -0.005524
      2.75005      0.00000      3.47664         0.126784      0.086655      0.005524
      2.75005      2.75005      0.00000         0.126784     -0.086655      0.005524
      2.75005      2.75005      3.47664         0.126784     -0.086655     -0.005524
      2.75005      5.50010      0.00000        -0.090550     -0.000000      0.000000
      2.75005      5.50010      3.47664        -0.090550     -0.000000      0.000000
      5.50010      0.00000      0.00000        -0.000000     -0.007554     -0.048221
      5.50010      0.00000      3.47664        -0.000000     -0.007554      0.048221
      5.50010      2.75005      0.00000        -0.000000      0.007554      0.048221
      5.50010      2.75005      3.47664        -0.000000      0.007554     -0.048221
      5.50010      5.50010      0.00000        -0.000000     -0.000000      0.000000
      5.50010      5.50010      3.47664        -0.000000     -0.000000      0.000000
      1.37502      1.37502      1.73832        -0.000000      0.067780      0.000000
      1.37502      1.37502      5.21496        -0.000000     -0.067780      0.000000
      1.37502      4.12507      1.73832        -0.000000      0.341115      0.000000
      1.37502      4.12507      5.21496        -0.000000      0.212733      0.000000
      1.37502      6.87512      1.73832        -0.000000     -0.212733      0.000000
      1.37502      6.87512      5.21496        -0.000000     -0.341115      0.000000
      4.12507      1.37502      1.73832         0.072890      0.195380      0.000000
      4.12507      1.37502      5.21496         0.072890     -0.195380      0.000000
      4.12507      4.12507      1.73832         0.293834     -0.230429      0.000000
      4.12507      4.12507      5.21496        -0.024061      0.060141      0.000000
      4.12507      6.87512      1.73832        -0.024061     -0.060141      0.000000
      4.12507      6.87512      5.21496         0.293834      0.230429      0.000000
      6.87512      1.37502      1.73832        -0.072890      0.195380      0.000000
      6.87512      1.37502      5.21496        -0.072890     -0.195380      0.000000
      6.87512      4.12507      1.73832        -0.293834     -0.230429      0.000000
      6.87512      4.12507      5.21496         0.024061      0.060141      0.000000
      6.87512      6.87512      1.73832         0.024061     -0.060141      0.000000
      6.87512      6.87512      5.21496        -0.293834      0.230429      0.000000
 -----------------------------------------------------------------------------------
    total drift:                               -0.000000     -0.000000     -0.000000


--------------------------------------------------------------------------------------------------------



  FREE ENERGIE OF THE ION-ELECTRON SYSTEM (eV)
  ---------------------------------------------------
  free  energy   TOTEN  =      -236.05764149 eV

  energy  without entropy=     -236.10479494  energy(sigma->0) =     -236.07335931
 


--------------------------------------------------------------------------------------------------------


    POTLOK:  cpu time    1.6483: real time    1.6483


--------------------------------------------------------------------------------------------------------


     LOOP+:  cpu time  768.7800: real time  775.2621
    4ORBIT:  cpu time    0.0000: real time    0.0000
 


 total charge     
 
# of ion       s       p       d       tot
------------------------------------------
    1        0.405   0.430   0.000   0.834
    2        0.404   0.431   0.000   0.835
    3        0.405   0.431   0.000   0.835
    4        0.404   0.430   0.000   0.834
    5        0.405   0.428   0.000   0.833
    6        0.405   0.429   0.000   0.833
    7        0.405   0.431   0.000   0.835
    8        0.404   0.430   0.000   0.834
    9        0.405   0.430   0.000   0.834
   10        0.404   0.431   0.000   0.835
   11        0.405   0.428   0.000   0.833
   12        0.405   0.429   0.000   0.833
   13        0.406   0.425   0.000   0.831
   14        0.406   0.425   0.000   0.831
   15        0.406   0.425   0.000   0.831
   16        0.406   0.425   0.000   0.831
   17        0.405   0.426   0.000   0.831
   18        0.405   0.426   0.000   0.831
   19        0.331   0.356   5.132   5.820
   20        0.331   0.356   5.132   5.820
   21        0.335   0.349   5.141   5.825
   22        0.332   0.358   5.121   5.812
   23        0.332   0.358   5.121   5.812
   24        0.335   0.349   5.141   5.825
   25        0.331   0.355   5.122   5.808
   26        0.331   0.355   5.144   5.830
   27        0.338   0.353   5.131   5.821
   28        0.332   0.352   5.139   5.824
   29        0.333   0.353   5.142   5.827
   30        0.337   0.353   5.120   5.810
   31        0.331   0.355   5.144   5.830
   32        0.331   0.355   5.122   5.808
   33        0.337   0.353   5.120   5.810
   34        0.333   0.353   5.142   5.827
   35        0.332   0.352   5.139   5.824
   36        0.338   0.353   5.131   5.821
--------------------------------------------------
tot         13.287  14.075  92.385 119.748
 


 magnetization (x)
 
# of ion       s       p       d       tot
------------------------------------------
    1        0.005   0.009   0.000   0.014
    2        0.005   0.009   0.000   0.014
    3       -0.005  -0.008   0.000  -0.013
    4       -0.005  -0.010   0.000  -0.015
    5       -0.000   0.000   0.000   0.000
    6       -0.000  -0.000   0.000  -0.001
    7        0.005   0.008   0.000   0.013
    8        0.005   0.010   0.000   0.015
    9       -0.005  -0.009   0.000  -0.014
   10       -0.005  -0.009   0.000  -0.014
   11        0.000  -0.000   0.000  -0.000
   12        0.000   0.000   0.000   0.001
   13        0.007   0.018   0.000   0.025
   14        0.008   0.018   0.000   0.026
   15       -0.007  -0.018   0.000  -0.025
   16       -0.008  -0.018   0.000  -0.026
   17        0.000   0.000   0.000   0.000
   18        0.000   0.000   0.000   0.000
   19        0.019   0.025   2.147   2.190
   20       -0.019  -0.025  -2.147  -2.190
   21       -0.030  -0.020  -2.319  -2.369
   22        0.005   0.014   2.322   2.341
   23       -0.005  -0.014  -2.322  -2.341
   24        0.030   0.020   2.319   2.369
   25        0.012   0.005   2.275   2.292
   26       -0.012  -0.005  -2.263  -2.280
   27        0.027   0.019   2.462   2.508
   28        0.021   0.013   2.177   2.212
   29       -0.022  -0.013  -2.183  -2.217
   30       -0.027  -0.019  -2.469  -2.515
   31        0.012   0.005   2.263   2.280
   32       -0.012  -0.005  -2.275  -2.292
   33        0.027   0.019   2.469   2.515
   34        0.022   0.013   2.183   2.217
   35       -0.021  -0.013  -2.177  -2.212
   36       -0.027  -0.019  -2.462  -2.508
--------------------------------------------------
tot          0.000   0.000  -0.000  -0.000
 

 total amount of memory used by VASP MPI-rank0   533785. kBytes
=======================================================================

   base      :      30000. kBytes
   nonl-proj :      24164. kBytes
   fftplans  :      21726. kBytes
   grid      :      14732. kBytes
   one-center:        279. kBytes
   wavefun   :     442884. kBytes
 
  
  
 General timing and accounting informations for this job:
 ========================================================
  
                  Total CPU time used (sec):      787.572
                            User time (sec):      771.101
                          System time (sec):       16.471
                         Elapsed time (sec):      796.800
  
                   Maximum memory used (kb):      663008.
                   Average memory used (kb):           0.
  
                          Minor page faults:       420049
                          Major page faults:           17
                 Voluntary context switches:         3607
