 vasp.5.4.4.18Apr17-6-g9f103f2a35 (build Dec 20 2018 12:05:58) complex          
  
 executed on             LinuxIFC date 2019.06.20  23:09:43
 running on   32 total cores
 distrk:  each k-point on    8 cores,    4 groups
 distr:  one band on NCORES_PER_BAND=   4 cores,    2 groups


--------------------------------------------------------------------------------------------------------


 INCAR:
 POTCAR:    PAW_PBE Al 04Jan2001                  
 POTCAR:    PAW_PBE Mn 06Sep2000                  

 ----------------------------------------------------------------------------- 
|                                                                             |
|           W    W    AA    RRRRR   N    N  II  N    N   GGGG   !!!           |
|           W    W   A  A   R    R  NN   N  II  NN   N  G    G  !!!           |
|           W    W  A    A  R    R  N N  N  II  N N  N  G       !!!           |
|           W WW W  AAAAAA  RRRRR   N  N N  II  N  N N  G  GGG   !            |
|           WW  WW  A    A  R   R   N   NN  II  N   NN  G    G                |
|           W    W  A    A  R    R  N    N  II  N    N   GGGG   !!!           |
|                                                                             |
|      You have enabled k-point parallelism (KPAR>1).                         |
|      This developmental code was originally  written by Paul Kent at ORNL,  |
|      and carefully double checked in Vienna.                                |
|      GW as well as linear response parallelism added by Martijn Marsman     |
|      and Georg Kresse.                                                      |
|      Carefully verify results versus KPAR=1.                                |
|      Report problems to Paul Kent and Vienna.                               |
|                                                                             |
 ----------------------------------------------------------------------------- 

 POTCAR:    PAW_PBE Al 04Jan2001                  
   VRHFIN =Al: s2p1                                                             
   LEXCH  = PE                                                                  
   EATOM  =    53.5387 eV,    3.9350 Ry                                         
                                                                                
   TITEL  = PAW_PBE Al 04Jan2001                                                
   LULTRA =        F    use ultrasoft PP ?                                      
   IUNSCR =        1    unscreen: 0-lin 1-nonlin 2-no                           
   RPACOR =    1.500    partial core radius                                     
   POMASS =   26.981; ZVAL   =    3.000    mass and valenz                      
   RCORE  =    1.900    outmost cutoff radius                                   
   RWIGS  =    2.650; RWIGS  =    1.402    wigner-seitz radius (au A)           
   ENMAX  =  240.300; ENMIN  =  180.225 eV                                      
   ICORE  =        2    local potential                                         
   LCOR   =        T    correct aug charges                                     
   LPAW   =        T    paw PP                                                  
   EAUG   =  291.052                                                            
   DEXC   =    0.000                                                            
   RMAX   =    1.939    core radius for proj-oper                               
   RAUG   =    1.300    factor for augmentation sphere                          
   RDEP   =    1.966    radius for radial grids                                 
   RDEPT  =    1.856    core radius for aug-charge                              
                                                                                
   Atomic configuration                                                         
    6 entries                                                                   
     n  l   j            E        occ.                                          
     1  0  0.50     -1511.1048   2.0000                                         
     2  0  0.50      -108.1629   2.0000                                         
     2  1  1.50       -69.6402   6.0000                                         
     3  0  0.50        -7.7528   2.0000                                         
     3  1  1.50        -2.7121   1.0000                                         
     3  2  2.50        -2.7212   0.0000                                         
   Description                                                                  
     l       E           TYP  RCUT    TYP  RCUT                                 
     0     -7.7528455     23  1.900                                             
     0     -3.3096929     23  1.900                                             
     1     -2.7120682     23  1.900                                             
     1     13.6058260     23  1.900                                             
     2     -2.7211652      7  1.900                                             
  local pseudopotential read in
  partial core-charges read in
  partial kinetic energy density read in
  atomic valenz-charges read in
  non local Contribution for L=           0  read in
    real space projection operators read in
  non local Contribution for L=           0  read in
    real space projection operators read in
  non local Contribution for L=           1  read in
    real space projection operators read in
  non local Contribution for L=           1  read in
    real space projection operators read in
    PAW grid and wavefunctions read in
 
   number of l-projection  operators is LMAX  =           4
   number of lm-projection operators is LMMAX =           8
 
 POTCAR:    PAW_PBE Mn 06Sep2000                  
   VRHFIN =Mn: d6 s1                                                            
   LEXCH  = PE                                                                  
   EATOM  =   416.7541 eV,   30.6306 Ry                                         
                                                                                
   TITEL  = PAW_PBE Mn 06Sep2000                                                
   LULTRA =        F    use ultrasoft PP ?                                      
   IUNSCR =        1    unscreen: 0-lin 1-nonlin 2-no                           
   RPACOR =    2.000    partial core radius                                     
   POMASS =   54.938; ZVAL   =    7.000    mass and valenz                      
   RCORE  =    2.300    outmost cutoff radius                                   
   RWIGS  =    2.500; RWIGS  =    1.323    wigner-seitz radius (au A)           
   ENMAX  =  269.864; ENMIN  =  202.398 eV                                      
   RCLOC  =    1.725    cutoff for local pot                                    
   LCOR   =        T    correct aug charges                                     
   LPAW   =        T    paw PP                                                  
   EAUG   =  500.711                                                            
   DEXC   =    0.000                                                            
   RMAX   =    2.343    core radius for proj-oper                               
   RAUG   =    1.300    factor for augmentation sphere                          
   RDEP   =    2.338    radius for radial grids                                 
   RDEPT  =    1.911    core radius for aug-charge                              
                                                                                
   Atomic configuration                                                         
    9 entries                                                                   
     n  l   j            E        occ.                                          
     1  0  0.50     -6424.8288   2.0000                                         
     2  0  0.50      -739.1154   2.0000                                         
     2  1  1.50      -625.3949   6.0000                                         
     3  0  0.50       -81.6100   2.0000                                         
     3  1  1.50       -50.4667   6.0000                                         
     3  2  2.50        -3.3745   6.0000                                         
     4  0  0.50        -4.1331   1.0000                                         
     4  1  0.50        -4.0817   0.0000                                         
     4  3  2.50        -1.3606   0.0000                                         
   Description                                                                  
     l       E           TYP  RCUT    TYP  RCUT                                 
     2     -3.3744664     23  2.300                                             
     2     -4.7350490     23  2.300                                             
     0     -4.1331408     23  2.300                                             
     0      7.6656614     23  2.300                                             
     1     -2.7211652     23  2.300                                             
     1     20.4087390     23  2.300                                             
  local pseudopotential read in
  partial core-charges read in
  partial kinetic energy density read in
  atomic valenz-charges read in
  non local Contribution for L=           2  read in
    real space projection operators read in
  non local Contribution for L=           2  read in
    real space projection operators read in
  non local Contribution for L=           0  read in
    real space projection operators read in
  non local Contribution for L=           0  read in
    real space projection operators read in
  non local Contribution for L=           1  read in
    real space projection operators read in
  non local Contribution for L=           1  read in
    real space projection operators read in
    PAW grid and wavefunctions read in
 
   number of l-projection  operators is LMAX  =           6
   number of lm-projection operators is LMMAX =          18
 

 ----------------------------------------------------------------------------- 
|                                                                             |
|  ADVICE TO THIS USER RUNNING 'VASP/VAMP'   (HEAR YOUR MASTER'S VOICE ...):  |
|                                                                             |
|      You have a (more or less) 'large supercell' and for larger cells       |
|      it might be more efficient to use real space projection opertators     |
|      So try LREAL= Auto  in the INCAR   file.                               |
|      Mind:          For very  accurate calculation you might also keep the  |
|      reciprocal projection scheme          (i.e. LREAL=.FALSE.)             |
|                                                                             |
 ----------------------------------------------------------------------------- 

  PAW_PBE Al 04Jan2001                  :
 energy of atom  1       EATOM=  -53.5387
 kinetic energy error for atom=    0.0005 (will be added to EATOM!!)
  PAW_PBE Mn 06Sep2000                  :
 energy of atom  2       EATOM= -416.7541
 kinetic energy error for atom=    0.0080 (will be added to EATOM!!)
 
 
 POSCAR: NewRef: 27, @ ['Mn', array([1.37502469, 
  positions in cartesian coordinates
  velocities in cartesian coordinates
  No initial velocities read in
 exchange correlation table for  LEXCH =        8
   RHO(1)=    0.500       N(1)  =     2000
   RHO(2)=  100.500       N(2)  =     4000
 


--------------------------------------------------------------------------------------------------------


 ion  position               nearest neighbor table
   1  0.000  0.000  0.000-  28 2.61  30 2.61  34 2.61  36 2.61  46 2.61  48 2.61  52 2.61  54 2.61
                             4 2.75  10 2.75   7 2.75  19 2.75
   2  0.000  0.000  0.333-  28 2.61  34 2.61  46 2.61  52 2.61  29 2.61  47 2.61  35 2.61  53 2.61
                             5 2.75  11 2.75   8 2.75  20 2.75
   3  0.000  0.000  0.667-  29 2.61  35 2.61  47 2.61  53 2.61  30 2.61  48 2.61  36 2.61  54 2.61
                             6 2.75  12 2.75   9 2.75  21 2.75
   4  0.000  0.333  0.000-  28 2.61  30 2.61  46 2.61  48 2.61  31 2.61  33 2.61  49 2.61  51 2.61
                            13 2.75   1 2.75   7 2.75  22 2.75
   5  0.000  0.333  0.333-  28 2.61  46 2.61  31 2.61  49 2.61  47 2.61  29 2.61  32 2.61  50 2.61
                            14 2.75   2 2.75   8 2.75  23 2.75
   6  0.000  0.333  0.667-  29 2.61  47 2.61  32 2.61  50 2.61  48 2.61  30 2.61  33 2.61  51 2.61
                            15 2.75   3 2.75   9 2.75  24 2.75
   7  0.000  0.667  0.000-  31 2.61  33 2.61  49 2.61  51 2.61  34 2.61  36 2.61  52 2.61  54 2.61
                             4 2.75  16 2.75   1 2.75  25 2.75
   8  0.000  0.667  0.333-  31 2.61  49 2.61  34 2.61  52 2.61  50 2.61  32 2.61  35 2.61  53 2.61
                             5 2.75  17 2.75   2 2.75  26 2.75
   9  0.000  0.667  0.667-  32 2.61  50 2.61  35 2.61  53 2.61  51 2.61  33 2.61  36 2.61  54 2.61
                             6 2.75  18 2.75   3 2.75  27 2.75
  10  0.333  0.000  0.000-  28 2.61  30 2.61  34 2.61  36 2.61  37 2.61  39 2.61  43 2.61  45 2.61
                            19 2.75   1 2.75  13 2.75  16 2.75
  11  0.333  0.000  0.333-  28 2.61  34 2.61  37 2.61  43 2.61  29 2.61  35 2.61  38 2.61  44 2.61
                            20 2.75   2 2.75  14 2.75  17 2.75
  12  0.333  0.000  0.667-  29 2.61  35 2.61  38 2.61  44 2.61  30 2.61  36 2.61  39 2.61  45 2.61
                            21 2.75   3 2.75  15 2.75  18 2.75
  13  0.333  0.333  0.000-  28 2.61  30 2.61  31 2.61  33 2.61  37 2.61  39 2.61  40 2.61  42 2.61
                             4 2.75  10 2.75  16 2.75  22 2.75
  14  0.333  0.333  0.333-  28 2.61  31 2.61  37 2.61  29 2.61  40 2.61  38 2.61  32 2.61  41 2.61
                             5 2.75  11 2.75  17 2.75  23 2.75
  15  0.333  0.333  0.667-  29 2.61  32 2.61  38 2.61  30 2.61  41 2.61  39 2.61  33 2.61  42 2.61
                             6 2.75  12 2.75  18 2.75  24 2.75
  16  0.333  0.667  0.000-  31 2.61  33 2.61  34 2.61  36 2.61  40 2.61  42 2.61  43 2.61  45 2.61
                            25 2.75   7 2.75  13 2.75  10 2.75
  17  0.333  0.667  0.333-  31 2.61  34 2.61  40 2.61  32 2.61  43 2.61  41 2.61  35 2.61  44 2.61
                            26 2.75   8 2.75  14 2.75  11 2.75
  18  0.333  0.667  0.667-  32 2.61  35 2.61  41 2.61  33 2.61  44 2.61  42 2.61  36 2.61  45 2.61
                            27 2.75   9 2.75  15 2.75  12 2.75
  19  0.667  0.000  0.000-  37 2.61  39 2.61  43 2.61  45 2.61  46 2.61  48 2.61  52 2.61  54 2.61
                            10 2.75  22 2.75   1 2.75  25 2.75
  20  0.667  0.000  0.333-  37 2.61  43 2.61  46 2.61  52 2.61  38 2.61  44 2.61  47 2.61  53 2.61
                            11 2.75  23 2.75   2 2.75  26 2.75
  21  0.667  0.000  0.667-  38 2.61  44 2.61  47 2.61  53 2.61  39 2.61  45 2.61  48 2.61  54 2.61
                            12 2.75  24 2.75   3 2.75  27 2.75
  22  0.667  0.333  0.000-  37 2.61  39 2.61  40 2.61  42 2.61  46 2.61  48 2.61  49 2.61  51 2.61
                            25 2.75  13 2.75  19 2.75   4 2.75
  23  0.667  0.333  0.333-  37 2.61  40 2.61  46 2.61  38 2.61  49 2.61  47 2.61  41 2.61  50 2.61
                            26 2.75  14 2.75  20 2.75   5 2.75
  24  0.667  0.333  0.667-  38 2.61  41 2.61  47 2.61  39 2.61  50 2.61  48 2.61  42 2.61  51 2.61
                            27 2.75  15 2.75  21 2.75   6 2.75
  25  0.667  0.667  0.000-  40 2.61  42 2.61  43 2.61  45 2.61  49 2.61  51 2.61  52 2.61  54 2.61
                            16 2.75  22 2.75  19 2.75   7 2.75
  26  0.667  0.667  0.333-  40 2.61  43 2.61  49 2.61  41 2.61  52 2.61  50 2.61  44 2.61  53 2.61
                            17 2.75  23 2.75  20 2.75   8 2.75
  27  0.667  0.667  0.667-  41 2.61  44 2.61  50 2.61  42 2.61  53 2.61  51 2.61  45 2.61  54 2.61
                            18 2.75  24 2.75  21 2.75   9 2.75
  28  0.167  0.167  0.167-  14 2.61  11 2.61   5 2.61  13 2.61   2 2.61  10 2.61   4 2.61   1 2.61
                            31 2.75  37 2.75  34 2.75  46 2.75
  29  0.167  0.167  0.500-  15 2.61  12 2.61   6 2.61  14 2.61   3 2.61  11 2.61   5 2.61   2 2.61
                            32 2.75  38 2.75  35 2.75  47 2.75
  30  0.167  0.167  0.833-  13 2.61  15 2.61  10 2.61  12 2.61   4 2.61   6 2.61   1 2.61   3 2.61
                            33 2.75  39 2.75  36 2.75  48 2.75
  31  0.167  0.500  0.167-  17 2.61  14 2.61   8 2.61  16 2.61   5 2.61  13 2.61   7 2.61   4 2.61
                            28 2.75  34 2.75  40 2.75  49 2.75
  32  0.167  0.500  0.500-  18 2.61  15 2.61   9 2.61  17 2.61   6 2.61  14 2.61   8 2.61   5 2.61
                            29 2.75  35 2.75  41 2.75  50 2.75
  33  0.167  0.500  0.833-  16 2.61  18 2.61  13 2.61  15 2.61   7 2.61   9 2.61   4 2.61   6 2.61
                            30 2.75  36 2.75  42 2.75  51 2.75
  34  0.167  0.833  0.167-  11 2.61  17 2.61   2 2.61   8 2.61  16 2.61  10 2.61   7 2.61   1 2.61
                            31 2.75  43 2.75  28 2.75  52 2.75
  35  0.167  0.833  0.500-  12 2.61  18 2.61   3 2.61   9 2.61  17 2.61  11 2.61   8 2.61   2 2.61
                            32 2.75  44 2.75  29 2.75  53 2.75
  36  0.167  0.833  0.833-  10 2.61  12 2.61  16 2.61  18 2.61   1 2.61   3 2.61   7 2.61   9 2.61
                            33 2.75  45 2.75  30 2.75  54 2.75
  37  0.500  0.167  0.167-  23 2.61  20 2.61  14 2.61  22 2.61  11 2.61  19 2.61  13 2.61  10 2.61
                            28 2.75  40 2.75  46 2.75  43 2.75
  38  0.500  0.167  0.500-  24 2.61  21 2.61  15 2.61  23 2.61  12 2.61  20 2.61  14 2.61  11 2.61
                            29 2.75  41 2.75  47 2.75  44 2.75
  39  0.500  0.167  0.833-  22 2.61  24 2.61  19 2.61  21 2.61  13 2.61  15 2.61  10 2.61  12 2.61
                            30 2.75  42 2.75  48 2.75  45 2.75
  40  0.500  0.500  0.167-  26 2.61  23 2.61  17 2.61  25 2.61  14 2.61  22 2.61  16 2.61  13 2.61
                            31 2.75  37 2.75  43 2.75  49 2.75
  41  0.500  0.500  0.500-  27 2.61  24 2.61  18 2.61  26 2.61  15 2.61  23 2.61  17 2.61  14 2.61
                            32 2.75  38 2.75  44 2.75  50 2.75
  42  0.500  0.500  0.833-  25 2.61  27 2.61  22 2.61  24 2.61  16 2.61  18 2.61  13 2.61  15 2.61
                            33 2.75  39 2.75  45 2.75  51 2.75
  43  0.500  0.833  0.167-  20 2.61  26 2.61  11 2.61  17 2.61  25 2.61  19 2.61  16 2.61  10 2.61
                            34 2.75  40 2.75  52 2.75  37 2.75
  44  0.500  0.833  0.500-  21 2.61  27 2.61  12 2.61  18 2.61  26 2.61  20 2.61  17 2.61  11 2.61
                            35 2.75  41 2.75  53 2.75  38 2.75
  45  0.500  0.833  0.833-  19 2.61  21 2.61  25 2.61  27 2.61  10 2.61  12 2.61  16 2.61  18 2.61
                            36 2.75  42 2.75  54 2.75  39 2.75
  46  0.833  0.167  0.167-   5 2.61  23 2.61  20 2.61   2 2.61  22 2.61   4 2.61  19 2.61   1 2.61
                            37 2.75  49 2.75  28 2.75  52 2.75
  47  0.833  0.167  0.500-   6 2.61  24 2.61  21 2.61   3 2.61  23 2.61   5 2.61  20 2.61   2 2.61
                            38 2.75  50 2.75  29 2.75  53 2.75
  48  0.833  0.167  0.833-   4 2.61   6 2.61  22 2.61  24 2.61  19 2.61  21 2.61   1 2.61   3 2.61
                            39 2.75  51 2.75  30 2.75  54 2.75
  49  0.833  0.500  0.167-   8 2.61  26 2.61  23 2.61   5 2.61  25 2.61   7 2.61  22 2.61   4 2.61
                            40 2.75  46 2.75  52 2.75  31 2.75
  50  0.833  0.500  0.500-   9 2.61  27 2.61  24 2.61   6 2.61  26 2.61   8 2.61  23 2.61   5 2.61
                            41 2.75  47 2.75  53 2.75  32 2.75
  51  0.833  0.500  0.833-   7 2.61   9 2.61  25 2.61  27 2.61  22 2.61  24 2.61   4 2.61   6 2.61
                            42 2.75  48 2.75  54 2.75  33 2.75
  52  0.833  0.833  0.167-   2 2.61   8 2.61  20 2.61  26 2.61  19 2.61   7 2.61  25 2.61   1 2.61
                            43 2.75  49 2.75  46 2.75  34 2.75
  53  0.833  0.833  0.500-   3 2.61   9 2.61  21 2.61  27 2.61  20 2.61   8 2.61  26 2.61   2 2.61
                            44 2.75  50 2.75  47 2.75  35 2.75
  54  0.833  0.833  0.833-   1 2.61   3 2.61   7 2.61   9 2.61  19 2.61  21 2.61  25 2.61  27 2.61
                            45 2.75  51 2.75  48 2.75  36 2.75
 
  LATTYP: Found a simple tetragonal cell.
 ALAT       =     8.2501481662
 C/A-ratio  =     1.2642089792
  
  Lattice vectors:
  
 A1 = (   8.2501481662,   0.0000000000,   0.0000000000)
 A2 = (   0.0000000000,   8.2501481662,   0.0000000000)
 A3 = (   0.0000000000,   0.0000000000,  10.4299113916)


Analysis of symmetry for initial positions (statically):
=====================================================================
 Subroutine PRICEL returns following result:
 
  LATTYP: Found a simple tetragonal cell.
 ALAT       =     2.7500493888
 C/A-ratio  =     1.2642089792
  
  Lattice vectors:
  
 A1 = (   2.7500493888,   0.0000000000,   0.0000000000)
 A2 = (   0.0000000000,   2.7500493888,   0.0000000000)
 A3 = (   0.0000000000,   0.0000000000,   3.4766371306)
 
  27 primitive cells build up your supercell.
 

 Routine SETGRP: Setting up the symmetry group for a 
 simple tetragonal supercell.


 Subroutine GETGRP returns: Found 16 space group operations
 (whereof 16 operations were pure point group operations)
 out of a pool of 16 trial point group operations.


The static configuration has the point symmetry D_4h.


Analysis of symmetry for dynamics (positions and initial velocities):
=====================================================================
 Subroutine PRICEL returns following result:
 
  LATTYP: Found a simple tetragonal cell.
 ALAT       =     2.7500493888
 C/A-ratio  =     1.2642089792
  
  Lattice vectors:
  
 A1 = (   2.7500493888,   0.0000000000,   0.0000000000)
 A2 = (   0.0000000000,   2.7500493888,   0.0000000000)
 A3 = (   0.0000000000,   0.0000000000,   3.4766371306)
 
  27 primitive cells build up your supercell.
 

 Routine SETGRP: Setting up the symmetry group for a 
 simple tetragonal supercell.


 Subroutine GETGRP returns: Found 16 space group operations
 (whereof 16 operations were pure point group operations)
 out of a pool of 16 trial point group operations.


The dynamic configuration has the point symmetry D_4h.


Analysis of structural, dynamic, and magnetic symmetry:
=====================================================================
 Subroutine PRICEL returns:
 Original cell was already a primitive cell.
 

 Routine SETGRP: Setting up the symmetry group for a 
 simple tetragonal supercell.


 Subroutine GETGRP returns: Found  8 space group operations
 (whereof  1 operations were pure point group operations)
 out of a pool of 16 trial point group operations.


The magnetic configuration has the point symmetry C_1 .
 The point group associated with its full space group is D_2h.


 Subroutine INISYM returns: Found  8 space group operations
 (whereof  1 operations are pure point group operations),
 and found     1 'primitive' translations

 
 
 KPOINTS: automatic KPOINTS                       

Automatic generation of k-mesh.
 generate k-points for:    5    5    4
Space group operators:
 irot       det(A)        alpha          n_x          n_y          n_z        tau_x        tau_y        tau_z
    1     1.000000     0.000001     1.000000     0.000000     0.000000     0.000000     0.000000     0.000000
    2    -1.000000     0.000001     1.000000     0.000000     0.000000     0.333333     0.666667     0.666667
    3     1.000000   180.000000     0.000000     0.000000     1.000000     0.333333     0.666667     0.000000
    4    -1.000000   180.000000     0.000000     0.000000     1.000000     0.000000     0.000000     0.666667
    5     1.000000   180.000000     0.000000     1.000000     0.000000     0.333333     0.000000     0.666667
    6    -1.000000   180.000000     0.000000     1.000000     0.000000     0.000000     0.666667     0.000000
    7     1.000000   180.000000     1.000000     0.000000     0.000000     0.000000     0.666667     0.666667
    8    -1.000000   180.000000     1.000000     0.000000     0.000000     0.333333     0.000000     0.000000
 
 Subroutine IBZKPT returns following result:
 ===========================================
 
 Found     27 irreducible k-points:
 
 Following reciprocal coordinates:
            Coordinates               Weight
  0.000000  0.000000  0.000000      1.000000
  0.200000  0.000000  0.000000      2.000000
  0.400000  0.000000  0.000000      2.000000
  0.000000  0.200000  0.000000      2.000000
  0.200000  0.200000  0.000000      4.000000
  0.400000  0.200000  0.000000      4.000000
  0.000000  0.400000  0.000000      2.000000
  0.200000  0.400000  0.000000      4.000000
  0.400000  0.400000  0.000000      4.000000
  0.000000  0.000000  0.250000      2.000000
  0.200000  0.000000  0.250000      4.000000
  0.400000  0.000000  0.250000      4.000000
  0.000000  0.200000  0.250000      4.000000
  0.200000  0.200000  0.250000      8.000000
  0.400000  0.200000  0.250000      8.000000
  0.000000  0.400000  0.250000      4.000000
  0.200000  0.400000  0.250000      8.000000
  0.400000  0.400000  0.250000      8.000000
  0.000000  0.000000  0.500000      1.000000
  0.200000  0.000000  0.500000      2.000000
  0.400000  0.000000  0.500000      2.000000
  0.000000  0.200000  0.500000      2.000000
  0.200000  0.200000  0.500000      4.000000
  0.400000  0.200000  0.500000      4.000000
  0.000000  0.400000  0.500000      2.000000
  0.200000  0.400000  0.500000      4.000000
  0.400000  0.400000  0.500000      4.000000
 
 Following cartesian coordinates:
            Coordinates               Weight
  0.000000  0.000000  0.000000      1.000000
  0.024242  0.000000  0.000000      2.000000
  0.048484  0.000000  0.000000      2.000000
  0.000000  0.024242  0.000000      2.000000
  0.024242  0.024242  0.000000      4.000000
  0.048484  0.024242  0.000000      4.000000
  0.000000  0.048484  0.000000      2.000000
  0.024242  0.048484  0.000000      4.000000
  0.048484  0.048484  0.000000      4.000000
  0.000000  0.000000  0.023970      2.000000
  0.024242  0.000000  0.023970      4.000000
  0.048484  0.000000  0.023970      4.000000
  0.000000  0.024242  0.023970      4.000000
  0.024242  0.024242  0.023970      8.000000
  0.048484  0.024242  0.023970      8.000000
  0.000000  0.048484  0.023970      4.000000
  0.024242  0.048484  0.023970      8.000000
  0.048484  0.048484  0.023970      8.000000
  0.000000  0.000000  0.047939      1.000000
  0.024242  0.000000  0.047939      2.000000
  0.048484  0.000000  0.047939      2.000000
  0.000000  0.024242  0.047939      2.000000
  0.024242  0.024242  0.047939      4.000000
  0.048484  0.024242  0.047939      4.000000
  0.000000  0.048484  0.047939      2.000000
  0.024242  0.048484  0.047939      4.000000
  0.048484  0.048484  0.047939      4.000000
 


--------------------------------------------------------------------------------------------------------




 Dimension of arrays:
   k-points           NKPTS =     27   k-points in BZ     NKDIM =     27   number of bands    NBANDS=    184
   number of dos      NEDOS =    301   number of ions     NIONS =     54
   non local maximal  LDIM  =      6   non local SUM 2l+1 LMDIM =     18
   total plane-waves  NPLWV = 204120
   max r-space proj   IRMAX =      1   max aug-charges    IRDMAX=  89713
   dimension x,y,z NGX =    54 NGY =   54 NGZ =   70
   dimension x,y,z NGXF=   108 NGYF=  108 NGZF=  140
   support grid    NGXF=   216 NGYF=  216 NGZF=  280
   ions per type =              27  27
   NGX,Y,Z   is equivalent  to a cutoff of  10.88, 10.88, 11.16 a.u.
   NGXF,Y,Z  is equivalent  to a cutoff of  21.76, 21.76, 22.32 a.u.

 SYSTEM =  AlMn_pv                                 
 POSCAR =  NewRef: 27, @ ['Mn', array([1.37502469, 

 Startparameter for this run:
   NWRITE =      2    write-flag & timer
   PREC   = accura    normal or accurate (medium, high low for compatibility)
   ISTART =      0    job   : 0-new  1-cont  2-samecut
   ICHARG =      2    charge: 1-file 2-atom 10-const
   ISPIN  =      2    spin polarized calculation?
   LNONCOLLINEAR =      F non collinear calculations
   LSORBIT =      F    spin-orbit coupling
   INIWAV =      1    electr: 0-lowe 1-rand  2-diag
   LASPH  =      F    aspherical Exc in radial PAW
   METAGGA=      F    non-selfconsistent MetaGGA calc.

 Electronic Relaxation 1
   ENCUT  =  404.8 eV  29.75 Ry    5.45 a.u.  13.53 13.53 17.11*2*pi/ulx,y,z
   ENINI  =  404.8     initial cutoff
   ENAUG  =  500.7 eV  augmentation charge cutoff
   NELM   =    100;   NELMIN=  4; NELMDL= -8     # of ELM steps 
   EDIFF  = 0.1E-06   stopping-criterion for ELM
   LREAL  =      F    real-space projection
   NLSPLINE    = F    spline interpolate recip. space projectors
   LCOMPAT=      F    compatible to vasp.4.4
   GGA_COMPAT  = T    GGA compatible to vasp.4.4-vasp.4.6
   LMAXPAW     = -100 max onsite density
   LMAXMIX     =    2 max onsite mixed and CHGCAR
   VOSKOWN=      0    Vosko Wilk Nusair interpolation
   ROPT   =    0.00000   0.00000
 Ionic relaxation
   EDIFFG = 0.1E-05   stopping-criterion for IOM
   NSW    =      0    number of steps for IOM
   NBLOCK =      1;   KBLOCK =      1    inner block; outer block 
   IBRION =     -1    ionic relax: 0-MD 1-quasi-New 2-CG
   NFREE  =      0    steps in history (QN), initial steepest desc. (CG)
   ISIF   =      2    stress and relaxation
   IWAVPR =     10    prediction:  0-non 1-charg 2-wave 3-comb
   ISYM   =      2    0-nonsym 1-usesym 2-fastsym
   LCORR  =      T    Harris-Foulkes like correction to forces

   POTIM  = 0.2000    time-step for ionic-motion
   TEIN   =    0.0    initial temperature
   TEBEG  =    0.0;   TEEND  =   0.0 temperature during run
   SMASS  =  -3.00    Nose mass-parameter (am)
   estimated Nose-frequenzy (Omega)   =  0.10E-29 period in steps =****** mass=  -0.156E-26a.u.
   SCALEE = 1.0000    scale energy and forces
   NPACO  =    256;   APACO  = 16.0  distance and # of slots for P.C.
   PSTRESS=    0.0 pullay stress

  Mass of Ions in am
   POMASS =  26.98 54.94
  Ionic Valenz
   ZVAL   =   3.00  7.00
  Atomic Wigner-Seitz radii
   RWIGS  =  -1.00 -1.00
  virtual crystal weights 
   VCA    =   1.00  1.00
   NELECT =     270.0000    total number of electrons
   NUPDOWN=      -1.0000    fix difference up-down

 DOS related values:
   EMIN   =  10.00;   EMAX   =-10.00  energy-range for DOS
   EFERMI =   0.00
   ISMEAR =     1;   SIGMA  =   0.20  broadening in eV -4-tet -1-fermi 0-gaus

 Electronic relaxation 2 (details)
   IALGO  =     58    algorithm
   LDIAG  =      T    sub-space diagonalisation (order eigenvalues)
   LSUBROT=      F    optimize rotation matrix (better conditioning)
   TURBO    =      0    0=normal 1=particle mesh
   IRESTART =      0    0=no restart 2=restart with 2 vectors
   NREBOOT  =      0    no. of reboots
   NMIN     =      0    reboot dimension
   EREF     =   0.00    reference energy to select bands
   IMIX   =      4    mixing-type and parameters
     AMIX     =   0.40;   BMIX     =  1.00
     AMIX_MAG =   1.60;   BMIX_MAG =  1.00
     AMIN     =   0.10
     WC   =   100.;   INIMIX=   1;  MIXPRE=   1;  MAXMIX= -45

 Intra band minimization:
   WEIMIN = 0.0000     energy-eigenvalue tresh-hold
   EBREAK =  0.14E-09  absolut break condition
   DEPER  =   0.30     relativ break condition  

   TIME   =   0.40     timestep for ELM

  volume/ion in A,a.u.               =      13.15        88.72
  Fermi-wavevector in a.u.,A,eV,Ry     =   1.186118  2.241439 19.141722  1.406877
  Thomas-Fermi vector in A             =   2.322298
 
 Write flags
   LWAVE        =      F    write WAVECAR
   LDOWNSAMPLE  =      F    k-point downsampling of WAVECAR
   LCHARG       =      F    write CHGCAR
   LVTOT        =      F    write LOCPOT, total local potential
   LVHAR        =      F    write LOCPOT, Hartree potential only
   LELF         =      F    write electronic localiz. function (ELF)
   LORBIT       =     10    0 simple, 1 ext, 2 COOP (PROOUT), +10 PAW based schemes


 Dipole corrections
   LMONO  =      F    monopole corrections only (constant potential shift)
   LDIPOL =      F    correct potential (dipole corrections)
   IDIPOL =      0    1-x, 2-y, 3-z, 4-all directions 
   EPSILON=  1.0000000 bulk dielectric constant

 Exchange correlation treatment:
   GGA     =    --    GGA type
   LEXCH   =     8    internal setting for exchange type
   VOSKOWN=      0    Vosko Wilk Nusair interpolation
   LHFCALC =     F    Hartree Fock is set to
   LHFONE  =     F    Hartree Fock one center treatment
   AEXX    =    0.0000 exact exchange contribution

 Linear response parameters
   LEPSILON=     F    determine dielectric tensor
   LRPA    =     F    only Hartree local field effects (RPA)
   LNABLA  =     F    use nabla operator in PAW spheres
   LVEL    =     F    velocity operator in full k-point grid
   LINTERFAST=   F  fast interpolation
   KINTER  =     0    interpolate to denser k-point grid
   CSHIFT  =0.1000    complex shift for real part using Kramers Kronig
   OMEGAMAX=  -1.0    maximum frequency
   DEG_THRESHOLD= 0.2000000E-02 threshold for treating states as degnerate
   RTIME   =   -0.100 relaxation time in fs
  (WPLASMAI=    0.000 imaginary part of plasma frequency in eV, 0.658/RTIME)
   DFIELD  = 0.0000000 0.0000000 0.0000000 field for delta impulse in time
 
 Orbital magnetization related:
   ORBITALMAG=     F  switch on orbital magnetization
   LCHIMAG   =     F  perturbation theory with respect to B field
   DQ        =  0.001000  dq finite difference perturbation B field
   LLRAUG    =     F  two centre corrections for induced B field



--------------------------------------------------------------------------------------------------------


 Static calculation
 charge density and potential will be updated during run
 spin polarized calculation
 Conjugate gradient for all bands (Freysoldt, et al. PRB 79, 241103 (2009))
 preconditioned conjugated gradient                                        
 perform sub-space diagonalisation
    before iterative eigenvector-optimisation
 modified Broyden-mixing scheme, WC =      100.0
 initial mixing is a Kerker type mixing with AMIX =  0.4000 and BMIX =      1.0000
 Hartree-type preconditioning will be used
 using additional bands           49
 reciprocal scheme for non local part
 use partial core corrections
 no Harris-corrections to forces 
 use gradient corrections 
 use of overlap-Matrix (Vanderbilt PP)
 Methfessel and Paxton  Order N= 1 SIGMA  =   0.20


--------------------------------------------------------------------------------------------------------


  energy-cutoff  :      404.80
  volume of cell :      709.91
      direct lattice vectors                 reciprocal lattice vectors
     8.250148166  0.000000000  0.000000000     0.121209944  0.000000000  0.000000000
     0.000000000  8.250148166  0.000000000     0.000000000  0.121209944  0.000000000
     0.000000000  0.000000000 10.429911392     0.000000000  0.000000000  0.095878092

  length of vectors
     8.250148166  8.250148166 10.429911392     0.121209944  0.121209944  0.095878092


 
 k-points in units of 2pi/SCALE and weight: automatic KPOINTS                       
   0.00000000  0.00000000  0.00000000       0.010
   0.02424199  0.00000000  0.00000000       0.020
   0.04848398  0.00000000  0.00000000       0.020
   0.00000000  0.02424199  0.00000000       0.020
   0.02424199  0.02424199  0.00000000       0.040
   0.04848398  0.02424199  0.00000000       0.040
   0.00000000  0.04848398  0.00000000       0.020
   0.02424199  0.04848398  0.00000000       0.040
   0.04848398  0.04848398  0.00000000       0.040
   0.00000000  0.00000000  0.02396952       0.020
   0.02424199  0.00000000  0.02396952       0.040
   0.04848398  0.00000000  0.02396952       0.040
   0.00000000  0.02424199  0.02396952       0.040
   0.02424199  0.02424199  0.02396952       0.080
   0.04848398  0.02424199  0.02396952       0.080
   0.00000000  0.04848398  0.02396952       0.040
   0.02424199  0.04848398  0.02396952       0.080
   0.04848398  0.04848398  0.02396952       0.080
   0.00000000  0.00000000  0.04793905       0.010
   0.02424199  0.00000000  0.04793905       0.020
   0.04848398  0.00000000  0.04793905       0.020
   0.00000000  0.02424199  0.04793905       0.020
   0.02424199  0.02424199  0.04793905       0.040
   0.04848398  0.02424199  0.04793905       0.040
   0.00000000  0.04848398  0.04793905       0.020
   0.02424199  0.04848398  0.04793905       0.040
   0.04848398  0.04848398  0.04793905       0.040
 
 k-points in reciprocal lattice and weights: automatic KPOINTS                       
   0.00000000  0.00000000  0.00000000       0.010
   0.20000000  0.00000000  0.00000000       0.020
   0.40000000  0.00000000  0.00000000       0.020
   0.00000000  0.20000000  0.00000000       0.020
   0.20000000  0.20000000  0.00000000       0.040
   0.40000000  0.20000000  0.00000000       0.040
   0.00000000  0.40000000  0.00000000       0.020
   0.20000000  0.40000000  0.00000000       0.040
   0.40000000  0.40000000  0.00000000       0.040
   0.00000000  0.00000000  0.25000000       0.020
   0.20000000  0.00000000  0.25000000       0.040
   0.40000000  0.00000000  0.25000000       0.040
   0.00000000  0.20000000  0.25000000       0.040
   0.20000000  0.20000000  0.25000000       0.080
   0.40000000  0.20000000  0.25000000       0.080
   0.00000000  0.40000000  0.25000000       0.040
   0.20000000  0.40000000  0.25000000       0.080
   0.40000000  0.40000000  0.25000000       0.080
   0.00000000  0.00000000  0.50000000       0.010
   0.20000000  0.00000000  0.50000000       0.020
   0.40000000  0.00000000  0.50000000       0.020
   0.00000000  0.20000000  0.50000000       0.020
   0.20000000  0.20000000  0.50000000       0.040
   0.40000000  0.20000000  0.50000000       0.040
   0.00000000  0.40000000  0.50000000       0.020
   0.20000000  0.40000000  0.50000000       0.040
   0.40000000  0.40000000  0.50000000       0.040
 
 position of ions in fractional coordinates (direct lattice) 
   0.00000000  0.00000000  0.00000000
   0.00000000  0.00000000  0.33333333
   0.00000000  0.00000000  0.66666667
   0.00000000  0.33333333  0.00000000
   0.00000000  0.33333333  0.33333333
   0.00000000  0.33333333  0.66666667
   0.00000000  0.66666667  0.00000000
   0.00000000  0.66666667  0.33333333
   0.00000000  0.66666667  0.66666667
   0.33333333  0.00000000  0.00000000
   0.33333333  0.00000000  0.33333333
   0.33333333  0.00000000  0.66666667
   0.33333333  0.33333333  0.00000000
   0.33333333  0.33333333  0.33333333
   0.33333333  0.33333333  0.66666667
   0.33333333  0.66666667  0.00000000
   0.33333333  0.66666667  0.33333333
   0.33333333  0.66666667  0.66666667
   0.66666667  0.00000000  0.00000000
   0.66666667  0.00000000  0.33333333
   0.66666667  0.00000000  0.66666667
   0.66666667  0.33333333  0.00000000
   0.66666667  0.33333333  0.33333333
   0.66666667  0.33333333  0.66666667
   0.66666667  0.66666667  0.00000000
   0.66666667  0.66666667  0.33333333
   0.66666667  0.66666667  0.66666667
   0.16666667  0.16666667  0.16666667
   0.16666667  0.16666667  0.50000000
   0.16666667  0.16666667  0.83333333
   0.16666667  0.50000000  0.16666667
   0.16666667  0.50000000  0.50000000
   0.16666667  0.50000000  0.83333333
   0.16666667  0.83333333  0.16666667
   0.16666667  0.83333333  0.50000000
   0.16666667  0.83333333  0.83333333
   0.50000000  0.16666667  0.16666667
   0.50000000  0.16666667  0.50000000
   0.50000000  0.16666667  0.83333333
   0.50000000  0.50000000  0.16666667
   0.50000000  0.50000000  0.50000000
   0.50000000  0.50000000  0.83333333
   0.50000000  0.83333333  0.16666667
   0.50000000  0.83333333  0.50000000
   0.50000000  0.83333333  0.83333333
   0.83333333  0.16666667  0.16666667
   0.83333333  0.16666667  0.50000000
   0.83333333  0.16666667  0.83333333
   0.83333333  0.50000000  0.16666667
   0.83333333  0.50000000  0.50000000
   0.83333333  0.50000000  0.83333333
   0.83333333  0.83333333  0.16666667
   0.83333333  0.83333333  0.50000000
   0.83333333  0.83333333  0.83333333
 
 position of ions in cartesian coordinates  (Angst):
   0.00000000  0.00000000  0.00000000
   0.00000000  0.00000000  3.47663713
   0.00000000  0.00000000  6.95327426
   0.00000000  2.75004939  0.00000000
   0.00000000  2.75004939  3.47663713
   0.00000000  2.75004939  6.95327426
   0.00000000  5.50009878  0.00000000
   0.00000000  5.50009878  3.47663713
   0.00000000  5.50009878  6.95327426
   2.75004939  0.00000000  0.00000000
   2.75004939  0.00000000  3.47663713
   2.75004939  0.00000000  6.95327426
   2.75004939  2.75004939  0.00000000
   2.75004939  2.75004939  3.47663713
   2.75004939  2.75004939  6.95327426
   2.75004939  5.50009878  0.00000000
   2.75004939  5.50009878  3.47663713
   2.75004939  5.50009878  6.95327426
   5.50009878  0.00000000  0.00000000
   5.50009878  0.00000000  3.47663713
   5.50009878  0.00000000  6.95327426
   5.50009878  2.75004939  0.00000000
   5.50009878  2.75004939  3.47663713
   5.50009878  2.75004939  6.95327426
   5.50009878  5.50009878  0.00000000
   5.50009878  5.50009878  3.47663713
   5.50009878  5.50009878  6.95327426
   1.37502469  1.37502469  1.73831857
   1.37502469  1.37502469  5.21495570
   1.37502469  1.37502469  8.69159283
   1.37502469  4.12507408  1.73831857
   1.37502469  4.12507408  5.21495570
   1.37502469  4.12507408  8.69159283
   1.37502469  6.87512347  1.73831857
   1.37502469  6.87512347  5.21495570
   1.37502469  6.87512347  8.69159283
   4.12507408  1.37502469  1.73831857
   4.12507408  1.37502469  5.21495570
   4.12507408  1.37502469  8.69159283
   4.12507408  4.12507408  1.73831857
   4.12507408  4.12507408  5.21495570
   4.12507408  4.12507408  8.69159283
   4.12507408  6.87512347  1.73831857
   4.12507408  6.87512347  5.21495570
   4.12507408  6.87512347  8.69159283
   6.87512347  1.37502469  1.73831857
   6.87512347  1.37502469  5.21495570
   6.87512347  1.37502469  8.69159283
   6.87512347  4.12507408  1.73831857
   6.87512347  4.12507408  5.21495570
   6.87512347  4.12507408  8.69159283
   6.87512347  6.87512347  1.73831857
   6.87512347  6.87512347  5.21495570
   6.87512347  6.87512347  8.69159283
 


--------------------------------------------------------------------------------------------------------


 k-point  1 :   0.0000 0.0000 0.0000  plane waves:   13099
 k-point  2 :   0.2000 0.0000 0.0000  plane waves:   13101
 k-point  3 :   0.4000 0.0000 0.0000  plane waves:   13111
 k-point  4 :   0.0000 0.2000 0.0000  plane waves:   13101
 k-point  5 :   0.2000 0.2000 0.0000  plane waves:   13137
 k-point  6 :   0.4000 0.2000 0.0000  plane waves:   13119
 k-point  7 :   0.0000 0.4000 0.0000  plane waves:   13111
 k-point  8 :   0.2000 0.4000 0.0000  plane waves:   13119
 k-point  9 :   0.4000 0.4000 0.0000  plane waves:   13129
 k-point 10 :   0.0000 0.0000 0.2500  plane waves:   13134
 k-point 11 :   0.2000 0.0000 0.2500  plane waves:   13149
 k-point 12 :   0.4000 0.0000 0.2500  plane waves:   13119
 k-point 13 :   0.0000 0.2000 0.2500  plane waves:   13149
 k-point 14 :   0.2000 0.2000 0.2500  plane waves:   13145
 k-point 15 :   0.4000 0.2000 0.2500  plane waves:   13134
 k-point 16 :   0.0000 0.4000 0.2500  plane waves:   13119
 k-point 17 :   0.2000 0.4000 0.2500  plane waves:   13134
 k-point 18 :   0.4000 0.4000 0.2500  plane waves:   13108
 k-point 19 :   0.0000 0.0000 0.5000  plane waves:   13186
 k-point 20 :   0.2000 0.0000 0.5000  plane waves:   13124
 k-point 21 :   0.4000 0.0000 0.5000  plane waves:   13152
 k-point 22 :   0.0000 0.2000 0.5000  plane waves:   13124
 k-point 23 :   0.2000 0.2000 0.5000  plane waves:   13136
 k-point 24 :   0.4000 0.2000 0.5000  plane waves:   13128
 k-point 25 :   0.0000 0.4000 0.5000  plane waves:   13152
 k-point 26 :   0.2000 0.4000 0.5000  plane waves:   13128
 k-point 27 :   0.4000 0.4000 0.5000  plane waves:   13112

 maximum and minimum number of plane-waves per node :      3304     3246

 maximum number of plane-waves:     13186
 maximum index in each direction: 
   IXMAX=   13   IYMAX=   13   IZMAX=   17
   IXMIN=  -13   IYMIN=  -13   IZMIN=  -17


 parallel 3D FFT for wavefunctions:
    minimum data exchange during FFTs selected (reduces bandwidth)
 parallel 3D FFT for charge:
    minimum data exchange during FFTs selected (reduces bandwidth)


 total amount of memory used by VASP MPI-rank0   941748. kBytes
=======================================================================

   base      :      30000. kBytes
   nonl-proj :      28494. kBytes
   fftplans  :      31580. kBytes
   grid      :      21385. kBytes
   one-center:        435. kBytes
   wavefun   :     829854. kBytes
 
     INWAV:  cpu time    0.0000: real time    0.0000
 Broyden mixing: mesh for mixing (old mesh)
   NGX = 27   NGY = 27   NGZ = 35
  (NGX  =108   NGY  =108   NGZ  =140)
  gives a total of  25515 points

 initial charge density was supplied:
 charge density of overlapping atoms calculated
 number of electron     270.0000000 magnetization      39.0000000
 keeping initial charge density in first step


--------------------------------------------------------------------------------------------------------


 Maximum index for augmentation-charges        10967 (set IRDMAX)


--------------------------------------------------------------------------------------------------------


 First call to EWALD:  gamma=   0.199
 Maximum number of real-space cells 3x 3x 2
 Maximum number of reciprocal cells 3x 3x 3

    FEWALD:  cpu time    0.0107: real time    0.0107


--------------------------------------- Iteration      1(   1)  ---------------------------------------


    POTLOK:  cpu time    0.3964: real time    0.3965
    SETDIJ:  cpu time    0.4386: real time    0.4698
    TRIAL :  cpu time   33.5001: real time   33.8698
    CORREC:  cpu time    0.0058: real time    0.0067
    --------------------------------------------
      LOOP:  cpu time   34.6250: real time   35.0339

 eigenvalue-minimisations  : 19872
 total energy-change (2. order) : 0.2019152E+04  (-0.8977541E+04)
 number of electron     270.0000000 magnetization      39.0000000
 augmentation part      270.0000000 magnetization      39.0000000

 Free energy of the ion-electron system (eV)
  ---------------------------------------------------
  alpha Z        PSCENC =       798.38614055
  Ewald energy   TEWEN  =    -12901.57693327
  -Hartree energ DENC   =     -2855.60785864
  -exchange      EXHF   =         0.00000000
  -V(xc)+E(xc)   XCENC  =      -995.99400327
  PAW double counting   =     12741.82587617   -11476.22345381
  entropy T*S    EENTRO =        -0.00506191
  eigenvalues    EBANDS =      4010.67337391
  atomic energy  EATOM  =     12697.67401269
  ---------------------------------------------------
  free energy    TOTEN  =      2019.15209241 eV

  energy without entropy =     2019.15715432  energy(sigma->0) =     2019.15377971


--------------------------------------------------------------------------------------------------------




--------------------------------------- Iteration      1(   2)  ---------------------------------------


    TRIAL :  cpu time   32.7809: real time   33.0533
    CORREC:  cpu time    0.0071: real time    0.0080
    --------------------------------------------
      LOOP:  cpu time   32.7897: real time   33.0650

 eigenvalue-minimisations  : 19872
 total energy-change (2. order) :-0.2137496E+04  (-0.2062842E+04)
 number of electron     270.0000000 magnetization      39.0000000
 augmentation part      270.0000000 magnetization      39.0000000

 Free energy of the ion-electron system (eV)
  ---------------------------------------------------
  alpha Z        PSCENC =       798.38614055
  Ewald energy   TEWEN  =    -12901.57693327
  -Hartree energ DENC   =     -2855.60785864
  -exchange      EXHF   =         0.00000000
  -V(xc)+E(xc)   XCENC  =      -995.99400327
  PAW double counting   =     12741.82587617   -11476.22345381
  entropy T*S    EENTRO =         0.00161870
  eigenvalues    EBANDS =      1873.17037093
  atomic energy  EATOM  =     12697.67401269
  ---------------------------------------------------
  free energy    TOTEN  =      -118.34422997 eV

  energy without entropy =     -118.34584867  energy(sigma->0) =     -118.34476954


--------------------------------------------------------------------------------------------------------




--------------------------------------- Iteration      1(   3)  ---------------------------------------


    TRIAL :  cpu time   45.4579: real time   45.8707
    CORREC:  cpu time    0.0080: real time    0.0081
    --------------------------------------------
      LOOP:  cpu time   45.4668: real time   45.8822

 eigenvalue-minimisations  : 29712
 total energy-change (2. order) :-0.2457260E+03  (-0.2113261E+03)
 number of electron     270.0000000 magnetization      39.0000000
 augmentation part      270.0000000 magnetization      39.0000000

 Free energy of the ion-electron system (eV)
  ---------------------------------------------------
  alpha Z        PSCENC =       798.38614055
  Ewald energy   TEWEN  =    -12901.57693327
  -Hartree energ DENC   =     -2855.60785864
  -exchange      EXHF   =         0.00000000
  -V(xc)+E(xc)   XCENC  =      -995.99400327
  PAW double counting   =     12741.82587617   -11476.22345381
  entropy T*S    EENTRO =         0.01256612
  eigenvalues    EBANDS =      1627.43345684
  atomic energy  EATOM  =     12697.67401269
  ---------------------------------------------------
  free energy    TOTEN  =      -364.07019663 eV

  energy without entropy =     -364.08276275  energy(sigma->0) =     -364.07438534


--------------------------------------------------------------------------------------------------------




--------------------------------------- Iteration      1(   4)  ---------------------------------------


    TRIAL :  cpu time   48.4325: real time   49.0513
    CORREC:  cpu time    0.0085: real time    0.0094
    --------------------------------------------
      LOOP:  cpu time   48.4418: real time   49.0646

 eigenvalue-minimisations  : 32144
 total energy-change (2. order) :-0.3658534E+02  (-0.3187173E+02)
 number of electron     270.0000000 magnetization      39.0000000
 augmentation part      270.0000000 magnetization      39.0000000

 Free energy of the ion-electron system (eV)
  ---------------------------------------------------
  alpha Z        PSCENC =       798.38614055
  Ewald energy   TEWEN  =    -12901.57693327
  -Hartree energ DENC   =     -2855.60785864
  -exchange      EXHF   =         0.00000000
  -V(xc)+E(xc)   XCENC  =      -995.99400327
  PAW double counting   =     12741.82587617   -11476.22345381
  entropy T*S    EENTRO =         0.03051108
  eigenvalues    EBANDS =      1590.83017169
  atomic energy  EATOM  =     12697.67401269
  ---------------------------------------------------
  free energy    TOTEN  =      -400.65553683 eV

  energy without entropy =     -400.68604791  energy(sigma->0) =     -400.66570719


--------------------------------------------------------------------------------------------------------




--------------------------------------- Iteration      1(   5)  ---------------------------------------


    TRIAL :  cpu time   48.5938: real time   49.0624
    CORREC:  cpu time    0.0087: real time    0.0088
    --------------------------------------------
      LOOP:  cpu time   48.6037: real time   49.0749

 eigenvalue-minimisations  : 32256
 total energy-change (2. order) :-0.3066385E+01  (-0.2934204E+01)
 number of electron     270.0000000 magnetization      39.0000000
 augmentation part      270.0000000 magnetization      39.0000000

 Free energy of the ion-electron system (eV)
  ---------------------------------------------------
  alpha Z        PSCENC =       798.38614055
  Ewald energy   TEWEN  =    -12901.57693327
  -Hartree energ DENC   =     -2855.60785864
  -exchange      EXHF   =         0.00000000
  -V(xc)+E(xc)   XCENC  =      -995.99400327
  PAW double counting   =     12741.82587617   -11476.22345381
  entropy T*S    EENTRO =         0.02755617
  eigenvalues    EBANDS =      1587.76674178
  atomic energy  EATOM  =     12697.67401269
  ---------------------------------------------------
  free energy    TOTEN  =      -403.72192165 eV

  energy without entropy =     -403.74947782  energy(sigma->0) =     -403.73110704


--------------------------------------------------------------------------------------------------------




--------------------------------------- Iteration      1(   6)  ---------------------------------------


    TRIAL :  cpu time   48.6722: real time   49.0801
    CORREC:  cpu time    0.0086: real time    0.0087
    --------------------------------------------
      LOOP:  cpu time   48.6818: real time   49.0926

 eigenvalue-minimisations  : 32240
 total energy-change (2. order) :-0.2332140E+00  (-0.2296987E+00)
 number of electron     270.0000000 magnetization      39.0000000
 augmentation part      270.0000000 magnetization      39.0000000

 Free energy of the ion-electron system (eV)
  ---------------------------------------------------
  alpha Z        PSCENC =       798.38614055
  Ewald energy   TEWEN  =    -12901.57693327
  -Hartree energ DENC   =     -2855.60785864
  -exchange      EXHF   =         0.00000000
  -V(xc)+E(xc)   XCENC  =      -995.99400327
  PAW double counting   =     12741.82587617   -11476.22345381
  entropy T*S    EENTRO =         0.02744727
  eigenvalues    EBANDS =      1587.53363664
  atomic energy  EATOM  =     12697.67401269
  ---------------------------------------------------
  free energy    TOTEN  =      -403.95513569 eV

  energy without entropy =     -403.98258295  energy(sigma->0) =     -403.96428478


--------------------------------------------------------------------------------------------------------




--------------------------------------- Iteration      1(   7)  ---------------------------------------


    TRIAL :  cpu time   49.3505: real time   49.7939
    CORREC:  cpu time    0.0085: real time    0.0092
    --------------------------------------------
      LOOP:  cpu time   49.3603: real time   49.8067

 eigenvalue-minimisations  : 32664
 total energy-change (2. order) :-0.2413052E-01  (-0.2395738E-01)
 number of electron     270.0000000 magnetization      39.0000000
 augmentation part      270.0000000 magnetization      39.0000000

 Free energy of the ion-electron system (eV)
  ---------------------------------------------------
  alpha Z        PSCENC =       798.38614055
  Ewald energy   TEWEN  =    -12901.57693327
  -Hartree energ DENC   =     -2855.60785864
  -exchange      EXHF   =         0.00000000
  -V(xc)+E(xc)   XCENC  =      -995.99400327
  PAW double counting   =     12741.82587617   -11476.22345381
  entropy T*S    EENTRO =         0.02740624
  eigenvalues    EBANDS =      1587.50954715
  atomic energy  EATOM  =     12697.67401269
  ---------------------------------------------------
  free energy    TOTEN  =      -403.97926620 eV

  energy without entropy =     -404.00667245  energy(sigma->0) =     -403.98840162


--------------------------------------------------------------------------------------------------------




--------------------------------------- Iteration      1(   8)  ---------------------------------------


    TRIAL :  cpu time   48.1995: real time   48.6530
    CORREC:  cpu time    0.0089: real time    0.0098
    CHARGE:  cpu time    1.5734: real time    1.5983
    --------------------------------------------
      LOOP:  cpu time   49.7830: real time   50.2651

 eigenvalue-minimisations  : 31888
 total energy-change (2. order) :-0.2218588E-02  (-0.2209815E-02)
 number of electron     269.9999995 magnetization      28.0843368
 augmentation part       64.2741604 magnetization      16.1488838

 Free energy of the ion-electron system (eV)
  ---------------------------------------------------
  alpha Z        PSCENC =       798.38614055
  Ewald energy   TEWEN  =    -12901.57693327
  -Hartree energ DENC   =     -2855.60785864
  -exchange      EXHF   =         0.00000000
  -V(xc)+E(xc)   XCENC  =      -995.99400327
  PAW double counting   =     12741.82587617   -11476.22345381
  entropy T*S    EENTRO =         0.02739898
  eigenvalues    EBANDS =      1587.50733582
  atomic energy  EATOM  =     12697.67401269
  ---------------------------------------------------
  free energy    TOTEN  =      -403.98148479 eV

  energy without entropy =     -404.00888378  energy(sigma->0) =     -403.99061779


--------------------------------------------------------------------------------------------------------




--------------------------------------- Iteration      1(   9)  ---------------------------------------


    POTLOK:  cpu time    0.3962: real time    0.3987
    SETDIJ:  cpu time    0.4550: real time    0.4552
    TRIAL :  cpu time   17.6506: real time   17.8356
    CORREC:  cpu time    5.3364: real time    5.4351
    CHARGE:  cpu time    1.5933: real time    1.6280
    --------------------------------------------
      LOOP:  cpu time   25.4352: real time   25.7582

 eigenvalue-minimisations  :     0
 total energy-change (2. order) : 0.2974579E+03  (-0.2175325E+03)
 number of electron     269.9999993 magnetization      29.8661620
 augmentation part       83.0874751 magnetization      19.7048470

 Free energy of the ion-electron system (eV)
  ---------------------------------------------------
  alpha Z        PSCENC =       798.38614055
  Ewald energy   TEWEN  =    -12901.57693327
  -Hartree energ DENC   =     -1275.33793326
  -exchange      EXHF   =         0.00000000
  -V(xc)+E(xc)   XCENC  =     -1041.65454268
  PAW double counting   =     19177.28605852   -17758.00802222
  entropy T*S    EENTRO =         0.02086224
  eigenvalues    EBANDS =       196.68028050
  atomic energy  EATOM  =     12697.67401269
  ---------------------------------------------------
  free energy    TOTEN  =      -106.52354018 eV

  energy without entropy =     -106.54440242  energy(sigma->0) =     -106.53049426


--------------------------------------------------------------------------------------------------------




--------------------------------------- Iteration      1(  10)  ---------------------------------------


    POTLOK:  cpu time    0.3887: real time    0.3889
    SETDIJ:  cpu time    0.4523: real time    0.4531
    TRIAL :  cpu time   16.9229: real time   17.0489
    CORREC:  cpu time    5.3356: real time    5.3455
    CHARGE:  cpu time    1.5846: real time    1.5978
    --------------------------------------------
      LOOP:  cpu time   25.6672: real time   25.8186

 eigenvalue-minimisations  :     0
 total energy-change (2. order) :-0.2142326E+03  (-0.1377415E+02)
 number of electron     269.9999993 magnetization      30.6469638
 augmentation part       87.9345473 magnetization      20.8638365

 Free energy of the ion-electron system (eV)
  ---------------------------------------------------
  alpha Z        PSCENC =       798.38614055
  Ewald energy   TEWEN  =    -12901.57693327
  -Hartree energ DENC   =     -2138.30281275
  -exchange      EXHF   =         0.00000000
  -V(xc)+E(xc)   XCENC  =     -1011.17668985
  PAW double counting   =     20836.62878912   -19605.42329948
  entropy T*S    EENTRO =         0.01805035
  eigenvalues    EBANDS =      1003.01378653
  atomic energy  EATOM  =     12697.67401269
  ---------------------------------------------------
  free energy    TOTEN  =      -320.75614423 eV

  energy without entropy =     -320.77419458  energy(sigma->0) =     -320.76216101


--------------------------------------------------------------------------------------------------------




--------------------------------------- Iteration      1(  11)  ---------------------------------------


    POTLOK:  cpu time    0.3931: real time    0.3931
    SETDIJ:  cpu time    0.4751: real time    0.4751
    TRIAL :  cpu time   16.7548: real time   16.9195
    CORREC:  cpu time    5.3156: real time    5.4043
    CHARGE:  cpu time    1.5760: real time    1.5899
    --------------------------------------------
      LOOP:  cpu time   24.5192: real time   24.7867

 eigenvalue-minimisations  :     0
 total energy-change (2. order) :-0.1355514E+02  (-0.1192014E+02)
 number of electron     269.9999992 magnetization      31.2901240
 augmentation part       88.5342312 magnetization      21.4528919

 Free energy of the ion-electron system (eV)
  ---------------------------------------------------
  alpha Z        PSCENC =       798.38614055
  Ewald energy   TEWEN  =    -12901.57693327
  -Hartree energ DENC   =     -2443.58387322
  -exchange      EXHF   =         0.00000000
  -V(xc)+E(xc)   XCENC  =     -1000.22083718
  PAW double counting   =     21890.00134341   -20703.72554660
  entropy T*S    EENTRO =         0.02398100
  eigenvalues    EBANDS =      1328.71635978
  atomic energy  EATOM  =     12697.67401269
  ---------------------------------------------------
  free energy    TOTEN  =      -334.31128349 eV

  energy without entropy =     -334.33526449  energy(sigma->0) =     -334.31927716


--------------------------------------------------------------------------------------------------------




--------------------------------------- Iteration      1(  12)  ---------------------------------------


    POTLOK:  cpu time    0.3926: real time    0.3926
    SETDIJ:  cpu time    1.3434: real time    1.3626
    TRIAL :  cpu time   17.6151: real time   17.7997
    CORREC:  cpu time    5.3784: real time    5.3861
    CHARGE:  cpu time    1.5875: real time    1.6148
    --------------------------------------------
      LOOP:  cpu time   26.3208: real time   26.5603

 eigenvalue-minimisations  :     0
 total energy-change (2. order) :-0.1205627E+02  (-0.6965563E+01)
 number of electron     269.9999993 magnetization      31.2821859
 augmentation part       86.9798966 magnetization      21.5012283

 Free energy of the ion-electron system (eV)
  ---------------------------------------------------
  alpha Z        PSCENC =       798.38614055
  Ewald energy   TEWEN  =    -12901.57693327
  -Hartree energ DENC   =     -2567.92423100
  -exchange      EXHF   =         0.00000000
  -V(xc)+E(xc)   XCENC  =      -996.59940137
  PAW double counting   =     21537.16135302   -20333.77758826
  entropy T*S    EENTRO =         0.00318260
  eigenvalues    EBANDS =      1420.26511457
  atomic energy  EATOM  =     12697.67401269
  ---------------------------------------------------
  free energy    TOTEN  =      -346.36755207 eV

  energy without entropy =     -346.37073467  energy(sigma->0) =     -346.36861294


--------------------------------------------------------------------------------------------------------




--------------------------------------- Iteration      1(  13)  ---------------------------------------


    POTLOK:  cpu time    0.3916: real time    0.3917
    SETDIJ:  cpu time    0.4868: real time    0.4870
    TRIAL :  cpu time   16.7094: real time   16.8867
    CORREC:  cpu time    5.3923: real time    5.4414
    CHARGE:  cpu time    1.5724: real time    1.5883
    --------------------------------------------
      LOOP:  cpu time   24.5563: real time   24.8003

 eigenvalue-minimisations  :     0
 total energy-change (2. order) :-0.6869112E+01  (-0.1097808E+01)
 number of electron     269.9999993 magnetization      31.2869635
 augmentation part       86.0028693 magnetization      21.3385879

 Free energy of the ion-electron system (eV)
  ---------------------------------------------------
  alpha Z        PSCENC =       798.38614055
  Ewald energy   TEWEN  =    -12901.57693327
  -Hartree energ DENC   =     -2538.12477450
  -exchange      EXHF   =         0.00000000
  -V(xc)+E(xc)   XCENC  =      -998.25711944
  PAW double counting   =     21180.04968433   -19942.33832796
  entropy T*S    EENTRO =        -0.00068696
  eigenvalues    EBANDS =      1350.94747112
  atomic energy  EATOM  =     12697.67401269
  ---------------------------------------------------
  free energy    TOTEN  =      -353.23666388 eV

  energy without entropy =     -353.23597692  energy(sigma->0) =     -353.23643490


--------------------------------------------------------------------------------------------------------




--------------------------------------- Iteration      1(  14)  ---------------------------------------


    POTLOK:  cpu time    0.3918: real time    0.3927
    SETDIJ:  cpu time    0.4566: real time    0.4606
    TRIAL :  cpu time   18.1825: real time   18.4254
    CORREC:  cpu time    5.3082: real time    5.3330
    CHARGE:  cpu time    1.6182: real time    1.6266
    --------------------------------------------
      LOOP:  cpu time   25.9729: real time   26.2541

 eigenvalue-minimisations  :     0
 total energy-change (2. order) :-0.1092008E+01  (-0.8747892E+00)
 number of electron     269.9999992 magnetization      31.4138662
 augmentation part       85.9594733 magnetization      21.2750162

 Free energy of the ion-electron system (eV)
  ---------------------------------------------------
  alpha Z        PSCENC =       798.38614055
  Ewald energy   TEWEN  =    -12901.57693327
  -Hartree energ DENC   =     -2482.23584804
  -exchange      EXHF   =         0.00000000
  -V(xc)+E(xc)   XCENC  =     -1000.25227739
  PAW double counting   =     20674.85475837   -19422.19304926
  entropy T*S    EENTRO =         0.00464130
  eigenvalues    EBANDS =      1281.01521139
  atomic energy  EATOM  =     12697.67401269
  ---------------------------------------------------
  free energy    TOTEN  =      -354.32867192 eV

  energy without entropy =     -354.33331321  energy(sigma->0) =     -354.33021902


--------------------------------------------------------------------------------------------------------




--------------------------------------- Iteration      1(  15)  ---------------------------------------


    POTLOK:  cpu time    0.3921: real time    0.4492
    SETDIJ:  cpu time    0.4509: real time    0.4509
    TRIAL :  cpu time   16.8888: real time   16.9479
    CORREC:  cpu time    5.2472: real time    5.3977
    CHARGE:  cpu time    1.5949: real time    1.5972
    --------------------------------------------
      LOOP:  cpu time   24.6036: real time   24.8743

 eigenvalue-minimisations  :     0
 total energy-change (2. order) :-0.8684095E+00  (-0.7393519E+00)
 number of electron     269.9999992 magnetization      31.3813680
 augmentation part       86.6727125 magnetization      21.3018645

 Free energy of the ion-electron system (eV)
  ---------------------------------------------------
  alpha Z        PSCENC =       798.38614055
  Ewald energy   TEWEN  =    -12901.57693327
  -Hartree energ DENC   =     -2466.75902353
  -exchange      EXHF   =         0.00000000
  -V(xc)+E(xc)   XCENC  =     -1000.65478944
  PAW double counting   =     20108.97052271   -18852.18554120
  entropy T*S    EENTRO =        -0.00015633
  eigenvalues    EBANDS =      1260.94388877
  atomic energy  EATOM  =     12697.67401269
  ---------------------------------------------------
  free energy    TOTEN  =      -355.19708143 eV

  energy without entropy =     -355.19692510  energy(sigma->0) =     -355.19702932


--------------------------------------------------------------------------------------------------------




--------------------------------------- Iteration      1(  16)  ---------------------------------------


    POTLOK:  cpu time    0.3942: real time    0.3941
    SETDIJ:  cpu time    0.4406: real time    0.4653
    TRIAL :  cpu time   16.7037: real time   16.8730
    CORREC:  cpu time    5.7299: real time    6.0783
    CHARGE:  cpu time    1.5924: real time    1.5923
    --------------------------------------------
      LOOP:  cpu time   24.8755: real time   25.4188

 eigenvalue-minimisations  :     0
 total energy-change (2. order) :-0.7378984E+00  (-0.2308853E+00)
 number of electron     269.9999992 magnetization      31.3962167
 augmentation part       87.1924341 magnetization      21.4048090

 Free energy of the ion-electron system (eV)
  ---------------------------------------------------
  alpha Z        PSCENC =       798.38614055
  Ewald energy   TEWEN  =    -12901.57693327
  -Hartree energ DENC   =     -2489.12564288
  -exchange      EXHF   =         0.00000000
  -V(xc)+E(xc)   XCENC  =      -999.59335762
  PAW double counting   =     19680.84213796   -18429.26267940
  entropy T*S    EENTRO =        -0.00167728
  eigenvalues    EBANDS =      1286.72149844
  atomic energy  EATOM  =     12697.67401269
  ---------------------------------------------------
  free energy    TOTEN  =      -355.93497985 eV

  energy without entropy =     -355.93330257  energy(sigma->0) =     -355.93442076


--------------------------------------------------------------------------------------------------------




--------------------------------------- Iteration      1(  17)  ---------------------------------------


    POTLOK:  cpu time    0.3912: real time    0.4039
    SETDIJ:  cpu time    0.4718: real time    0.4984
    TRIAL :  cpu time   17.5576: real time   17.6990
    CORREC:  cpu time    5.3547: real time    5.3773
    CHARGE:  cpu time    1.5915: real time    1.5915
    --------------------------------------------
      LOOP:  cpu time   25.3879: real time   25.5927

 eigenvalue-minimisations  :     0
 total energy-change (2. order) :-0.2315655E+00  (-0.2190009E+00)
 number of electron     269.9999992 magnetization      31.4313883
 augmentation part       87.3330020 magnetization      21.5907373

 Free energy of the ion-electron system (eV)
  ---------------------------------------------------
  alpha Z        PSCENC =       798.38614055
  Ewald energy   TEWEN  =    -12901.57693327
  -Hartree energ DENC   =     -2511.82826722
  -exchange      EXHF   =         0.00000000
  -V(xc)+E(xc)   XCENC  =      -998.57103652
  PAW double counting   =     19593.31085598   -18347.04523868
  entropy T*S    EENTRO =        -0.00026982
  eigenvalues    EBANDS =      1313.48559841
  atomic energy  EATOM  =     12697.67401269
  ---------------------------------------------------
  free energy    TOTEN  =      -356.16654533 eV

  energy without entropy =     -356.16627552  energy(sigma->0) =     -356.16645539


--------------------------------------------------------------------------------------------------------




--------------------------------------- Iteration      1(  18)  ---------------------------------------


    POTLOK:  cpu time    0.3933: real time    0.3933
    SETDIJ:  cpu time    0.4703: real time    0.4765
    TRIAL :  cpu time   16.7177: real time   16.8788
    CORREC:  cpu time    5.3344: real time    5.3845
    CHARGE:  cpu time    1.5281: real time    1.6204
    --------------------------------------------
      LOOP:  cpu time   24.4496: real time   24.7594

 eigenvalue-minimisations  :     0
 total energy-change (2. order) :-0.2189620E+00  (-0.1162313E+00)
 number of electron     269.9999992 magnetization      31.4029808
 augmentation part       87.1861685 magnetization      21.6814687

 Free energy of the ion-electron system (eV)
  ---------------------------------------------------
  alpha Z        PSCENC =       798.38614055
  Ewald energy   TEWEN  =    -12901.57693327
  -Hartree energ DENC   =     -2516.57014476
  -exchange      EXHF   =         0.00000000
  -V(xc)+E(xc)   XCENC  =      -998.03404187
  PAW double counting   =     19540.73004494   -18296.05355547
  entropy T*S    EENTRO =        -0.00251236
  eigenvalues    EBANDS =      1319.05923965
  atomic energy  EATOM  =     12697.67401269
  ---------------------------------------------------
  free energy    TOTEN  =      -356.38550735 eV

  energy without entropy =     -356.38299500  energy(sigma->0) =     -356.38466990


--------------------------------------------------------------------------------------------------------




--------------------------------------- Iteration      1(  19)  ---------------------------------------


    POTLOK:  cpu time    0.3924: real time    0.3924
    SETDIJ:  cpu time    0.4525: real time    0.4563
    TRIAL :  cpu time   17.7409: real time   17.8827
    CORREC:  cpu time    5.3578: real time    5.4200
    CHARGE:  cpu time    1.6305: real time    1.6305
    --------------------------------------------
      LOOP:  cpu time   25.5768: real time   25.7846

 eigenvalue-minimisations  :     0
 total energy-change (2. order) :-0.1154531E+00  (-0.5788501E-01)
 number of electron     269.9999992 magnetization      31.4543895
 augmentation part       86.9120183 magnetization      21.7452723

 Free energy of the ion-electron system (eV)
  ---------------------------------------------------
  alpha Z        PSCENC =       798.38614055
  Ewald energy   TEWEN  =    -12901.57693327
  -Hartree energ DENC   =     -2508.08470478
  -exchange      EXHF   =         0.00000000
  -V(xc)+E(xc)   XCENC  =      -998.11376653
  PAW double counting   =     19515.03106456   -18268.89502074
  entropy T*S    EENTRO =        -0.00143199
  eigenvalues    EBANDS =      1309.08075939
  atomic energy  EATOM  =     12697.67401269
  ---------------------------------------------------
  free energy    TOTEN  =      -356.50096049 eV

  energy without entropy =     -356.49952850  energy(sigma->0) =     -356.50048316


--------------------------------------------------------------------------------------------------------




--------------------------------------- Iteration      1(  20)  ---------------------------------------


    POTLOK:  cpu time    0.3913: real time    0.3913
    SETDIJ:  cpu time    0.5089: real time    0.5089
    TRIAL :  cpu time   16.6640: real time   16.8276
    CORREC:  cpu time    5.3519: real time    5.3909
    CHARGE:  cpu time    1.5427: real time    1.6145
    --------------------------------------------
      LOOP:  cpu time   24.4680: real time   24.7425

 eigenvalue-minimisations  :     0
 total energy-change (2. order) :-0.5782840E-01  (-0.5039684E-01)
 number of electron     269.9999992 magnetization      31.4883349
 augmentation part       86.8277667 magnetization      21.8306178

 Free energy of the ion-electron system (eV)
  ---------------------------------------------------
  alpha Z        PSCENC =       798.38614055
  Ewald energy   TEWEN  =    -12901.57693327
  -Hartree energ DENC   =     -2494.64742791
  -exchange      EXHF   =         0.00000000
  -V(xc)+E(xc)   XCENC  =      -998.45182119
  PAW double counting   =     19497.64148049   -18248.72101645
  entropy T*S    EENTRO =        -0.00146183
  eigenvalues    EBANDS =      1293.13820819
  atomic energy  EATOM  =     12697.67401269
  ---------------------------------------------------
  free energy    TOTEN  =      -356.55878889 eV

  energy without entropy =     -356.55732706  energy(sigma->0) =     -356.55830162


--------------------------------------------------------------------------------------------------------




--------------------------------------- Iteration      1(  21)  ---------------------------------------


    POTLOK:  cpu time    0.3924: real time    0.3924
    SETDIJ:  cpu time    0.4592: real time    0.4592
    TRIAL :  cpu time   17.6276: real time   17.8470
    CORREC:  cpu time    6.0789: real time    6.1323
    CHARGE:  cpu time    1.5913: real time    1.5949
    --------------------------------------------
      LOOP:  cpu time   26.1519: real time   26.4286

 eigenvalue-minimisations  :     0
 total energy-change (2. order) :-0.5039920E-01  (-0.3930418E-01)
 number of electron     269.9999992 magnetization      31.5303614
 augmentation part       86.9083383 magnetization      21.9096032

 Free energy of the ion-electron system (eV)
  ---------------------------------------------------
  alpha Z        PSCENC =       798.38614055
  Ewald energy   TEWEN  =    -12901.57693327
  -Hartree energ DENC   =     -2492.67911735
  -exchange      EXHF   =         0.00000000
  -V(xc)+E(xc)   XCENC  =      -998.36569939
  PAW double counting   =     19504.75031722   -18255.40485376
  entropy T*S    EENTRO =        -0.00177617
  eigenvalues    EBANDS =      1290.60840705
  atomic energy  EATOM  =     12697.67401269
  ---------------------------------------------------
  free energy    TOTEN  =      -356.60918810 eV

  energy without entropy =     -356.60741193  energy(sigma->0) =     -356.60859604


--------------------------------------------------------------------------------------------------------




--------------------------------------- Iteration      1(  22)  ---------------------------------------


    POTLOK:  cpu time    0.3911: real time    0.3971
    SETDIJ:  cpu time    0.5107: real time    0.5107
    TRIAL :  cpu time   16.8190: real time   16.9364
    CORREC:  cpu time    5.2752: real time    5.3485
    CHARGE:  cpu time    1.5910: real time    1.6042
    --------------------------------------------
      LOOP:  cpu time   24.5970: real time   24.8087

 eigenvalue-minimisations  :     0
 total energy-change (2. order) :-0.3930154E-01  (-0.1084144E-01)
 number of electron     269.9999992 magnetization      31.5636387
 augmentation part       86.9733868 magnetization      21.9362147

 Free energy of the ion-electron system (eV)
  ---------------------------------------------------
  alpha Z        PSCENC =       798.38614055
  Ewald energy   TEWEN  =    -12901.57693327
  -Hartree energ DENC   =     -2499.19641340
  -exchange      EXHF   =         0.00000000
  -V(xc)+E(xc)   XCENC  =      -997.99317630
  PAW double counting   =     19526.05356338   -18278.09211731
  entropy T*S    EENTRO =        -0.00091158
  eigenvalues    EBANDS =      1298.09821019
  atomic energy  EATOM  =     12697.67401269
  ---------------------------------------------------
  free energy    TOTEN  =      -356.64848964 eV

  energy without entropy =     -356.64757806  energy(sigma->0) =     -356.64818578


--------------------------------------------------------------------------------------------------------




--------------------------------------- Iteration      1(  23)  ---------------------------------------


    POTLOK:  cpu time    0.3836: real time    0.4253
    SETDIJ:  cpu time    0.4491: real time    0.4492
    TRIAL :  cpu time   16.8395: real time   16.9510
    CORREC:  cpu time    5.9574: real time    6.0581
    CHARGE:  cpu time    1.5666: real time    1.5947
    --------------------------------------------
      LOOP:  cpu time   25.2050: real time   25.4884

 eigenvalue-minimisations  :     0
 total energy-change (2. order) :-0.1083602E-01  (-0.9744781E-02)
 number of electron     269.9999992 magnetization      31.5736591
 augmentation part       87.0129665 magnetization      21.9533099

 Free energy of the ion-electron system (eV)
  ---------------------------------------------------
  alpha Z        PSCENC =       798.38614055
  Ewald energy   TEWEN  =    -12901.57693327
  -Hartree energ DENC   =     -2503.16404610
  -exchange      EXHF   =         0.00000000
  -V(xc)+E(xc)   XCENC  =      -997.80138495
  PAW double counting   =     19532.87403245   -18285.74665885
  entropy T*S    EENTRO =        -0.00112462
  eigenvalues    EBANDS =      1302.69642339
  atomic energy  EATOM  =     12697.67401269
  ---------------------------------------------------
  free energy    TOTEN  =      -356.65932566 eV

  energy without entropy =     -356.65820104  energy(sigma->0) =     -356.65895079


--------------------------------------------------------------------------------------------------------




--------------------------------------- Iteration      1(  24)  ---------------------------------------


    POTLOK:  cpu time    0.3927: real time    0.3928
[...]
   45        0.025   0.021   2.392   2.438
   46        0.018   0.021   2.382   2.421
   47        0.018   0.021   2.375   2.415
   48       -0.018  -0.016  -2.324  -2.358
   49        0.018   0.022   2.375   2.416
   50        0.018   0.022   2.380   2.420
   51       -0.018  -0.016  -2.325  -2.360
   52        0.020   0.018   2.333   2.371
   53        0.020   0.018   2.335   2.373
   54        0.025   0.021   2.392   2.438
--------------------------------------------------
tot         -0.009  -0.168  31.479  31.302
 
    FORLOC:  cpu time    0.0607: real time    0.0606
    FORNL :  cpu time   25.7529: real time   26.0429
    STRESS:  cpu time   35.5159: real time   35.8352
    FORCOR:  cpu time    0.4397: real time    0.4396
    OFIELD:  cpu time    0.0019: real time    0.0019

  FORCE on cell =-STRESS in cart. coord.  units (eV):
  Direction    XX          YY          ZZ          XY          YZ          ZX
  --------------------------------------------------------------------------------------
  Alpha Z   798.38614   798.38614   798.38614
  Ewald   -4053.61603 -4053.61603 -4794.40593    -0.00000    -0.00000    -0.00000
  Hartree  1085.34490  1082.57840   333.90284    -0.00000    -0.00000    -0.00000
  E(xc)   -1142.13468 -1141.67544 -1140.27815    -0.00000    -0.00000     0.00000
  Local     366.98190   373.22540  1903.11543    -0.00000     0.00000    -0.00000
  n-local  -171.07940  -169.81699  -175.12729    -0.25478    -0.13986    -0.14790
  augment   785.59523   783.58750   768.20083     0.00000     0.00001     0.00001
  Kinetic  2336.58904  2332.91939  2310.49640    -1.05536    -1.66841    -1.52711
  Fock        0.00000     0.00000     0.00000     0.00000     0.00000     0.00000
  -------------------------------------------------------------------------------------
  Total       6.06710     5.58839     4.29029     0.00000     0.00000     0.00000
  in kB      13.69265    12.61226     9.68261     0.00000     0.00000     0.00000
  external pressure =       12.00 kB  Pullay stress =        0.00 kB


 VOLUME and BASIS-vectors are now :
 -----------------------------------------------------------------------------
  energy-cutoff  :      404.80
  volume of cell :      709.91
      direct lattice vectors                 reciprocal lattice vectors
     8.250148166  0.000000000  0.000000000     0.121209944  0.000000000  0.000000000
     0.000000000  8.250148166  0.000000000     0.000000000  0.121209944  0.000000000
     0.000000000  0.000000000 10.429911392     0.000000000  0.000000000  0.095878092

  length of vectors
     8.250148166  8.250148166 10.429911392     0.121209944  0.121209944  0.095878092


 FORCES acting on ions:
    Electron-Ion                     Ewald-Force                    Non-Local-Force
 -----------------------------------------------------------------------------------------------
   0.172E+00 0.103E+00 -.490E-01   -.239E-08 -.239E-08 -.210E-08   -.917E-01 -.104E+00 0.442E-01
   0.101E-01 0.166E-02 0.482E-06   -.239E-08 -.239E-08 0.171E-08   0.127E-01 -.479E-02 -.542E-19
   0.172E+00 0.103E+00 0.490E-01   -.239E-08 -.239E-08 0.861E-08   -.917E-01 -.104E+00 -.442E-01
   -.927E-02 0.373E-09 -.127E+00   -.239E-08 -.802E-09 -.210E-08   -.542E-02 -.434E-18 0.193E-01
   0.131E-01 0.373E-09 0.479E-06   -.239E-08 -.802E-09 0.171E-08   -.976E-02 -.542E-19 0.000E+00
   -.927E-02 0.373E-09 0.127E+00   -.239E-08 -.802E-09 0.861E-08   -.542E-02 0.136E-18 -.193E-01
   0.172E+00 -.103E+00 -.490E-01   -.239E-08 0.631E-08 -.210E-08   -.917E-01 0.104E+00 0.442E-01
   0.101E-01 -.166E-02 0.482E-06   -.239E-08 0.631E-08 0.171E-08   0.127E-01 0.479E-02 0.000E+00
   0.172E+00 -.103E+00 0.490E-01   -.239E-08 0.631E-08 0.861E-08   -.917E-01 0.104E+00 -.442E-01
   -.172E+00 0.103E+00 -.490E-01   -.802E-09 -.239E-08 -.210E-08   0.917E-01 -.104E+00 0.442E-01
   -.101E-01 0.166E-02 0.482E-06   -.802E-09 -.239E-08 0.171E-08   -.127E-01 -.479E-02 0.000E+00
   -.172E+00 0.103E+00 0.490E-01   -.803E-09 -.239E-08 0.861E-08   0.917E-01 -.104E+00 -.442E-01
   0.927E-02 0.373E-09 -.127E+00   -.802E-09 -.802E-09 -.210E-08   0.542E-02 -.136E-18 0.193E-01
   -.131E-01 0.373E-09 0.479E-06   -.802E-09 -.802E-09 0.171E-08   0.976E-02 0.163E-18 0.000E+00
   0.927E-02 0.373E-09 0.127E+00   -.803E-09 -.802E-09 0.861E-08   0.542E-02 0.434E-18 -.193E-01
   -.172E+00 -.103E+00 -.490E-01   -.802E-09 0.631E-08 -.210E-08   0.917E-01 0.104E+00 0.442E-01
   -.101E-01 -.166E-02 0.482E-06   -.802E-09 0.631E-08 0.171E-08   -.127E-01 0.479E-02 0.542E-19
   -.172E+00 -.103E+00 0.490E-01   -.803E-09 0.631E-08 0.861E-08   0.917E-01 0.104E+00 -.442E-01
   -.328E-08 0.121E+00 -.528E-01   0.631E-08 -.239E-08 -.210E-08   0.000E+00 -.210E+00 0.904E-01
   -.329E-08 -.439E-02 0.484E-06   0.631E-08 -.239E-08 0.171E-08   -.217E-18 0.336E-01 -.217E-18
   -.328E-08 0.121E+00 0.528E-01   0.631E-08 -.239E-08 0.861E-08   -.434E-18 -.210E+00 -.904E-01
   -.331E-08 0.373E-09 -.854E-01   0.631E-08 -.802E-09 -.210E-08   0.000E+00 -.108E-18 0.560E-01
   -.329E-08 0.373E-09 0.480E-06   0.631E-08 -.802E-09 0.171E-08   0.000E+00 0.000E+00 0.000E+00
   -.331E-08 0.373E-09 0.854E-01   0.631E-08 -.802E-09 0.861E-08   0.000E+00 0.108E-18 -.560E-01
   -.328E-08 -.121E+00 -.528E-01   0.631E-08 0.631E-08 -.210E-08   0.434E-18 0.210E+00 0.904E-01
   -.329E-08 0.439E-02 0.484E-06   0.631E-08 0.631E-08 0.171E-08   0.217E-18 -.336E-01 0.217E-18
   -.328E-08 -.121E+00 0.528E-01   0.631E-08 0.631E-08 0.861E-08   0.000E+00 0.210E+00 -.904E-01
   0.483E-08 -.892E-01 -.354E-01   -.169E-07 -.169E-07 -.180E-07   -.325E-18 0.539E-01 -.128E-01
   0.483E-08 -.892E-01 0.354E-01   -.169E-07 -.169E-07 -.170E-08   0.000E+00 0.539E-01 0.128E-01
   0.486E-08 -.193E+00 -.247E-05   -.169E-07 -.169E-07 0.115E-07   0.434E-18 0.197E+00 -.434E-18
   0.483E-08 0.892E-01 -.354E-01   -.169E-07 0.802E-09 -.180E-07   0.000E+00 -.539E-01 -.128E-01
   0.483E-08 0.892E-01 0.354E-01   -.169E-07 0.802E-09 -.170E-08   -.108E-18 -.539E-01 0.128E-01
   0.486E-08 0.193E+00 -.247E-05   -.169E-07 0.802E-09 0.115E-07   0.000E+00 -.197E+00 0.434E-18
   0.485E-08 -.605E-08 0.902E-01   -.169E-07 0.130E-07 -.180E-07   0.000E+00 0.434E-18 -.125E+00
   0.485E-08 -.605E-08 -.902E-01   -.169E-07 0.130E-07 -.170E-08   0.000E+00 -.434E-18 0.125E+00
   0.472E-08 -.605E-08 -.252E-05   -.169E-07 0.130E-07 0.115E-07   0.000E+00 0.000E+00 0.000E+00
   0.403E-01 0.611E-02 -.286E-01   0.802E-09 -.169E-07 -.180E-07   -.277E-01 0.489E-02 0.127E-02
   0.403E-01 0.611E-02 0.286E-01   0.802E-09 -.169E-07 -.170E-08   -.277E-01 0.489E-02 -.127E-02
   -.464E-01 0.247E+00 -.252E-05   0.802E-09 -.169E-07 0.115E-07   0.396E-01 -.905E-01 -.434E-18
   0.403E-01 -.611E-02 -.286E-01   0.802E-09 0.802E-09 -.180E-07   -.277E-01 -.489E-02 0.127E-02
   0.403E-01 -.611E-02 0.286E-01   0.802E-09 0.802E-09 -.170E-08   -.277E-01 -.489E-02 -.127E-02
   -.464E-01 -.247E+00 -.252E-05   0.802E-09 0.802E-09 0.115E-07   0.396E-01 0.905E-01 -.434E-18
   0.121E-01 -.605E-08 -.290E+00   0.802E-09 0.130E-07 -.180E-07   -.984E-02 0.000E+00 0.306E+00
   0.121E-01 -.605E-08 0.290E+00   0.802E-09 0.130E-07 -.170E-08   -.984E-02 0.217E-18 -.306E+00
   0.512E+00 -.604E-08 -.271E-05   0.802E-09 0.130E-07 0.115E-07   -.167E+00 0.000E+00 0.000E+00
   -.403E-01 0.611E-02 -.286E-01   0.130E-07 -.169E-07 -.180E-07   0.277E-01 0.489E-02 0.127E-02
   -.403E-01 0.611E-02 0.286E-01   0.130E-07 -.169E-07 -.170E-08   0.277E-01 0.489E-02 -.127E-02
   0.464E-01 0.247E+00 -.252E-05   0.130E-07 -.169E-07 0.115E-07   -.396E-01 -.905E-01 0.434E-18
   -.403E-01 -.611E-02 -.286E-01   0.130E-07 0.802E-09 -.180E-07   0.277E-01 -.489E-02 0.127E-02
   -.403E-01 -.611E-02 0.286E-01   0.130E-07 0.802E-09 -.170E-08   0.277E-01 -.489E-02 -.127E-02
   0.464E-01 -.247E+00 -.252E-05   0.130E-07 0.802E-09 0.115E-07   -.396E-01 0.905E-01 0.434E-18
   -.121E-01 -.605E-08 -.290E+00   0.130E-07 0.130E-07 -.180E-07   0.984E-02 -.217E-18 0.306E+00
   -.121E-01 -.605E-08 0.290E+00   0.130E-07 0.130E-07 -.170E-08   0.984E-02 0.000E+00 -.306E+00
   -.512E+00 -.605E-08 -.271E-05   0.130E-07 0.130E-07 0.115E-07   0.167E+00 0.000E+00 0.000E+00
 -----------------------------------------------------------------------------------------------
   -.406E-07 -.363E-07 -.206E-04   -.614E-13 -.142E-13 0.128E-13   -.555E-16 -.696E-16 -.555E-16
 
 
 POSITION                                       TOTAL-FORCE (eV/Angst)
 -----------------------------------------------------------------------------------
      0.00000      0.00000      0.00000         0.088195      0.006775     -0.009710
      0.00000      0.00000      3.47664         0.022107     -0.002779      0.000000
      0.00000      0.00000      6.95327         0.088195      0.006775      0.009710
      0.00000      2.75005      0.00000        -0.014644     -0.000000     -0.110179
      0.00000      2.75005      3.47664         0.003828     -0.000000      0.000000
      0.00000      2.75005      6.95327        -0.014644     -0.000000      0.110179
      0.00000      5.50010      0.00000         0.088195     -0.006775     -0.009710
      0.00000      5.50010      3.47664         0.022107      0.002779      0.000000
      0.00000      5.50010      6.95327         0.088195     -0.006775      0.009710
      2.75005      0.00000      0.00000        -0.088195      0.006775     -0.009710
      2.75005      0.00000      3.47664        -0.022107     -0.002779      0.000000
      2.75005      0.00000      6.95327        -0.088195      0.006775      0.009710
      2.75005      2.75005      0.00000         0.014644     -0.000000     -0.110179
      2.75005      2.75005      3.47664        -0.003828     -0.000000      0.000000
      2.75005      2.75005      6.95327         0.014644     -0.000000      0.110179
      2.75005      5.50010      0.00000        -0.088195     -0.006775     -0.009710
      2.75005      5.50010      3.47664        -0.022107      0.002779      0.000000
      2.75005      5.50010      6.95327        -0.088195     -0.006775      0.009710
      5.50010      0.00000      0.00000        -0.000000     -0.071803      0.028609
      5.50010      0.00000      3.47664        -0.000000      0.027076      0.000000
      5.50010      0.00000      6.95327        -0.000000     -0.071803     -0.028609
      5.50010      2.75005      0.00000        -0.000000     -0.000000     -0.034798
      5.50010      2.75005      3.47664        -0.000000     -0.000000      0.000000
      5.50010      2.75005      6.95327        -0.000000     -0.000000      0.034798
      5.50010      5.50010      0.00000        -0.000000      0.071803      0.028609
      5.50010      5.50010      3.47664        -0.000000     -0.027076      0.000000
      5.50010      5.50010      6.95327        -0.000000      0.071803     -0.028609
      1.37502      1.37502      1.73832        -0.000000     -0.035933     -0.041496
      1.37502      1.37502      5.21496        -0.000000     -0.035933      0.041496
      1.37502      1.37502      8.69159        -0.000000      0.002647      0.000000
      1.37502      4.12507      1.73832        -0.000000      0.035933     -0.041496
      1.37502      4.12507      5.21496        -0.000000      0.035933      0.041496
      1.37502      4.12507      8.69159        -0.000000     -0.002647      0.000000
      1.37502      6.87512      1.73832        -0.000000     -0.000000     -0.022535
      1.37502      6.87512      5.21496        -0.000000     -0.000000      0.022535
      1.37502      6.87512      8.69159        -0.000000     -0.000000      0.000000
      4.12507      1.37502      1.73832         0.013082      0.012301     -0.020056
      4.12507      1.37502      5.21496         0.013082      0.012301      0.020056
      4.12507      1.37502      8.69159        -0.008149      0.155168      0.000000
      4.12507      4.12507      1.73832         0.013082     -0.012301     -0.020056
      4.12507      4.12507      5.21496         0.013082     -0.012301      0.020056
      4.12507      4.12507      8.69159        -0.008149     -0.155168      0.000000
      4.12507      6.87512      1.73832         0.002566     -0.000000      0.014636
      4.12507      6.87512      5.21496         0.002566     -0.000000     -0.014636
      4.12507      6.87512      8.69159         0.356892     -0.000000      0.000000
      6.87512      1.37502      1.73832        -0.013082      0.012301     -0.020056
      6.87512      1.37502      5.21496        -0.013082      0.012301      0.020056
      6.87512      1.37502      8.69159         0.008149      0.155168      0.000000
      6.87512      4.12507      1.73832        -0.013082     -0.012301     -0.020056
      6.87512      4.12507      5.21496        -0.013082     -0.012301      0.020056
      6.87512      4.12507      8.69159         0.008149     -0.155168      0.000000
      6.87512      6.87512      1.73832        -0.002566     -0.000000      0.014636
      6.87512      6.87512      5.21496        -0.002566     -0.000000     -0.014636
      6.87512      6.87512      8.69159        -0.356892     -0.000000      0.000000
 -----------------------------------------------------------------------------------
    total drift:                               -0.000000     -0.000000     -0.000021


--------------------------------------------------------------------------------------------------------



  FREE ENERGIE OF THE ION-ELECTRON SYSTEM (eV)
  ---------------------------------------------------
  free  energy   TOTEN  =      -356.69915135 eV

  energy  without entropy=     -356.70355311  energy(sigma->0) =     -356.70061860
 


--------------------------------------------------------------------------------------------------------


    POTLOK:  cpu time    0.8746: real time    0.8978


--------------------------------------------------------------------------------------------------------


     LOOP+:  cpu time 1783.5833: real time 1801.0307
    4ORBIT:  cpu time    0.0000: real time    0.0000
 


 total charge     
 
# of ion       s       p       d       tot
------------------------------------------
    1        0.405   0.428   0.000   0.834
    2        0.404   0.430   0.000   0.834
    3        0.405   0.428   0.000   0.833
    4        0.405   0.426   0.000   0.831
    5        0.404   0.430   0.000   0.834
    6        0.405   0.426   0.000   0.831
    7        0.405   0.428   0.000   0.833
    8        0.404   0.429   0.000   0.833
    9        0.405   0.428   0.000   0.833
   10        0.405   0.428   0.000   0.833
   11        0.404   0.429   0.000   0.833
   12        0.405   0.428   0.000   0.833
   13        0.405   0.426   0.000   0.831
   14        0.404   0.430   0.000   0.834
   15        0.405   0.426   0.000   0.831
   16        0.405   0.428   0.000   0.833
   17        0.404   0.430   0.000   0.834
   18        0.405   0.428   0.000   0.834
   19        0.405   0.428   0.000   0.834
   20        0.405   0.429   0.000   0.834
   21        0.405   0.428   0.000   0.833
   22        0.405   0.426   0.000   0.831
   23        0.403   0.430   0.000   0.834
   24        0.405   0.426   0.000   0.831
   25        0.405   0.428   0.000   0.833
   26        0.405   0.429   0.000   0.834
   27        0.405   0.428   0.000   0.834
   28        0.333   0.350   5.140   5.823
   29        0.333   0.350   5.139   5.822
   30        0.332   0.354   5.135   5.821
   31        0.333   0.350   5.139   5.822
   32        0.333   0.350   5.140   5.823
   33        0.332   0.354   5.135   5.821
   34        0.333   0.353   5.132   5.818
   35        0.333   0.353   5.132   5.818
   36        0.332   0.355   5.139   5.827
   37        0.333   0.353   5.137   5.823
   38        0.332   0.352   5.135   5.819
   39        0.335   0.353   5.124   5.812
   40        0.332   0.352   5.133   5.817
   41        0.333   0.352   5.134   5.819
   42        0.335   0.353   5.138   5.827
   43        0.333   0.350   5.138   5.820
   44        0.333   0.350   5.144   5.827
   45        0.337   0.356   5.120   5.814
   46        0.333   0.352   5.134   5.819
   47        0.332   0.352   5.133   5.817
   48        0.335   0.353   5.138   5.827
   49        0.332   0.352   5.135   5.819
   50        0.333   0.353   5.137   5.823
   51        0.335   0.353   5.124   5.812
   52        0.333   0.350   5.144   5.827
   53        0.333   0.350   5.138   5.820
   54        0.337   0.356   5.120   5.814
--------------------------------------------------
tot         19.929  21.072 138.639 179.640
 


 magnetization (x)
 
# of ion       s       p       d       tot
------------------------------------------
    1       -0.005  -0.008   0.000  -0.013
    2       -0.022  -0.038   0.000  -0.060
    3       -0.005  -0.008   0.000  -0.013
    4       -0.000  -0.000   0.000  -0.000
    5       -0.022  -0.038   0.000  -0.060
    6       -0.000  -0.000   0.000  -0.001
    7       -0.005  -0.007   0.000  -0.012
    8       -0.022  -0.038   0.000  -0.060
    9       -0.005  -0.007   0.000  -0.012
   10       -0.005  -0.007   0.000  -0.012
   11       -0.022  -0.038   0.000  -0.060
   12       -0.005  -0.007   0.000  -0.012
   13       -0.000  -0.000   0.000  -0.001
   14       -0.022  -0.038   0.000  -0.060
   15       -0.000  -0.000   0.000  -0.000
   16       -0.005  -0.008   0.000  -0.013
   17       -0.022  -0.038   0.000  -0.060
   18       -0.005  -0.008   0.000  -0.013
   19       -0.009  -0.016   0.000  -0.025
   20       -0.021  -0.040   0.000  -0.061
   21       -0.009  -0.016   0.000  -0.025
   22       -0.002  -0.004   0.000  -0.006
   23       -0.023  -0.035   0.000  -0.058
   24       -0.002  -0.004   0.000  -0.006
   25       -0.009  -0.016   0.000  -0.025
   26       -0.021  -0.040   0.000  -0.061
   27       -0.009  -0.016   0.000  -0.025
   28        0.019   0.017   2.382   2.417
   29        0.019   0.017   2.377   2.414
   30       -0.008  -0.006  -2.268  -2.282
   31        0.019   0.017   2.377   2.414
   32        0.019   0.017   2.382   2.417
   33       -0.008  -0.006  -2.268  -2.282
   34        0.018   0.026   2.384   2.428
   35        0.018   0.026   2.384   2.428
   36       -0.025  -0.027  -2.116  -2.168
   37        0.018   0.022   2.380   2.420
   38        0.018   0.022   2.375   2.416
   39       -0.018  -0.016  -2.325  -2.360
   40        0.018   0.021   2.375   2.415
   41        0.018   0.021   2.382   2.421
   42       -0.018  -0.016  -2.324  -2.358
   43        0.020   0.018   2.335   2.373
   44        0.020   0.018   2.333   2.371
   45        0.025   0.021   2.392   2.438
   46        0.018   0.021   2.382   2.421
   47        0.018   0.021   2.375   2.415
   48       -0.018  -0.016  -2.324  -2.358
   49        0.018   0.022   2.375   2.416
   50        0.018   0.022   2.380   2.420
   51       -0.018  -0.016  -2.325  -2.360
   52        0.020   0.018   2.333   2.371
   53        0.020   0.018   2.335   2.373
   54        0.025   0.021   2.392   2.438
--------------------------------------------------
tot         -0.009  -0.168  31.479  31.302
 

 total amount of memory used by VASP MPI-rank0   941748. kBytes
=======================================================================

   base      :      30000. kBytes
   nonl-proj :      28494. kBytes
   fftplans  :      31580. kBytes
   grid      :      21385. kBytes
   one-center:        435. kBytes
   wavefun   :     829854. kBytes
 
  
  
 General timing and accounting informations for this job:
 ========================================================
  
                  Total CPU time used (sec):     1816.755
                            User time (sec):     1791.150
                          System time (sec):       25.605
                         Elapsed time (sec):     1836.529
  
                   Maximum memory used (kb):     1114060.
                   Average memory used (kb):           0.
  
                          Minor page faults:       504840
                          Major page faults:           19
                 Voluntary context switches:         2743
