   36   36    1    2
  0.1314651E+02  0.8250148E-09  0.8250148E-09  0.6953274E-09  0.2000000E-15
  1.000000000000000E-004
  CAR 
 AlMn_pv                                 
    180     52    112
 
  0.0000000E+00  0.0000000E+00  0.0000000E+00  0.6666667E-02
    1       -2.520650     -2.520874   1.000000   1.000000
    2       -0.371962     -0.371994   1.000000   1.000000
    3       -0.351774     -0.350403   1.000000   1.000000
    4       -0.332752     -0.325726   1.000000   1.000000
    5       -0.293258     -0.297755   1.000000   1.000000
    6       -0.117399     -0.126661   1.000000   1.000000
    7        1.350742      1.351675   1.000000   1.000000
    8        1.379474      1.380816   1.000000   1.000000
    9        1.387673      1.388180   1.000000   1.000000
   10        1.413517      1.394911   1.000000   1.000000
   11        1.432345      1.458261   1.000000   1.000000
   12        1.565237      1.561452   1.000000   1.000000
   13        1.572753      1.588390   1.000000   1.000000
   14        1.603911      1.606254   1.000000   1.000000
   15        1.611404      1.623540   1.000000   1.000000
   16        2.739181      2.755972   1.000000   1.000000
   17        2.761721      2.774210   1.000000   1.000000
   18        2.805618      2.809048   1.000000   1.000000
   19        2.831515      2.840661   1.000000   1.000000
   20        3.464445      3.467508   1.000000   1.000000
   21        3.533543      3.536093   1.000000   1.000000
   22        3.539391      3.584871   1.000000   1.000000
   23        3.633850      3.659507   1.000000   1.000000
   24        4.131857      4.085764   1.000000   1.000000
   25        4.160472      4.198366   1.000000   1.000000
   26        4.363584      4.477278   1.000000   1.000000
   27        4.486975      4.505328   1.000000   1.000000
   28        4.492704      4.522083   1.000000   1.000000
   29        4.582373      4.586187   1.000000   1.000000
   30        4.628159      4.608070   1.000000   1.000000
   31        4.712362      4.671584   1.000000   1.000000
   32        4.752336      4.809052   1.000000   1.000000
   33        4.754303      4.809563   1.000000   1.000000
   34        4.834393      4.871910   1.000000   1.000000
   35        4.841188      4.901349   1.000000   1.000000
   36        4.878205      4.911525   1.000000   1.000000
   37        4.903469      4.964386   1.000000   1.000000
   38        4.960213      4.964478   1.000000   1.000000
   39        4.976148      5.050919   1.000000   1.000000
   40        5.081323      5.098280   1.000000   1.000000
   41        5.295578      5.338323   1.000000   1.000000
   42        5.324519      5.360340   1.000000   1.000000
   43        5.408553      5.361757   1.000000   1.000000
   44        5.427969      5.464299   1.000000   1.000000
   45        5.463030      5.466918   1.000000   1.000000
   46        5.491531      5.487080   1.000000   1.000000
   47        5.501511      5.488761   1.000000   1.000000
   48        5.503565      5.577556   1.000000   1.000000
   49        5.529613      5.578904   1.000000   1.000000
   50        5.594963      5.619810   1.000000   1.000000
   51        5.596588      5.625741   1.000000   1.000000
   52        5.643409      5.676662   1.000000   1.000000
   53        5.734574      5.723523   1.000000   1.000000
   54        5.798580      5.796714   1.000000   1.000000
   55        5.868309      5.853923   1.000000   1.000000
   56        5.869847      5.863794   1.000000   1.000000
   57        5.884687      5.871167   1.000000   1.000000
   58        5.889208      6.010470   1.000000   1.000000
   59        6.083221      6.246378   1.000000   1.000000
   60        6.185508      6.299479   1.000000   1.000000
   61        6.223660      6.336039   1.000000   1.000000
   62        6.269084      6.365393   1.000000   1.000000
   63        6.310895      6.372949   1.000000   1.000000
   64        6.371030      6.421071   1.000000   1.000000
   65        6.441258      6.510370   1.000000   1.000000
   66        6.445057      6.551780   1.000000   1.000000
   67        6.458472      6.568798   1.000000   1.000000
   68        6.532724      6.573676   1.000000   1.000000
   69        6.567904      6.652771   1.000000   1.000000
   70        6.629953      6.714070   1.000000   1.000000
   71        6.640518      6.749715   1.000000   1.000000
   72        6.653245      6.825045   1.000000   1.000000
   73        6.718814      6.842127   1.000000   1.000000
   74        6.730930      6.922452   1.000000   1.000000
   75        6.774728      7.139439   1.000000   1.000041
   76        6.860025      7.157391   1.000000   1.000069
   77        6.892602      7.193794   1.000000   1.000188
   78        6.918671      7.200082   1.000000   1.000223
   79        6.926668      7.232730   1.000000   1.000508
   80        6.998198      7.287316   1.000000   1.001763
   81        7.009243      7.354420   1.000001   1.006374
   82        7.017427      7.362804   1.000001   1.007344
   83        7.225751      7.386560   1.000428   1.010668
   84        7.241074      7.512751   1.000621   1.035072
   85        7.268261      7.533975   1.001164   1.034964
   86        7.383552      7.560405   1.010190   1.028661
   87        7.423497      7.620701   1.017569   0.972032
   88        7.447901      7.642333   1.023017   0.932281
   89        7.458557      7.656967   1.025508   0.898984
   90        7.581350      7.661270   1.016747   0.888171
   91        7.704070      8.032667   0.755940  -0.034157
   92        7.806482      8.053780   0.340658  -0.030684
   93        7.938750      8.103913  -0.002547  -0.019453
   94        8.017793      8.160994  -0.035371  -0.008940
   95        8.088806      8.198642  -0.022885  -0.004738
   96        8.133446      8.201450  -0.013413  -0.004501
   97        8.136962      8.297564  -0.012766  -0.000584
   98        8.171747      8.409730  -0.007526  -0.000028
   99        8.260440      8.471527  -0.001370  -0.000004
  100        8.282077      8.535083  -0.000839  -0.000000
  101        8.302713      8.548240  -0.000513  -0.000000
  102        8.340078      8.634014  -0.000199  -0.000000
  103        8.375146      8.692017  -0.000076  -0.000000
  104        8.457726      8.720957  -0.000006  -0.000000
  105        8.542559      8.738357  -0.000000  -0.000000
  106        8.627627      8.777710  -0.000000  -0.000000
  107        8.663461      8.781059  -0.000000  -0.000000
  108        8.696112      8.835160  -0.000000  -0.000000
  109        8.711681      8.877506  -0.000000  -0.000000
  110        8.851355      8.886027  -0.000000  -0.000000
  111        8.924202      8.915657  -0.000000  -0.000000
  112        8.951079      8.923712  -0.000000  -0.000000
 
  0.2000000E+00  0.0000000E+00  0.0000000E+00  0.1333333E-01
    1       -2.430192     -2.430326   1.000000   1.000000
    2       -1.103729     -1.104022   1.000000   1.000000
    3       -0.278626     -0.287721   1.000000   1.000000
    4       -0.231426     -0.217659   1.000000   1.000000
    5       -0.051434     -0.060907   1.000000   1.000000
    6        0.566794      0.566578   1.000000   1.000000
    7        0.891541      0.878690   1.000000   1.000000
    8        0.918025      0.915526   1.000000   1.000000
    9        0.946003      0.956487   1.000000   1.000000
   10        1.416855      1.421219   1.000000   1.000000
   11        1.477713      1.493737   1.000000   1.000000
   12        1.486822      1.510434   1.000000   1.000000
   13        1.936792      1.914835   1.000000   1.000000
   14        2.291849      2.298007   1.000000   1.000000
   15        2.310610      2.322479   1.000000   1.000000
   16        2.330939      2.345720   1.000000   1.000000
   17        2.347205      2.359191   1.000000   1.000000
   18        2.821065      2.836886   1.000000   1.000000
   19        3.221741      3.189835   1.000000   1.000000
   20        3.294325      3.333940   1.000000   1.000000
   21        3.547203      3.553814   1.000000   1.000000
   22        3.666038      3.714482   1.000000   1.000000
   23        3.745038      3.744505   1.000000   1.000000
   24        4.106379      4.068099   1.000000   1.000000
   25        4.133713      4.163870   1.000000   1.000000
   26        4.273310      4.320098   1.000000   1.000000
   27        4.308716      4.347314   1.000000   1.000000
   28        4.490457      4.555579   1.000000   1.000000
   29        4.538896      4.578200   1.000000   1.000000
   30        4.557854      4.608191   1.000000   1.000000
   31        4.619448      4.621138   1.000000   1.000000
   32        4.649670      4.687629   1.000000   1.000000
   33        4.679019      4.711885   1.000000   1.000000
   34        4.743183      4.725054   1.000000   1.000000
   35        4.855224      4.940279   1.000000   1.000000
   36        4.939721      4.986701   1.000000   1.000000
   37        4.964025      5.011673   1.000000   1.000000
   38        5.012131      5.050612   1.000000   1.000000
   39        5.047722      5.052572   1.000000   1.000000
   40        5.107174      5.107110   1.000000   1.000000
   41        5.152743      5.152475   1.000000   1.000000
   42        5.282833      5.286071   1.000000   1.000000
   43        5.308675      5.374286   1.000000   1.000000
   44        5.329805      5.387410   1.000000   1.000000
   45        5.444428      5.447318   1.000000   1.000000
   46        5.464709      5.486868   1.000000   1.000000
   47        5.497748      5.507995   1.000000   1.000000
   48        5.521715      5.521067   1.000000   1.000000
   49        5.609371      5.567156   1.000000   1.000000
   50        5.663945      5.591675   1.000000   1.000000
   51        5.696923      5.682139   1.000000   1.000000
   52        5.761149      5.689037   1.000000   1.000000
   53        5.774353      5.788935   1.000000   1.000000
   54        5.778350      5.828247   1.000000   1.000000
   55        5.843247      5.875445   1.000000   1.000000
   56        5.860469      5.996151   1.000000   1.000000
   57        5.923863      6.002279   1.000000   1.000000
   58        5.983047      6.097944   1.000000   1.000000
   59        6.045795      6.253114   1.000000   1.000000
   60        6.124079      6.287586   1.000000   1.000000
   61        6.129413      6.298583   1.000000   1.000000
   62        6.294936      6.342799   1.000000   1.000000
   63        6.329793      6.345855   1.000000   1.000000
   64        6.339654      6.407065   1.000000   1.000000
   65        6.400983      6.423233   1.000000   1.000000
   66        6.431525      6.462833   1.000000   1.000000
   67        6.448013      6.517169   1.000000   1.000000
   68        6.500227      6.615144   1.000000   1.000000
   69        6.533488      6.616904   1.000000   1.000000
   70        6.543840      6.681049   1.000000   1.000000
   71        6.597500      6.781902   1.000000   1.000000
   72        6.682681      6.801066   1.000000   1.000000
   73        6.752463      6.841748   1.000000   1.000000
   74        6.763278      6.936900   1.000000   1.000000
   75        6.785193      6.939369   1.000000   1.000000
   76        6.800241      6.989231   1.000000   1.000000
   77        6.853317      7.034787   1.000000   1.000001
   78        6.884130      7.195042   1.000000   1.000195
   79        6.923848      7.195643   1.000000   1.000198
   80        6.982671      7.297027   1.000000   1.002160
   81        6.992423      7.430081   1.000000   1.018999
   82        7.057115      7.434822   1.000003   1.020037
   83        7.116566      7.474081   1.000021   1.028971
   84        7.182340      7.504156   1.000138   1.034250
   85        7.262282      7.570674   1.001017   1.023651
   86        7.432373      7.587557   1.019500   1.011822
   87        7.451259      7.624328   1.023796   0.966209
   88        7.456162      7.630654   1.024955   0.955282
   89        7.584718      7.749015   1.014146   0.580025
   90        7.616526      7.756664   0.978384   0.548142
   91        7.715877      7.931463   0.712602   0.005685
   92        7.764068      8.054466   0.516735  -0.030543
   93        7.920886      8.156087   0.019639  -0.009654
   94        8.002899      8.190077  -0.035040  -0.005518
   95        8.075865      8.213212  -0.025872  -0.003610
   96        8.126059      8.294915  -0.014815  -0.000622
   97        8.192677      8.300168  -0.005262  -0.000548
   98        8.197267      8.321774  -0.004847  -0.000321
   99        8.209071      8.447816  -0.003899  -0.000008
  100        8.230424      8.499924  -0.002574  -0.000001
  101        8.301342      8.543917  -0.000533  -0.000000
  102        8.368442      8.549853  -0.000092  -0.000000
  103        8.399855      8.689613  -0.000037  -0.000000
  104        8.483447      8.710107  -0.000002  -0.000000
  105        8.503297      8.726551  -0.000001  -0.000000
  106        8.533726      8.775279  -0.000000  -0.000000
  107        8.654447      8.783660  -0.000000  -0.000000
  108        8.830256      8.928919  -0.000000  -0.000000
  109        8.889698      8.979059  -0.000000  -0.000000
  110        8.922642      8.993048  -0.000000  -0.000000
  111        8.932389      9.027415  -0.000000  -0.000000
  112        8.950048      9.074329  -0.000000  -0.000000
 
  0.4000000E+00  0.0000000E+00  0.0000000E+00  0.1333333E-01
    1       -2.160908     -2.160319   1.000000   1.000000
    2       -1.713890     -1.715329   1.000000   1.000000
    3       -0.032719     -0.039633   1.000000   1.000000
    4        0.011484      0.025527   1.000000   1.000000
    5        0.144047      0.133648   1.000000   1.000000
    6        0.374011      0.365503   1.000000   1.000000
    7        0.412298      0.423048   1.000000   1.000000
    8        0.464071      0.453729   1.000000   1.000000
    9        1.578873      1.583282   1.000000   1.000000
   10        1.602777      1.608968   1.000000   1.000000
   11        1.664449      1.690124   1.000000   1.000000
   12        1.757290      1.774216   1.000000   1.000000
   13        1.908155      1.918512   1.000000   1.000000
   14        1.970777      1.983856   1.000000   1.000000
   15        2.216492      2.228671   1.000000   1.000000
   16        2.348730      2.314422   1.000000   1.000000
   17        2.673904      2.678731   1.000000   1.000000
   18        2.895114      2.893576   1.000000   1.000000
   19        3.057935      3.093265   1.000000   1.000000
   20        3.560251      3.467225   1.000000   1.000000
   21        3.743990      3.760105   1.000000   1.000000
   22        3.767884      3.851565   1.000000   1.000000
   23        3.817964      3.853591   1.000000   1.000000
   24        4.005547      4.012270   1.000000   1.000000
   25        4.010569      4.044187   1.000000   1.000000
   26        4.127316      4.149936   1.000000   1.000000
   27        4.166817      4.159989   1.000000   1.000000
   28        4.213378      4.296908   1.000000   1.000000
   29        4.309435      4.339039   1.000000   1.000000
   30        4.483960      4.578216   1.000000   1.000000
   31        4.519995      4.608364   1.000000   1.000000
   32        4.552832      4.624921   1.000000   1.000000
   33        4.660540      4.658578   1.000000   1.000000
   34        4.754794      4.720140   1.000000   1.000000
   35        4.820644      4.857800   1.000000   1.000000
   36        4.924846      4.900197   1.000000   1.000000
   37        5.022404      5.056482   1.000000   1.000000
   38        5.040042      5.061909   1.000000   1.000000
   39        5.125552      5.114527   1.000000   1.000000
   40        5.180325      5.164440   1.000000   1.000000
   41        5.207770      5.220709   1.000000   1.000000
   42        5.215511      5.257863   1.000000   1.000000
   43        5.323562      5.333542   1.000000   1.000000
   44        5.334563      5.388654   1.000000   1.000000
   45        5.422359      5.438455   1.000000   1.000000
   46        5.468673      5.495559   1.000000   1.000000
   47        5.508934      5.512788   1.000000   1.000000
   48        5.585664      5.517052   1.000000   1.000000
   49        5.645602      5.605615   1.000000   1.000000
   50        5.650787      5.606564   1.000000   1.000000
   51        5.674050      5.663363   1.000000   1.000000
   52        5.745941      5.713059   1.000000   1.000000
   53        5.768149      5.732585   1.000000   1.000000
   54        5.794996      5.856284   1.000000   1.000000
   55        5.834744      5.985509   1.000000   1.000000
   56        5.926582      6.040411   1.000000   1.000000
   57        5.969347      6.120006   1.000000   1.000000
   58        6.006621      6.159562   1.000000   1.000000
   59        6.018108      6.169503   1.000000   1.000000
   60        6.033198      6.182891   1.000000   1.000000
   61        6.116043      6.241405   1.000000   1.000000
   62        6.211835      6.312844   1.000000   1.000000
   63        6.267297      6.321383   1.000000   1.000000
   64        6.322061      6.343929   1.000000   1.000000
   65        6.345843      6.424344   1.000000   1.000000
   66        6.348656      6.451871   1.000000   1.000000
   67        6.430465      6.464644   1.000000   1.000000
   68        6.440288      6.543248   1.000000   1.000000
   69        6.502721      6.566611   1.000000   1.000000
   70        6.535176      6.670356   1.000000   1.000000
   71        6.570920      6.741027   1.000000   1.000000
   72        6.613656      6.790607   1.000000   1.000000
   73        6.639195      6.814248   1.000000   1.000000
   74        6.711923      6.856264   1.000000   1.000000
   75        6.728449      6.929047   1.000000   1.000000
   76        6.798362      6.948542   1.000000   1.000000
   77        6.847729      7.031448   1.000000   1.000001
   78        6.875018      7.074424   1.000000   1.000005
   79        6.982912      7.117534   1.000000   1.000021
   80        7.047764      7.272516   1.000002   1.001280
   81        7.059213      7.383644   1.000003   1.010201
   82        7.150574      7.407258   1.000057   1.014260
   83        7.155188      7.484407   1.000065   1.031093
   84        7.194325      7.561523   1.000191   1.028183
   85        7.292106      7.581807   1.001949   1.016453
   86        7.417387      7.590218   1.016289   1.009422
   87        7.432444      7.604349   1.019513   0.994564
   88        7.458097      7.745038   1.025397   0.596516
   89        7.581066      7.853679   1.016998   0.171983
   90        7.624579      7.989714   0.965745  -0.033016
   91        7.725817      8.017152   0.674287  -0.035393
   92        7.820663      8.076712   0.285607  -0.025693
   93        7.877779      8.080483   0.104272  -0.024816
   94        7.935578      8.153452   0.000943  -0.010039
   95        7.974720      8.208571  -0.028264  -0.003937
   96        8.121529      8.261006  -0.015711  -0.001354
   97        8.166299      8.263596  -0.008221  -0.001279
   98        8.178706      8.301872  -0.006705  -0.000526
   99        8.228453      8.349960  -0.002677  -0.000154
  100        8.265347      8.437363  -0.001230  -0.000012
  101        8.302405      8.453235  -0.000519  -0.000007
  102        8.331480      8.492984  -0.000250  -0.000002
  103        8.351666      8.650363  -0.000147  -0.000000
  104        8.369542      8.660023  -0.000089  -0.000000
  105        8.440113      8.696553  -0.000011  -0.000000
  106        8.565030      8.739120  -0.000000  -0.000000
  107        8.687765      8.910764  -0.000000  -0.000000
  108        8.768957      8.959011  -0.000000  -0.000000
  109        8.802496      9.062298  -0.000000  -0.000000
  110        8.959990      9.071344  -0.000000  -0.000000
  111        9.063306      9.133838  -0.000000  -0.000000
  112        9.150684      9.281940  -0.000000  -0.000000
 
  0.0000000E+00  0.2000000E+00  0.0000000E+00  0.1333333E-01
    1       -2.430107     -2.430656   1.000000   1.000000
    2       -1.104654     -1.102138   1.000000   1.000000
    3       -0.260080     -0.268667   1.000000   1.000000
    4       -0.248958     -0.241414   1.000000   1.000000
    5       -0.052196     -0.060469   1.000000   1.000000
    6        0.566516      0.569639   1.000000   1.000000
    7        0.884726      0.885038   1.000000   1.000000
    8        0.930307      0.926122   1.000000   1.000000
    9        0.933549      0.945769   1.000000   1.000000
   10        1.447087      1.444939   1.000000   1.000000
   11        1.477420      1.453038   1.000000   1.000000
   12        1.482017      1.492208   1.000000   1.000000
   13        1.916466      1.947547   1.000000   1.000000
   14        2.300569      2.322854   1.000000   1.000000
   15        2.322254      2.324007   1.000000   1.000000
   16        2.326637      2.333764   1.000000   1.000000
   17        2.342402      2.339011   1.000000   1.000000
   18        2.820971      2.844860   1.000000   1.000000
   19        3.223469      3.244951   1.000000   1.000000
   20        3.264894      3.296890   1.000000   1.000000
   21        3.596469      3.590775   1.000000   1.000000
   22        3.619704      3.642468   1.000000   1.000000
   23        3.735759      3.747178   1.000000   1.000000
   24        4.100680      4.068602   1.000000   1.000000
   25        4.126146      4.158735   1.000000   1.000000
   26        4.293296      4.334450   1.000000   1.000000
   27        4.340731      4.426728   1.000000   1.000000
   28        4.436570      4.483182   1.000000   1.000000
   29        4.551664      4.541553   1.000000   1.000000
   30        4.592573      4.626128   1.000000   1.000000
   31        4.617079      4.633841   1.000000   1.000000
   32        4.645292      4.639657   1.000000   1.000000
   33        4.683586      4.706195   1.000000   1.000000
   34        4.715005      4.770913   1.000000   1.000000
   35        4.801275      4.855184   1.000000   1.000000
   36        4.923258      4.948668   1.000000   1.000000
   37        4.973092      5.030049   1.000000   1.000000
   38        5.032680      5.052544   1.000000   1.000000
   39        5.035171      5.074438   1.000000   1.000000
   40        5.128795      5.096684   1.000000   1.000000
   41        5.135090      5.151357   1.000000   1.000000
   42        5.308841      5.338654   1.000000   1.000000
   43        5.372682      5.357239   1.000000   1.000000
   44        5.428355      5.419557   1.000000   1.000000
   45        5.466724      5.460053   1.000000   1.000000
   46        5.482120      5.487160   1.000000   1.000000
   47        5.497360      5.526964   1.000000   1.000000
   48        5.509590      5.594457   1.000000   1.000000
   49        5.538508      5.594584   1.000000   1.000000
   50        5.578574      5.639713   1.000000   1.000000
   51        5.640288      5.666898   1.000000   1.000000
   52        5.690041      5.712579   1.000000   1.000000
   53        5.824251      5.804287   1.000000   1.000000
   54        5.842044      5.807649   1.000000   1.000000
   55        5.881716      5.844291   1.000000   1.000000
   56        5.898611      5.889304   1.000000   1.000000
   57        5.935585      5.905736   1.000000   1.000000
   58        5.992676      6.029159   1.000000   1.000000
   59        6.094153      6.303775   1.000000   1.000000
   60        6.156527      6.325829   1.000000   1.000000
   61        6.211666      6.340528   1.000000   1.000000
   62        6.258724      6.353713   1.000000   1.000000
   63        6.280330      6.356351   1.000000   1.000000
   64        6.326368      6.386045   1.000000   1.000000
   65        6.387961      6.434010   1.000000   1.000000
   66        6.439914      6.462164   1.000000   1.000000
   67        6.467136      6.510201   1.000000   1.000000
   68        6.508661      6.585438   1.000000   1.000000
   69        6.524514      6.621372   1.000000   1.000000
   70        6.532558      6.718362   1.000000   1.000000
   71        6.616179      6.739249   1.000000   1.000000
   72        6.629388      6.771283   1.000000   1.000000
   73        6.716508      6.794761   1.000000   1.000000
   74        6.750453      6.962985   1.000000   1.000000
   75        6.757186      7.021083   1.000000   1.000001
   76        6.804685      7.164520   1.000000   1.000085
   77        6.874071      7.172143   1.000000   1.000105
   78        6.910128      7.241009   1.000000   1.000620
   79        6.925352      7.256008   1.000000   1.000882
   80        6.957669      7.276936   1.000000   1.001410
   81        6.963612      7.346398   1.000000   1.005548
   82        7.025196      7.400757   1.000001   1.013080
   83        7.079300      7.411542   1.000006   1.015116
   84        7.127014      7.482055   1.000028   1.030628
   85        7.319613      7.528480   1.003388   1.035340
   86        7.336641      7.546289   1.004656   1.033052
   87        7.477049      7.597399   1.029603   1.002393
   88        7.485807      7.667043   1.031364   0.872761
   89        7.585298      7.707349   1.013677   0.744192
   90        7.620923      7.761099   0.971675   0.529380
   91        7.702579      7.912183   0.761242   0.033043
   92        7.823962      8.031580   0.273395  -0.034292
   93        7.937865      8.074110  -0.001595  -0.026282
   94        8.039700      8.081959  -0.033177  -0.024472
   95        8.053480      8.161307  -0.030736  -0.008910
   96        8.087931      8.217221  -0.023082  -0.003346
   97        8.106960      8.251104  -0.018778  -0.001679
   98        8.170151      8.371267  -0.007723  -0.000085
   99        8.245064      8.436991  -0.001904  -0.000012
  100        8.270928      8.481842  -0.001085  -0.000003
  101        8.310681      8.607591  -0.000424  -0.000000
  102        8.321276      8.626811  -0.000325  -0.000000
  103        8.401584      8.686400  -0.000035  -0.000000
  104        8.421633      8.697891  -0.000019  -0.000000
  105        8.494137      8.731228  -0.000002  -0.000000
  106        8.587407      8.810849  -0.000000  -0.000000
  107        8.694390      8.867750  -0.000000  -0.000000
  108        8.786607      8.886925  -0.000000  -0.000000
  109        8.824659      8.914153  -0.000000  -0.000000
  110        8.937652      8.978556  -0.000000  -0.000000
  111        8.956670      9.049291  -0.000000  -0.000000
  112        9.094552      9.079089  -0.000000  -0.000000
 
  0.2000000E+00  0.2000000E+00  0.0000000E+00  0.1333333E-01
    1       -2.339954     -2.340370   1.000000   1.000000
    2       -1.023330     -1.019607   1.000000   1.000000
    3       -1.012893     -1.015325   1.000000   1.000000
    4        0.013706      0.005082   1.000000   1.000000
    5        0.225852      0.228851   1.000000   1.000000
    6        0.640391      0.645596   1.000000   1.000000
    7        0.651096      0.649335   1.000000   1.000000
    8        0.947932      0.938025   1.000000   1.000000
    9        0.955229      0.955104   1.000000   1.000000
   10        1.571251      1.583424   1.000000   1.000000
   11        1.729610      1.745673   1.000000   1.000000
   12        1.758909      1.758223   1.000000   1.000000
   13        1.850667      1.851911   1.000000   1.000000
   14        1.977889      1.974996   1.000000   1.000000
   15        2.001303      2.012062   1.000000   1.000000
   16        2.810899      2.831950   1.000000   1.000000
   17        2.854622      2.860374   1.000000   1.000000
   18        2.860740      2.884045   1.000000   1.000000
   19        2.896340      2.900196   1.000000   1.000000
   20        2.912196      2.942775   1.000000   1.000000
   21        3.659995      3.678068   1.000000   1.000000
   22        3.777526      3.790218   1.000000   1.000000
   23        3.788768      3.797745   1.000000   1.000000
   24        3.857764      3.866773   1.000000   1.000000
   25        4.117928      4.150999   1.000000   1.000000
   26        4.336799      4.342088   1.000000   1.000000
   27        4.352399      4.361733   1.000000   1.000000
   28        4.369006      4.385102   1.000000   1.000000
   29        4.423348      4.404976   1.000000   1.000000
   30        4.481165      4.521211   1.000000   1.000000
   31        4.503358      4.548857   1.000000   1.000000
   32        4.544994      4.679097   1.000000   1.000000
   33        4.710562      4.706683   1.000000   1.000000
   34        4.729009      4.763530   1.000000   1.000000
   35        4.776849      4.821910   1.000000   1.000000
   36        4.843187      4.885562   1.000000   1.000000
   37        4.930338      4.943430   1.000000   1.000000
   38        4.982399      5.076520   1.000000   1.000000
   39        5.111029      5.100750   1.000000   1.000000
   40        5.148016      5.184709   1.000000   1.000000
   41        5.256814      5.266831   1.000000   1.000000
   42        5.268581      5.282969   1.000000   1.000000
   43        5.332286      5.296411   1.000000   1.000000
   44        5.342146      5.360760   1.000000   1.000000
   45        5.453188      5.418975   1.000000   1.000000
   46        5.476611      5.492931   1.000000   1.000000
   47        5.496534      5.554456   1.000000   1.000000
   48        5.601499      5.555674   1.000000   1.000000
   49        5.606242      5.655991   1.000000   1.000000
   50        5.722266      5.668909   1.000000   1.000000
   51        5.728028      5.680279   1.000000   1.000000
   52        5.769154      5.785165   1.000000   1.000000
   53        5.786264      5.798502   1.000000   1.000000
   54        5.840074      5.849421   1.000000   1.000000
   55        5.844170      5.905138   1.000000   1.000000
   56        5.911229      5.961773   1.000000   1.000000
   57        5.942083      6.031262   1.000000   1.000000
   58        6.004579      6.057479   1.000000   1.000000
   59        6.062846      6.233888   1.000000   1.000000
   60        6.087113      6.280277   1.000000   1.000000