       N       E                     dE             d eps       ncg     rms          ort
DAV:   1     0.135126214413E+04    0.13513E+04   -0.58819E+04  5824   0.143E+03
DAV:   2    -0.609668326790E+02   -0.14122E+04   -0.13793E+04  5824   0.438E+02
DAV:   3    -0.237648965537E+03   -0.17668E+03   -0.15899E+03  5824   0.168E+02
DAV:   4    -0.265649825535E+03   -0.28001E+02   -0.24900E+02  5824   0.732E+01
DAV:   5    -0.268816947416E+03   -0.31671E+01   -0.30041E+01  5824   0.219E+01
DAV:   6    -0.269083084474E+03   -0.26614E+00   -0.25812E+00  5824   0.560E+00
DAV:   7    -0.269112226178E+03   -0.29142E-01   -0.28630E-01  5824   0.163E+00
DAV:   8    -0.269115063400E+03   -0.28372E-02   -0.27981E-02  5824   0.433E-01
SDA:   9    -0.603586887011E+02    0.20876E+03   -0.27981E-02  5824   0.238E+04 0.000E+00
CGA:  10    -0.202740621480E+03   -0.14238E+03   -0.13974E+03  5824   0.213E+03 0.503E+03
CGA:  11    -0.216943865425E+03   -0.14203E+02   -0.14115E+02  5824   0.497E+02 0.817E+01
CGA:  12    -0.225226871366E+03   -0.82830E+01   -0.82826E+01  5824   0.102E+03 0.702E-02
CGA:  13    -0.232271233852E+03   -0.70444E+01   -0.72331E+01  5824   0.213E+02-0.702E+00
CGA:  14    -0.233691442109E+03   -0.14202E+01   -0.14434E+01  5824   0.520E+01-0.162E+00
CGA:  15    -0.234428434151E+03   -0.73699E+00   -0.73887E+00  5824   0.680E+01 0.200E-01
CGA:  16    -0.235075698650E+03   -0.64726E+00   -0.65198E+00  5824   0.242E+01-0.952E-02
CGA:  17    -0.235284259409E+03   -0.20856E+00   -0.20901E+00  5824   0.119E+01-0.105E-02
CGA:  18    -0.235462942671E+03   -0.17868E+00   -0.17877E+00  5824   0.151E+01 0.205E-02
CGA:  19    -0.235593630140E+03   -0.13069E+00   -0.13179E+00  5824   0.573E+00-0.666E-02
CGA:  20    -0.235645996364E+03   -0.52366E-01   -0.52536E-01  5824   0.339E+00-0.967E-03
CGA:  21    -0.235709102899E+03   -0.63107E-01   -0.63058E-01  5824   0.433E+00 0.990E-03
CGA:  22    -0.235755609988E+03   -0.46507E-01   -0.46527E-01  5824   0.190E+00-0.197E-03
CGA:  23    -0.235774916119E+03   -0.19306E-01   -0.19316E-01  5824   0.122E+00-0.264E-03
CGA:  24    -0.235793667381E+03   -0.18751E-01   -0.18752E-01  5824   0.121E+00-0.321E-03
CGA:  25    -0.235807569293E+03   -0.13902E-01   -0.13906E-01  5824   0.990E-01-0.248E-03
CGA:  26    -0.235821043028E+03   -0.13474E-01   -0.13473E-01  5824   0.862E-01-0.903E-04
CGA:  27    -0.235831552990E+03   -0.10510E-01   -0.10507E-01  5824   0.463E-01-0.235E-04
CGA:  28    -0.235836842174E+03   -0.52892E-02   -0.52876E-02  5824   0.302E-01 0.483E-04
CGA:  29    -0.235841333547E+03   -0.44914E-02   -0.44913E-02  5824   0.259E-01 0.425E-04
CGA:  30    -0.235844339482E+03   -0.30059E-02   -0.30061E-02  5824   0.182E-01 0.511E-04
CGA:  31    -0.235847054260E+03   -0.27148E-02   -0.27146E-02  5824   0.189E-01 0.458E-04
CGA:  32    -0.235849448710E+03   -0.23945E-02   -0.23948E-02  5824   0.136E-01 0.840E-04
CGA:  33    -0.235850892604E+03   -0.14439E-02   -0.14467E-02  5824   0.712E-02 0.773E-04
CGA:  34    -0.235852088394E+03   -0.11958E-02   -0.11944E-02  5824   0.657E-02 0.632E-04
CGA:  35    -0.235852813015E+03   -0.72462E-03   -0.72563E-03  5824   0.355E-02 0.239E-04
CGA:  36    -0.235853268507E+03   -0.45549E-03   -0.45563E-03  5824   0.309E-02 0.124E-04
CGA:  37    -0.235853850520E+03   -0.58201E-03   -0.58068E-03  5824   0.414E-02 0.230E-04
CGA:  38    -0.235854258805E+03   -0.40829E-03   -0.40898E-03  5824   0.147E-02 0.227E-04
CGA:  39    -0.235854412591E+03   -0.15379E-03   -0.15416E-03  5824   0.930E-03 0.836E-05
SDA:  40    -0.235854582141E+03   -0.16955E-03   -0.16959E-03  5824   0.122E-02-0.178E-06
CGA:  41    -0.235854674352E+03   -0.92211E-04   -0.91727E-04  5824   0.686E-03-0.749E-05
CGA:  42    -0.235854752326E+03   -0.77974E-04   -0.77689E-04  5824   0.395E-03-0.116E-04
CGA:  43    -0.235854855802E+03   -0.10348E-03   -0.10516E-03  5824   0.894E-03-0.127E-04
CGA:  44    -0.235854925541E+03   -0.69739E-04   -0.69285E-04  5824   0.197E-03-0.692E-05
CGA:  45    -0.235854957279E+03   -0.31738E-04   -0.31801E-04  5824   0.351E-03-0.285E-05
CGA:  46    -0.235855018457E+03   -0.61179E-04   -0.61320E-04  5824   0.154E-03-0.402E-05
CGA:  47    -0.235855047131E+03   -0.28673E-04   -0.28656E-04  5824   0.304E-03 0.480E-06
CGA:  48    -0.235855079743E+03   -0.32613E-04   -0.32637E-04  5824   0.130E-03 0.740E-06
CGA:  49    -0.235855093009E+03   -0.13266E-04   -0.13276E-04  5824   0.103E-03 0.373E-06
CGA:  50    -0.235855112197E+03   -0.19188E-04   -0.19164E-04  5824   0.571E-04 0.621E-06
CGA:  51    -0.235855117840E+03   -0.56425E-05   -0.56886E-05  5824   0.439E-04 0.107E-05
CGA:  52    -0.235855127116E+03   -0.92768E-05   -0.91435E-05  5824   0.410E-04 0.217E-05
CGA:  53    -0.235855131159E+03   -0.40422E-05   -0.40574E-05  5824   0.258E-04 0.282E-06
CGA:  54    -0.235855136724E+03   -0.55652E-05   -0.55873E-05  5824   0.272E-04-0.283E-06
CGA:  55    -0.235855138923E+03   -0.21995E-05   -0.22081E-05  5824   0.113E-04 0.140E-06
CGA:  56    -0.235855140404E+03   -0.14812E-05   -0.14887E-05  5824   0.841E-05 0.629E-06
CGA:  57    -0.235855141363E+03   -0.95817E-06   -0.96165E-06  5824   0.877E-05 0.124E-06
CGA:  58    -0.235855143927E+03   -0.25647E-05   -0.27222E-05  5824   0.373E-05-0.973E-06
CGA:  59    -0.235855144470E+03   -0.54302E-06   -0.54195E-06  5824   0.589E-05 0.725E-07
CGA:  60    -0.235855145352E+03   -0.88137E-06   -0.88196E-06  5824   0.159E-05 0.254E-06
CGA:  61    -0.235855145537E+03   -0.18540E-06   -0.19061E-06  5824   0.241E-05 0.123E-06
CGA:  62    -0.235855146052E+03   -0.51530E-06   -0.50473E-06  5824   0.130E-05 0.229E-06
CGA:  63    -0.235855146200E+03   -0.14745E-06   -0.14340E-06  5824   0.994E-06-0.807E-07
CGA:  64    -0.235855146379E+03   -0.17870E-06   -0.19845E-06  5824   0.122E-05-0.295E-06
CGA:  65    -0.235855146450E+03   -0.71890E-07   -0.69762E-07  5824   0.573E-06-0.161E-07
   1 F= -.23585515E+03 E0= -.23586044E+03  d E =0.158797E-01  mag=     2.9129
