 vasp.5.4.4.18Apr17-6-g9f103f2a35 (build Dec 20 2018 12:05:58) complex          
  
 executed on             LinuxIFC date 2019.06.20  13:59:13
 running on   32 total cores
 distrk:  each k-point on    8 cores,    4 groups
 distr:  one band on NCORES_PER_BAND=   4 cores,    2 groups


--------------------------------------------------------------------------------------------------------


 INCAR:
 POTCAR:    PAW_PBE Al 04Jan2001                  
 POTCAR:    PAW_PBE Mn 06Sep2000                  

 ----------------------------------------------------------------------------- 
|                                                                             |
|           W    W    AA    RRRRR   N    N  II  N    N   GGGG   !!!           |
|           W    W   A  A   R    R  NN   N  II  NN   N  G    G  !!!           |
|           W    W  A    A  R    R  N N  N  II  N N  N  G       !!!           |
|           W WW W  AAAAAA  RRRRR   N  N N  II  N  N N  G  GGG   !            |
|           WW  WW  A    A  R   R   N   NN  II  N   NN  G    G                |
|           W    W  A    A  R    R  N    N  II  N    N   GGGG   !!!           |
|                                                                             |
|      You have enabled k-point parallelism (KPAR>1).                         |
|      This developmental code was originally  written by Paul Kent at ORNL,  |
|      and carefully double checked in Vienna.                                |
|      GW as well as linear response parallelism added by Martijn Marsman     |
|      and Georg Kresse.                                                      |
|      Carefully verify results versus KPAR=1.                                |
|      Report problems to Paul Kent and Vienna.                               |
|                                                                             |
 ----------------------------------------------------------------------------- 

 POTCAR:    PAW_PBE Al 04Jan2001                  
   VRHFIN =Al: s2p1                                                             
   LEXCH  = PE                                                                  
   EATOM  =    53.5387 eV,    3.9350 Ry                                         
                                                                                
   TITEL  = PAW_PBE Al 04Jan2001                                                
   LULTRA =        F    use ultrasoft PP ?                                      
   IUNSCR =        1    unscreen: 0-lin 1-nonlin 2-no                           
   RPACOR =    1.500    partial core radius                                     
   POMASS =   26.981; ZVAL   =    3.000    mass and valenz                      
   RCORE  =    1.900    outmost cutoff radius                                   
   RWIGS  =    2.650; RWIGS  =    1.402    wigner-seitz radius (au A)           
   ENMAX  =  240.300; ENMIN  =  180.225 eV                                      
   ICORE  =        2    local potential                                         
   LCOR   =        T    correct aug charges                                     
   LPAW   =        T    paw PP                                                  
   EAUG   =  291.052                                                            
   DEXC   =    0.000                                                            
   RMAX   =    1.939    core radius for proj-oper                               
   RAUG   =    1.300    factor for augmentation sphere                          
   RDEP   =    1.966    radius for radial grids                                 
   RDEPT  =    1.856    core radius for aug-charge                              
                                                                                
   Atomic configuration                                                         
    6 entries                                                                   
     n  l   j            E        occ.                                          
     1  0  0.50     -1511.1048   2.0000                                         
     2  0  0.50      -108.1629   2.0000                                         
     2  1  1.50       -69.6402   6.0000                                         
     3  0  0.50        -7.7528   2.0000                                         
     3  1  1.50        -2.7121   1.0000                                         
     3  2  2.50        -2.7212   0.0000                                         
   Description                                                                  
     l       E           TYP  RCUT    TYP  RCUT                                 
     0     -7.7528455     23  1.900                                             
     0     -3.3096929     23  1.900                                             
     1     -2.7120682     23  1.900                                             
     1     13.6058260     23  1.900                                             
     2     -2.7211652      7  1.900                                             
  local pseudopotential read in
  partial core-charges read in
  partial kinetic energy density read in
  atomic valenz-charges read in
  non local Contribution for L=           0  read in
    real space projection operators read in
  non local Contribution for L=           0  read in
    real space projection operators read in
  non local Contribution for L=           1  read in
    real space projection operators read in
  non local Contribution for L=           1  read in
    real space projection operators read in
    PAW grid and wavefunctions read in
 
   number of l-projection  operators is LMAX  =           4
   number of lm-projection operators is LMMAX =           8
 
 POTCAR:    PAW_PBE Mn 06Sep2000                  
   VRHFIN =Mn: d6 s1                                                            
   LEXCH  = PE                                                                  
   EATOM  =   416.7541 eV,   30.6306 Ry                                         
                                                                                
   TITEL  = PAW_PBE Mn 06Sep2000                                                
   LULTRA =        F    use ultrasoft PP ?                                      
   IUNSCR =        1    unscreen: 0-lin 1-nonlin 2-no                           
   RPACOR =    2.000    partial core radius                                     
   POMASS =   54.938; ZVAL   =    7.000    mass and valenz                      
   RCORE  =    2.300    outmost cutoff radius                                   
   RWIGS  =    2.500; RWIGS  =    1.323    wigner-seitz radius (au A)           
   ENMAX  =  269.864; ENMIN  =  202.398 eV                                      
   RCLOC  =    1.725    cutoff for local pot                                    
   LCOR   =        T    correct aug charges                                     
   LPAW   =        T    paw PP                                                  
   EAUG   =  500.711                                                            
   DEXC   =    0.000                                                            
   RMAX   =    2.343    core radius for proj-oper                               
   RAUG   =    1.300    factor for augmentation sphere                          
   RDEP   =    2.338    radius for radial grids                                 
   RDEPT  =    1.911    core radius for aug-charge                              
                                                                                
   Atomic configuration                                                         
    9 entries                                                                   
     n  l   j            E        occ.                                          
     1  0  0.50     -6424.8288   2.0000                                         
     2  0  0.50      -739.1154   2.0000                                         
     2  1  1.50      -625.3949   6.0000                                         
     3  0  0.50       -81.6100   2.0000                                         
     3  1  1.50       -50.4667   6.0000                                         
     3  2  2.50        -3.3745   6.0000                                         
     4  0  0.50        -4.1331   1.0000                                         
     4  1  0.50        -4.0817   0.0000                                         
     4  3  2.50        -1.3606   0.0000                                         
   Description                                                                  
     l       E           TYP  RCUT    TYP  RCUT                                 
     2     -3.3744664     23  2.300                                             
     2     -4.7350490     23  2.300                                             
     0     -4.1331408     23  2.300                                             
     0      7.6656614     23  2.300                                             
     1     -2.7211652     23  2.300                                             
     1     20.4087390     23  2.300                                             
  local pseudopotential read in
  partial core-charges read in
  partial kinetic energy density read in
  atomic valenz-charges read in
  non local Contribution for L=           2  read in
    real space projection operators read in
  non local Contribution for L=           2  read in
    real space projection operators read in
  non local Contribution for L=           0  read in
    real space projection operators read in
  non local Contribution for L=           0  read in
    real space projection operators read in
  non local Contribution for L=           1  read in
    real space projection operators read in
  non local Contribution for L=           1  read in
    real space projection operators read in
    PAW grid and wavefunctions read in
 
   number of l-projection  operators is LMAX  =           6
   number of lm-projection operators is LMMAX =          18
 

 ----------------------------------------------------------------------------- 
|                                                                             |
|  ADVICE TO THIS USER RUNNING 'VASP/VAMP'   (HEAR YOUR MASTER'S VOICE ...):  |
|                                                                             |
|      You have a (more or less) 'large supercell' and for larger cells       |
|      it might be more efficient to use real space projection opertators     |
|      So try LREAL= Auto  in the INCAR   file.                               |
|      Mind:          For very  accurate calculation you might also keep the  |
|      reciprocal projection scheme          (i.e. LREAL=.FALSE.)             |
|                                                                             |
 ----------------------------------------------------------------------------- 

  PAW_PBE Al 04Jan2001                  :
 energy of atom  1       EATOM=  -53.5387
 kinetic energy error for atom=    0.0005 (will be added to EATOM!!)
  PAW_PBE Mn 06Sep2000                  :
 energy of atom  2       EATOM= -416.7541
 kinetic energy error for atom=    0.0080 (will be added to EATOM!!)
 
 
 POSCAR: NewRef: 18, @ ['Mn', array([1.37502469, 
  positions in cartesian coordinates
  velocities in cartesian coordinates
  No initial velocities read in
 exchange correlation table for  LEXCH =        8
   RHO(1)=    0.500       N(1)  =     2000
   RHO(2)=  100.500       N(2)  =     4000
 


--------------------------------------------------------------------------------------------------------


 ion  position               nearest neighbor table
   1  0.000  0.000  0.000-  20 2.61  24 2.61  32 2.61  36 2.61  31 2.61  23 2.61  35 2.61  19 2.61
                             3 2.75   7 2.75   5 2.75  13 2.75
   2  0.000  0.000  0.500-  19 2.61  23 2.61  31 2.61  35 2.61  20 2.61  32 2.61  24 2.61  36 2.61
                             4 2.75   8 2.75   6 2.75  14 2.75
   3  0.000  0.333  0.000-  20 2.61  32 2.61  22 2.61  34 2.61  19 2.61  31 2.61  33 2.61  21 2.61
                             9 2.75   1 2.75   5 2.75  15 2.75
   4  0.000  0.333  0.500-  19 2.61  31 2.61  21 2.61  33 2.61  32 2.61  20 2.61  22 2.61  34 2.61
                            10 2.75   2 2.75   6 2.75  16 2.75
   5  0.000  0.667  0.000-  22 2.61  34 2.61  24 2.61  36 2.61  21 2.61  33 2.61  35 2.61  23 2.61
                             3 2.75  11 2.75   1 2.75  17 2.75
   6  0.000  0.667  0.500-  21 2.61  33 2.61  23 2.61  35 2.61  34 2.61  22 2.61  24 2.61  36 2.61
                             4 2.75  12 2.75   2 2.75  18 2.75
   7  0.333  0.000  0.000-  20 2.61  24 2.61  26 2.61  30 2.61  23 2.61  19 2.61  29 2.61  25 2.61
                            13 2.75   1 2.75   9 2.75  11 2.75
   8  0.333  0.000  0.500-  19 2.61  23 2.61  25 2.61  29 2.61  20 2.61  24 2.61  26 2.61  30 2.61
                            14 2.75   2 2.75  10 2.75  12 2.75
   9  0.333  0.333  0.000-  20 2.61  22 2.61  26 2.61  19 2.61  28 2.61  21 2.61  25 2.61  27 2.61
                             3 2.75   7 2.75  11 2.75  15 2.75
  10  0.333  0.333  0.500-  19 2.61  21 2.61  25 2.61  20 2.61  27 2.61  26 2.61  22 2.61  28 2.61
                             4 2.75   8 2.75  12 2.75  16 2.75
  11  0.333  0.667  0.000-  22 2.61  24 2.61  28 2.61  21 2.61  30 2.61  23 2.61  27 2.61  29 2.61
                            17 2.75   5 2.75   9 2.75   7 2.75
  12  0.333  0.667  0.500-  21 2.61  23 2.61  27 2.61  22 2.61  29 2.61  28 2.61  24 2.61  30 2.61
                            18 2.75   6 2.75  10 2.75   8 2.75
  13  0.667  0.000  0.000-  26 2.61  30 2.61  32 2.61  36 2.61  29 2.61  25 2.61  35 2.61  31 2.61
                             7 2.75  15 2.75   1 2.75  17 2.75
  14  0.667  0.000  0.500-  25 2.61  29 2.61  31 2.61  35 2.61  26 2.61  30 2.61  32 2.61  36 2.61
                             8 2.75  16 2.75   2 2.75  18 2.75
  15  0.667  0.333  0.000-  26 2.61  28 2.61  32 2.61  25 2.61  34 2.61  27 2.61  31 2.61  33 2.61
                            17 2.75   9 2.75  13 2.75   3 2.75
  16  0.667  0.333  0.500-  25 2.61  27 2.61  31 2.61  26 2.61  33 2.61  32 2.61  28 2.61  34 2.61
                            18 2.75  10 2.75  14 2.75   4 2.75
  17  0.667  0.667  0.000-  28 2.61  30 2.61  34 2.61  27 2.61  36 2.61  29 2.61  33 2.61  35 2.61
                            11 2.75  15 2.75  13 2.75   5 2.75
  18  0.667  0.667  0.500-  27 2.61  29 2.61  33 2.61  28 2.61  35 2.61  34 2.61  30 2.61  36 2.61
                            12 2.75  16 2.75  14 2.75   6 2.75
  19  0.167  0.167  0.250-  10 2.61   8 2.61   4 2.61   9 2.61   2 2.61   7 2.61   3 2.61   1 2.61
                            21 2.75  25 2.75  23 2.75  31 2.75
  20  0.167  0.167  0.750-   9 2.61   7 2.61   3 2.61  10 2.61   1 2.61   4 2.61   8 2.61   2 2.61
                            22 2.75  26 2.75  24 2.75  32 2.75
  21  0.167  0.500  0.250-  12 2.61  10 2.61   6 2.61  11 2.61   4 2.61   9 2.61   5 2.61   3 2.61
                            19 2.75  23 2.75  27 2.75  33 2.75
  22  0.167  0.500  0.750-  11 2.61   9 2.61   5 2.61  12 2.61   3 2.61   6 2.61  10 2.61   4 2.61
                            20 2.75  24 2.75  28 2.75  34 2.75
  23  0.167  0.833  0.250-   8 2.61  12 2.61   2 2.61   6 2.61  11 2.61   7 2.61   5 2.61   1 2.61
                            21 2.75  29 2.75  19 2.75  35 2.75
  24  0.167  0.833  0.750-   7 2.61  11 2.61   1 2.61   5 2.61   8 2.61  12 2.61   2 2.61   6 2.61
                            22 2.75  30 2.75  20 2.75  36 2.75
  25  0.500  0.167  0.250-  16 2.61  14 2.61  10 2.61  15 2.61   8 2.61  13 2.61   9 2.61   7 2.61
                            19 2.75  27 2.75  31 2.75  29 2.75
  26  0.500  0.167  0.750-  15 2.61  13 2.61   9 2.61  16 2.61   7 2.61  10 2.61  14 2.61   8 2.61
                            20 2.75  28 2.75  32 2.75  30 2.75
  27  0.500  0.500  0.250-  18 2.61  16 2.61  12 2.61  17 2.61  10 2.61  15 2.61  11 2.61   9 2.61
                            21 2.75  25 2.75  29 2.75  33 2.75
  28  0.500  0.500  0.750-  17 2.61  15 2.61  11 2.61  18 2.61   9 2.61  12 2.61  16 2.61  10 2.61
                            22 2.75  26 2.75  30 2.75  34 2.75
  29  0.500  0.833  0.250-  14 2.61  18 2.61   8 2.61  12 2.61  17 2.61  13 2.61  11 2.61   7 2.61
                            23 2.75  27 2.75  35 2.75  25 2.75
  30  0.500  0.833  0.750-  13 2.61  17 2.61   7 2.61  11 2.61  14 2.61  18 2.61   8 2.61  12 2.61
                            24 2.75  28 2.75  36 2.75  26 2.75
  31  0.833  0.167  0.250-   4 2.61  16 2.61  14 2.61   2 2.61  15 2.61   3 2.61  13 2.61   1 2.61
                            25 2.75  33 2.75  19 2.75  35 2.75
  32  0.833  0.167  0.750-   3 2.61  15 2.61  13 2.61   1 2.61   4 2.61  16 2.61   2 2.61  14 2.61
                            26 2.75  34 2.75  20 2.75  36 2.75
  33  0.833  0.500  0.250-   6 2.61  18 2.61  16 2.61   4 2.61  17 2.61   5 2.61  15 2.61   3 2.61
                            27 2.75  31 2.75  35 2.75  21 2.75
  34  0.833  0.500  0.750-   5 2.61  17 2.61  15 2.61   3 2.61   6 2.61  18 2.61   4 2.61  16 2.61
                            28 2.75  32 2.75  36 2.75  22 2.75
  35  0.833  0.833  0.250-   2 2.61   6 2.61  14 2.61  18 2.61  13 2.61   5 2.61  17 2.61   1 2.61
                            29 2.75  33 2.75  31 2.75  23 2.75
  36  0.833  0.833  0.750-   1 2.61   5 2.61  13 2.61  17 2.61   2 2.61  14 2.61   6 2.61  18 2.61
                            30 2.75  34 2.75  32 2.75  24 2.75
 
  LATTYP: Found a simple tetragonal cell.
 ALAT       =     8.2501481662
 C/A-ratio  =     0.8428059861
  
  Lattice vectors:
  
 A1 = (   8.2501481662,   0.0000000000,   0.0000000000)
 A2 = (   0.0000000000,   8.2501481662,   0.0000000000)
 A3 = (   0.0000000000,   0.0000000000,   6.9532742610)


Analysis of symmetry for initial positions (statically):
=====================================================================
 Subroutine PRICEL returns following result:
 
  LATTYP: Found a simple tetragonal cell.
 ALAT       =     2.7500493888
 C/A-ratio  =     1.2642089792
  
  Lattice vectors:
  
 A1 = (   2.7500493888,   0.0000000000,   0.0000000000)
 A2 = (   0.0000000000,   2.7500493888,   0.0000000000)
 A3 = (   0.0000000000,   0.0000000000,   3.4766371305)
 
  18 primitive cells build up your supercell.
 

 Routine SETGRP: Setting up the symmetry group for a 
 simple tetragonal supercell.


 Subroutine GETGRP returns: Found 16 space group operations
 (whereof 16 operations were pure point group operations)
 out of a pool of 16 trial point group operations.


The static configuration has the point symmetry D_4h.


Analysis of symmetry for dynamics (positions and initial velocities):
=====================================================================
 Subroutine PRICEL returns following result:
 
  LATTYP: Found a simple tetragonal cell.
 ALAT       =     2.7500493888
 C/A-ratio  =     1.2642089792
  
  Lattice vectors:
  
 A1 = (   2.7500493888,   0.0000000000,   0.0000000000)
 A2 = (   0.0000000000,   2.7500493888,   0.0000000000)
 A3 = (   0.0000000000,   0.0000000000,   3.4766371305)
 
  18 primitive cells build up your supercell.
 

 Routine SETGRP: Setting up the symmetry group for a 
 simple tetragonal supercell.


 Subroutine GETGRP returns: Found 16 space group operations
 (whereof 16 operations were pure point group operations)
 out of a pool of 16 trial point group operations.


The dynamic configuration has the point symmetry D_4h.


Analysis of structural, dynamic, and magnetic symmetry:
=====================================================================
 Subroutine PRICEL returns:
 Original cell was already a primitive cell.
 

 Routine SETGRP: Setting up the symmetry group for a 
 simple tetragonal supercell.


 Subroutine GETGRP returns: Found  4 space group operations
 (whereof  1 operations were pure point group operations)
 out of a pool of 16 trial point group operations.


The magnetic configuration has the point symmetry C_1 .
 The point group associated with its full space group is C_2h.


 Subroutine INISYM returns: Found  4 space group operations
 (whereof  1 operations are pure point group operations),
 and found     1 'primitive' translations

 
 
 KPOINTS: automatic KPOINTS                       

Automatic generation of k-mesh.
 generate k-points for:    5    5    6
Space group operators:
 irot       det(A)        alpha          n_x          n_y          n_z        tau_x        tau_y        tau_z
    1     1.000000     0.000001     1.000000     0.000000     0.000000     0.000000     0.000000     0.000000
    2    -1.000000     0.000001     1.000000     0.000000     0.000000     0.000000     0.333333     0.000000
    3     1.000000   179.999999     0.000000     0.000000     1.000000     0.000000     0.333333     0.500000
    4    -1.000000   179.999999     0.000000     0.000000     1.000000     0.000000     0.000000     0.500000
 
 Subroutine IBZKPT returns following result:
 ===========================================
 
 Found     52 irreducible k-points:
 
 Following reciprocal coordinates:
            Coordinates               Weight
  0.000000  0.000000  0.000000      1.000000
  0.200000  0.000000  0.000000      2.000000
  0.400000  0.000000  0.000000      2.000000
  0.000000  0.200000  0.000000      2.000000
  0.200000  0.200000  0.000000      2.000000
  0.400000  0.200000  0.000000      2.000000
 -0.400000  0.200000  0.000000      2.000000
 -0.200000  0.200000  0.000000      2.000000
  0.000000  0.400000  0.000000      2.000000
  0.200000  0.400000  0.000000      2.000000
  0.400000  0.400000  0.000000      2.000000
 -0.400000  0.400000  0.000000      2.000000
 -0.200000  0.400000  0.000000      2.000000
  0.000000  0.000000  0.166667      2.000000
  0.200000  0.000000  0.166667      4.000000
  0.400000  0.000000  0.166667      4.000000
  0.000000  0.200000  0.166667      4.000000
  0.200000  0.200000  0.166667      4.000000
  0.400000  0.200000  0.166667      4.000000
 -0.400000  0.200000  0.166667      4.000000
 -0.200000  0.200000  0.166667      4.000000
  0.000000  0.400000  0.166667      4.000000
  0.200000  0.400000  0.166667      4.000000
  0.400000  0.400000  0.166667      4.000000
 -0.400000  0.400000  0.166667      4.000000
 -0.200000  0.400000  0.166667      4.000000
  0.000000  0.000000  0.333333      2.000000
  0.200000  0.000000  0.333333      4.000000
  0.400000  0.000000  0.333333      4.000000
  0.000000  0.200000  0.333333      4.000000
  0.200000  0.200000  0.333333      4.000000
  0.400000  0.200000  0.333333      4.000000
 -0.400000  0.200000  0.333333      4.000000
 -0.200000  0.200000  0.333333      4.000000
  0.000000  0.400000  0.333333      4.000000
  0.200000  0.400000  0.333333      4.000000
  0.400000  0.400000  0.333333      4.000000
 -0.400000  0.400000  0.333333      4.000000
 -0.200000  0.400000  0.333333      4.000000
  0.000000  0.000000  0.500000      1.000000
  0.200000  0.000000  0.500000      2.000000
  0.400000  0.000000  0.500000      2.000000
  0.000000  0.200000  0.500000      2.000000
  0.200000  0.200000  0.500000      2.000000
  0.400000  0.200000  0.500000      2.000000
 -0.400000  0.200000  0.500000      2.000000
 -0.200000  0.200000  0.500000      2.000000
  0.000000  0.400000  0.500000      2.000000
  0.200000  0.400000  0.500000      2.000000
  0.400000  0.400000  0.500000      2.000000
 -0.400000  0.400000  0.500000      2.000000
 -0.200000  0.400000  0.500000      2.000000
 
 Following cartesian coordinates:
            Coordinates               Weight
  0.000000  0.000000  0.000000      1.000000
  0.024242  0.000000  0.000000      2.000000
  0.048484  0.000000  0.000000      2.000000
  0.000000  0.024242  0.000000      2.000000
  0.024242  0.024242  0.000000      2.000000
  0.048484  0.024242  0.000000      2.000000
 -0.048484  0.024242  0.000000      2.000000
 -0.024242  0.024242  0.000000      2.000000
  0.000000  0.048484  0.000000      2.000000
  0.024242  0.048484  0.000000      2.000000
  0.048484  0.048484  0.000000      2.000000
 -0.048484  0.048484  0.000000      2.000000
 -0.024242  0.048484  0.000000      2.000000
  0.000000  0.000000  0.023970      2.000000
  0.024242  0.000000  0.023970      4.000000
  0.048484  0.000000  0.023970      4.000000
  0.000000  0.024242  0.023970      4.000000
  0.024242  0.024242  0.023970      4.000000
  0.048484  0.024242  0.023970      4.000000
 -0.048484  0.024242  0.023970      4.000000
 -0.024242  0.024242  0.023970      4.000000
  0.000000  0.048484  0.023970      4.000000
  0.024242  0.048484  0.023970      4.000000
  0.048484  0.048484  0.023970      4.000000
 -0.048484  0.048484  0.023970      4.000000
 -0.024242  0.048484  0.023970      4.000000
  0.000000  0.000000  0.047939      2.000000
  0.024242  0.000000  0.047939      4.000000
  0.048484  0.000000  0.047939      4.000000
  0.000000  0.024242  0.047939      4.000000
  0.024242  0.024242  0.047939      4.000000
  0.048484  0.024242  0.047939      4.000000
 -0.048484  0.024242  0.047939      4.000000
 -0.024242  0.024242  0.047939      4.000000
  0.000000  0.048484  0.047939      4.000000
  0.024242  0.048484  0.047939      4.000000
  0.048484  0.048484  0.047939      4.000000
 -0.048484  0.048484  0.047939      4.000000
 -0.024242  0.048484  0.047939      4.000000
  0.000000  0.000000  0.071909      1.000000
  0.024242  0.000000  0.071909      2.000000
  0.048484  0.000000  0.071909      2.000000
  0.000000  0.024242  0.071909      2.000000
  0.024242  0.024242  0.071909      2.000000
  0.048484  0.024242  0.071909      2.000000
 -0.048484  0.024242  0.071909      2.000000
 -0.024242  0.024242  0.071909      2.000000
  0.000000  0.048484  0.071909      2.000000
  0.024242  0.048484  0.071909      2.000000
  0.048484  0.048484  0.071909      2.000000
 -0.048484  0.048484  0.071909      2.000000
 -0.024242  0.048484  0.071909      2.000000
 


--------------------------------------------------------------------------------------------------------




 Dimension of arrays:
   k-points           NKPTS =     52   k-points in BZ     NKDIM =     52   number of bands    NBANDS=    112
   number of dos      NEDOS =    301   number of ions     NIONS =     36
   non local maximal  LDIM  =      6   non local SUM 2l+1 LMDIM =     18
   total plane-waves  NPLWV = 139968
   max r-space proj   IRMAX =      1   max aug-charges    IRDMAX=  92271
   dimension x,y,z NGX =    54 NGY =   54 NGZ =   48
   dimension x,y,z NGXF=   108 NGYF=  108 NGZF=   96
   support grid    NGXF=   216 NGYF=  216 NGZF=  192
   ions per type =              18  18
   NGX,Y,Z   is equivalent  to a cutoff of  10.88, 10.88, 11.48 a.u.
   NGXF,Y,Z  is equivalent  to a cutoff of  21.76, 21.76, 22.95 a.u.

 SYSTEM =  AlMn_pv                                 
 POSCAR =  NewRef: 18, @ ['Mn', array([1.37502469, 

 Startparameter for this run:
   NWRITE =      2    write-flag & timer
   PREC   = accura    normal or accurate (medium, high low for compatibility)
   ISTART =      0    job   : 0-new  1-cont  2-samecut
   ICHARG =      2    charge: 1-file 2-atom 10-const
   ISPIN  =      2    spin polarized calculation?
   LNONCOLLINEAR =      F non collinear calculations
   LSORBIT =      F    spin-orbit coupling
   INIWAV =      1    electr: 0-lowe 1-rand  2-diag
   LASPH  =      F    aspherical Exc in radial PAW
   METAGGA=      F    non-selfconsistent MetaGGA calc.

 Electronic Relaxation 1
   ENCUT  =  404.8 eV  29.75 Ry    5.45 a.u.  13.53 13.53 11.41*2*pi/ulx,y,z
   ENINI  =  404.8     initial cutoff
   ENAUG  =  500.7 eV  augmentation charge cutoff
   NELM   =    100;   NELMIN=  4; NELMDL= -8     # of ELM steps 
   EDIFF  = 0.1E-06   stopping-criterion for ELM
   LREAL  =      F    real-space projection
   NLSPLINE    = F    spline interpolate recip. space projectors
   LCOMPAT=      F    compatible to vasp.4.4
   GGA_COMPAT  = T    GGA compatible to vasp.4.4-vasp.4.6
   LMAXPAW     = -100 max onsite density
   LMAXMIX     =    2 max onsite mixed and CHGCAR
   VOSKOWN=      0    Vosko Wilk Nusair interpolation
   ROPT   =    0.00000   0.00000
 Ionic relaxation
   EDIFFG = 0.1E-05   stopping-criterion for IOM
   NSW    =      0    number of steps for IOM
   NBLOCK =      1;   KBLOCK =      1    inner block; outer block 
   IBRION =     -1    ionic relax: 0-MD 1-quasi-New 2-CG
   NFREE  =      0    steps in history (QN), initial steepest desc. (CG)
   ISIF   =      2    stress and relaxation
   IWAVPR =     10    prediction:  0-non 1-charg 2-wave 3-comb
   ISYM   =      2    0-nonsym 1-usesym 2-fastsym
   LCORR  =      T    Harris-Foulkes like correction to forces

   POTIM  = 0.2000    time-step for ionic-motion
   TEIN   =    0.0    initial temperature
   TEBEG  =    0.0;   TEEND  =   0.0 temperature during run
   SMASS  =  -3.00    Nose mass-parameter (am)
   estimated Nose-frequenzy (Omega)   =  0.10E-29 period in steps =****** mass=  -0.156E-26a.u.
   SCALEE = 1.0000    scale energy and forces
   NPACO  =    256;   APACO  = 16.0  distance and # of slots for P.C.
   PSTRESS=    0.0 pullay stress

  Mass of Ions in am
   POMASS =  26.98 54.94
  Ionic Valenz
   ZVAL   =   3.00  7.00
  Atomic Wigner-Seitz radii
   RWIGS  =  -1.00 -1.00
  virtual crystal weights 
   VCA    =   1.00  1.00
   NELECT =     180.0000    total number of electrons
   NUPDOWN=      -1.0000    fix difference up-down

 DOS related values:
   EMIN   =  10.00;   EMAX   =-10.00  energy-range for DOS
   EFERMI =   0.00
   ISMEAR =     1;   SIGMA  =   0.20  broadening in eV -4-tet -1-fermi 0-gaus

 Electronic relaxation 2 (details)
   IALGO  =     58    algorithm
   LDIAG  =      T    sub-space diagonalisation (order eigenvalues)
   LSUBROT=      F    optimize rotation matrix (better conditioning)
   TURBO    =      0    0=normal 1=particle mesh
   IRESTART =      0    0=no restart 2=restart with 2 vectors
   NREBOOT  =      0    no. of reboots
   NMIN     =      0    reboot dimension
   EREF     =   0.00    reference energy to select bands
   IMIX   =      4    mixing-type and parameters
     AMIX     =   0.40;   BMIX     =  1.00
     AMIX_MAG =   1.60;   BMIX_MAG =  1.00
     AMIN     =   0.10
     WC   =   100.;   INIMIX=   1;  MIXPRE=   1;  MAXMIX= -45

 Intra band minimization:
   WEIMIN = 0.0000     energy-eigenvalue tresh-hold
   EBREAK =  0.22E-09  absolut break condition
   DEPER  =   0.30     relativ break condition  

   TIME   =   0.40     timestep for ELM

  volume/ion in A,a.u.               =      13.15        88.72
  Fermi-wavevector in a.u.,A,eV,Ry     =   1.186118  2.241439 19.141722  1.406877
  Thomas-Fermi vector in A             =   2.322298
 
 Write flags
   LWAVE        =      F    write WAVECAR
   LDOWNSAMPLE  =      F    k-point downsampling of WAVECAR
   LCHARG       =      F    write CHGCAR
   LVTOT        =      F    write LOCPOT, total local potential
   LVHAR        =      F    write LOCPOT, Hartree potential only
   LELF         =      F    write electronic localiz. function (ELF)
   LORBIT       =     10    0 simple, 1 ext, 2 COOP (PROOUT), +10 PAW based schemes


 Dipole corrections
   LMONO  =      F    monopole corrections only (constant potential shift)
   LDIPOL =      F    correct potential (dipole corrections)
   IDIPOL =      0    1-x, 2-y, 3-z, 4-all directions 
   EPSILON=  1.0000000 bulk dielectric constant

 Exchange correlation treatment:
   GGA     =    --    GGA type
   LEXCH   =     8    internal setting for exchange type
   VOSKOWN=      0    Vosko Wilk Nusair interpolation
   LHFCALC =     F    Hartree Fock is set to
   LHFONE  =     F    Hartree Fock one center treatment
   AEXX    =    0.0000 exact exchange contribution

 Linear response parameters
   LEPSILON=     F    determine dielectric tensor
   LRPA    =     F    only Hartree local field effects (RPA)
   LNABLA  =     F    use nabla operator in PAW spheres
   LVEL    =     F    velocity operator in full k-point grid
   LINTERFAST=   F  fast interpolation
   KINTER  =     0    interpolate to denser k-point grid
   CSHIFT  =0.1000    complex shift for real part using Kramers Kronig
   OMEGAMAX=  -1.0    maximum frequency
   DEG_THRESHOLD= 0.2000000E-02 threshold for treating states as degnerate
   RTIME   =   -0.100 relaxation time in fs
  (WPLASMAI=    0.000 imaginary part of plasma frequency in eV, 0.658/RTIME)
   DFIELD  = 0.0000000 0.0000000 0.0000000 field for delta impulse in time
 
 Orbital magnetization related:
   ORBITALMAG=     F  switch on orbital magnetization
   LCHIMAG   =     F  perturbation theory with respect to B field
   DQ        =  0.001000  dq finite difference perturbation B field
   LLRAUG    =     F  two centre corrections for induced B field



--------------------------------------------------------------------------------------------------------


 Static calculation
 charge density and potential will be updated during run
 spin polarized calculation
 Conjugate gradient for all bands (Freysoldt, et al. PRB 79, 241103 (2009))
 preconditioned conjugated gradient                                        
 perform sub-space diagonalisation
    before iterative eigenvector-optimisation
 modified Broyden-mixing scheme, WC =      100.0
 initial mixing is a Kerker type mixing with AMIX =  0.4000 and BMIX =      1.0000
 Hartree-type preconditioning will be used
 using additional bands           22
 reciprocal scheme for non local part
 use partial core corrections
 no Harris-corrections to forces 
 use gradient corrections 
 use of overlap-Matrix (Vanderbilt PP)
 Methfessel and Paxton  Order N= 1 SIGMA  =   0.20


--------------------------------------------------------------------------------------------------------


  energy-cutoff  :      404.80
  volume of cell :      473.27
      direct lattice vectors                 reciprocal lattice vectors
     8.250148166  0.000000000  0.000000000     0.121209944  0.000000000  0.000000000
     0.000000000  8.250148166  0.000000000     0.000000000  0.121209944  0.000000000
     0.000000000  0.000000000  6.953274261     0.000000000  0.000000000  0.143817137

  length of vectors
     8.250148166  8.250148166  6.953274261     0.121209944  0.121209944  0.143817137


 
 k-points in units of 2pi/SCALE and weight: automatic KPOINTS                       
   0.00000000  0.00000000  0.00000000       0.007
   0.02424199  0.00000000  0.00000000       0.013
   0.04848398  0.00000000  0.00000000       0.013
   0.00000000  0.02424199  0.00000000       0.013
   0.02424199  0.02424199  0.00000000       0.013
   0.04848398  0.02424199  0.00000000       0.013
  -0.04848398  0.02424199  0.00000000       0.013
  -0.02424199  0.02424199  0.00000000       0.013
   0.00000000  0.04848398  0.00000000       0.013
   0.02424199  0.04848398  0.00000000       0.013
   0.04848398  0.04848398  0.00000000       0.013
  -0.04848398  0.04848398  0.00000000       0.013
  -0.02424199  0.04848398  0.00000000       0.013
   0.00000000  0.00000000  0.02396952       0.013
   0.02424199  0.00000000  0.02396952       0.027
   0.04848398  0.00000000  0.02396952       0.027
   0.00000000  0.02424199  0.02396952       0.027
   0.02424199  0.02424199  0.02396952       0.027
   0.04848398  0.02424199  0.02396952       0.027
  -0.04848398  0.02424199  0.02396952       0.027
  -0.02424199  0.02424199  0.02396952       0.027
   0.00000000  0.04848398  0.02396952       0.027
   0.02424199  0.04848398  0.02396952       0.027
   0.04848398  0.04848398  0.02396952       0.027
  -0.04848398  0.04848398  0.02396952       0.027
  -0.02424199  0.04848398  0.02396952       0.027
   0.00000000  0.00000000  0.04793905       0.013
   0.02424199  0.00000000  0.04793905       0.027
   0.04848398  0.00000000  0.04793905       0.027
   0.00000000  0.02424199  0.04793905       0.027
   0.02424199  0.02424199  0.04793905       0.027
   0.04848398  0.02424199  0.04793905       0.027
  -0.04848398  0.02424199  0.04793905       0.027
  -0.02424199  0.02424199  0.04793905       0.027
   0.00000000  0.04848398  0.04793905       0.027
   0.02424199  0.04848398  0.04793905       0.027
   0.04848398  0.04848398  0.04793905       0.027
  -0.04848398  0.04848398  0.04793905       0.027
  -0.02424199  0.04848398  0.04793905       0.027
   0.00000000  0.00000000  0.07190857       0.007
   0.02424199  0.00000000  0.07190857       0.013
   0.04848398  0.00000000  0.07190857       0.013
   0.00000000  0.02424199  0.07190857       0.013
   0.02424199  0.02424199  0.07190857       0.013
   0.04848398  0.02424199  0.07190857       0.013
  -0.04848398  0.02424199  0.07190857       0.013
  -0.02424199  0.02424199  0.07190857       0.013
   0.00000000  0.04848398  0.07190857       0.013
   0.02424199  0.04848398  0.07190857       0.013
   0.04848398  0.04848398  0.07190857       0.013
  -0.04848398  0.04848398  0.07190857       0.013
  -0.02424199  0.04848398  0.07190857       0.013
 
 k-points in reciprocal lattice and weights: automatic KPOINTS                       
   0.00000000  0.00000000  0.00000000       0.007
   0.20000000  0.00000000  0.00000000       0.013
   0.40000000  0.00000000  0.00000000       0.013
   0.00000000  0.20000000  0.00000000       0.013
   0.20000000  0.20000000  0.00000000       0.013
   0.40000000  0.20000000  0.00000000       0.013
  -0.40000000  0.20000000  0.00000000       0.013
  -0.20000000  0.20000000  0.00000000       0.013
   0.00000000  0.40000000  0.00000000       0.013
   0.20000000  0.40000000  0.00000000       0.013
   0.40000000  0.40000000  0.00000000       0.013
  -0.40000000  0.40000000  0.00000000       0.013
  -0.20000000  0.40000000  0.00000000       0.013
   0.00000000  0.00000000  0.16666667       0.013
   0.20000000  0.00000000  0.16666667       0.027
   0.40000000  0.00000000  0.16666667       0.027
   0.00000000  0.20000000  0.16666667       0.027
   0.20000000  0.20000000  0.16666667       0.027
   0.40000000  0.20000000  0.16666667       0.027
  -0.40000000  0.20000000  0.16666667       0.027
  -0.20000000  0.20000000  0.16666667       0.027
   0.00000000  0.40000000  0.16666667       0.027
   0.20000000  0.40000000  0.16666667       0.027
   0.40000000  0.40000000  0.16666667       0.027
  -0.40000000  0.40000000  0.16666667       0.027
  -0.20000000  0.40000000  0.16666667       0.027
   0.00000000  0.00000000  0.33333333       0.013
   0.20000000  0.00000000  0.33333333       0.027
   0.40000000  0.00000000  0.33333333       0.027
   0.00000000  0.20000000  0.33333333       0.027
   0.20000000  0.20000000  0.33333333       0.027
   0.40000000  0.20000000  0.33333333       0.027
  -0.40000000  0.20000000  0.33333333       0.027
  -0.20000000  0.20000000  0.33333333       0.027
   0.00000000  0.40000000  0.33333333       0.027
   0.20000000  0.40000000  0.33333333       0.027
   0.40000000  0.40000000  0.33333333       0.027
  -0.40000000  0.40000000  0.33333333       0.027
  -0.20000000  0.40000000  0.33333333       0.027
   0.00000000  0.00000000  0.50000000       0.007
   0.20000000  0.00000000  0.50000000       0.013
   0.40000000  0.00000000  0.50000000       0.013
   0.00000000  0.20000000  0.50000000       0.013
   0.20000000  0.20000000  0.50000000       0.013
   0.40000000  0.20000000  0.50000000       0.013
  -0.40000000  0.20000000  0.50000000       0.013
  -0.20000000  0.20000000  0.50000000       0.013
   0.00000000  0.40000000  0.50000000       0.013
   0.20000000  0.40000000  0.50000000       0.013
   0.40000000  0.40000000  0.50000000       0.013
  -0.40000000  0.40000000  0.50000000       0.013
  -0.20000000  0.40000000  0.50000000       0.013
 
 position of ions in fractional coordinates (direct lattice) 
   0.00000000  0.00000000  0.00000000
   0.00000000  0.00000000  0.50000000
   0.00000000  0.33333333  0.00000000
   0.00000000  0.33333333  0.50000000
   0.00000000  0.66666667  0.00000000
   0.00000000  0.66666667  0.50000000
   0.33333333  0.00000000  0.00000000
   0.33333333  0.00000000  0.50000000
   0.33333333  0.33333333  0.00000000
   0.33333333  0.33333333  0.50000000
   0.33333333  0.66666667  0.00000000
   0.33333333  0.66666667  0.50000000
   0.66666667  0.00000000  0.00000000
   0.66666667  0.00000000  0.50000000
   0.66666667  0.33333333  0.00000000
   0.66666667  0.33333333  0.50000000
   0.66666667  0.66666667  0.00000000
   0.66666667  0.66666667  0.50000000
   0.16666667  0.16666667  0.25000000
   0.16666667  0.16666667  0.75000000
   0.16666667  0.50000000  0.25000000
   0.16666667  0.50000000  0.75000000
   0.16666667  0.83333333  0.25000000
   0.16666667  0.83333333  0.75000000
   0.50000000  0.16666667  0.25000000
   0.50000000  0.16666667  0.75000000
   0.50000000  0.50000000  0.25000000
   0.50000000  0.50000000  0.75000000
   0.50000000  0.83333333  0.25000000
   0.50000000  0.83333333  0.75000000
   0.83333333  0.16666667  0.25000000
   0.83333333  0.16666667  0.75000000
   0.83333333  0.50000000  0.25000000
   0.83333333  0.50000000  0.75000000
   0.83333333  0.83333333  0.25000000
   0.83333333  0.83333333  0.75000000
 
 position of ions in cartesian coordinates  (Angst):
   0.00000000  0.00000000  0.00000000
   0.00000000  0.00000000  3.47663713
   0.00000000  2.75004939  0.00000000
   0.00000000  2.75004939  3.47663713
   0.00000000  5.50009878  0.00000000
   0.00000000  5.50009878  3.47663713
   2.75004939  0.00000000  0.00000000
   2.75004939  0.00000000  3.47663713
   2.75004939  2.75004939  0.00000000
   2.75004939  2.75004939  3.47663713
   2.75004939  5.50009878  0.00000000
   2.75004939  5.50009878  3.47663713
   5.50009878  0.00000000  0.00000000
   5.50009878  0.00000000  3.47663713
   5.50009878  2.75004939  0.00000000
   5.50009878  2.75004939  3.47663713
   5.50009878  5.50009878  0.00000000
   5.50009878  5.50009878  3.47663713
   1.37502469  1.37502469  1.73831857
   1.37502469  1.37502469  5.21495570
   1.37502469  4.12507408  1.73831857
   1.37502469  4.12507408  5.21495570
   1.37502469  6.87512347  1.73831857
   1.37502469  6.87512347  5.21495570
   4.12507408  1.37502469  1.73831857
   4.12507408  1.37502469  5.21495570
   4.12507408  4.12507408  1.73831857
   4.12507408  4.12507408  5.21495570
   4.12507408  6.87512347  1.73831857
   4.12507408  6.87512347  5.21495570
   6.87512347  1.37502469  1.73831857
   6.87512347  1.37502469  5.21495570
   6.87512347  4.12507408  1.73831857
   6.87512347  4.12507408  5.21495570
   6.87512347  6.87512347  1.73831857
   6.87512347  6.87512347  5.21495570
 


--------------------------------------------------------------------------------------------------------


 k-point  1 :   0.0000 0.0000 0.0000  plane waves:    8799
 k-point  2 :   0.2000 0.0000 0.0000  plane waves:    8753
 k-point  3 :   0.4000 0.0000 0.0000  plane waves:    8757
 k-point  4 :   0.0000 0.2000 0.0000  plane waves:    8753
 k-point  5 :   0.2000 0.2000 0.0000  plane waves:    8767
 k-point  6 :   0.4000 0.2000 0.0000  plane waves:    8761
 k-point  7 :  -0.4000 0.2000 0.0000  plane waves:    8761
 k-point  8 :  -0.2000 0.2000 0.0000  plane waves:    8767
 k-point  9 :   0.0000 0.4000 0.0000  plane waves:    8757
 k-point 10 :   0.2000 0.4000 0.0000  plane waves:    8761
 k-point 11 :   0.4000 0.4000 0.0000  plane waves:    8731
 k-point 12 :  -0.4000 0.4000 0.0000  plane waves:    8731
 k-point 13 :  -0.2000 0.4000 0.0000  plane waves:    8761
 k-point 14 :   0.0000 0.0000 0.1667  plane waves:    8763
 k-point 15 :   0.2000 0.0000 0.1667  plane waves:    8771
 k-point 16 :   0.4000 0.0000 0.1667  plane waves:    8747
 k-point 17 :   0.0000 0.2000 0.1667  plane waves:    8771
 k-point 18 :   0.2000 0.2000 0.1667  plane waves:    8764
 k-point 19 :   0.4000 0.2000 0.1667  plane waves:    8768
 k-point 20 :  -0.4000 0.2000 0.1667  plane waves:    8768
 k-point 21 :  -0.2000 0.2000 0.1667  plane waves:    8764
 k-point 22 :   0.0000 0.4000 0.1667  plane waves:    8747
 k-point 23 :   0.2000 0.4000 0.1667  plane waves:    8768
 k-point 24 :   0.4000 0.4000 0.1667  plane waves:    8740
 k-point 25 :  -0.4000 0.4000 0.1667  plane waves:    8740
 k-point 26 :  -0.2000 0.4000 0.1667  plane waves:    8768
 k-point 27 :   0.0000 0.0000 0.3333  plane waves:    8743
 k-point 28 :   0.2000 0.0000 0.3333  plane waves:    8736
 k-point 29 :   0.4000 0.0000 0.3333  plane waves:    8753
 k-point 30 :   0.0000 0.2000 0.3333  plane waves:    8736
 k-point 31 :   0.2000 0.2000 0.3333  plane waves:    8753
 k-point 32 :   0.4000 0.2000 0.3333  plane waves:    8743
 k-point 33 :  -0.4000 0.2000 0.3333  plane waves:    8743
 k-point 34 :  -0.2000 0.2000 0.3333  plane waves:    8753
 k-point 35 :   0.0000 0.4000 0.3333  plane waves:    8753
 k-point 36 :   0.2000 0.4000 0.3333  plane waves:    8743
 k-point 37 :   0.4000 0.4000 0.3333  plane waves:    8755
 k-point 38 :  -0.4000 0.4000 0.3333  plane waves:    8755
 k-point 39 :  -0.2000 0.4000 0.3333  plane waves:    8743
 k-point 40 :   0.0000 0.0000 0.5000  plane waves:    8742
 k-point 41 :   0.2000 0.0000 0.5000  plane waves:    8756
 k-point 42 :   0.4000 0.0000 0.5000  plane waves:    8744
 k-point 43 :   0.0000 0.2000 0.5000  plane waves:    8756
 k-point 44 :   0.2000 0.2000 0.5000  plane waves:    8762
 k-point 45 :   0.4000 0.2000 0.5000  plane waves:    8732
 k-point 46 :  -0.4000 0.2000 0.5000  plane waves:    8732
 k-point 47 :  -0.2000 0.2000 0.5000  plane waves:    8762
 k-point 48 :   0.0000 0.4000 0.5000  plane waves:    8744
 k-point 49 :   0.2000 0.4000 0.5000  plane waves:    8732
 k-point 50 :   0.4000 0.4000 0.5000  plane waves:    8736
 k-point 51 :  -0.4000 0.4000 0.5000  plane waves:    8736
 k-point 52 :  -0.2000 0.4000 0.5000  plane waves:    8732

 maximum and minimum number of plane-waves per node :      2210     2164

 maximum number of plane-waves:      8799
 maximum index in each direction: 
   IXMAX=   13   IYMAX=   13   IZMAX=   11
   IXMIN=  -13   IYMIN=  -13   IZMIN=  -11


 parallel 3D FFT for wavefunctions:
    minimum data exchange during FFTs selected (reduces bandwidth)
 parallel 3D FFT for charge:
    minimum data exchange during FFTs selected (reduces bandwidth)


 total amount of memory used by VASP MPI-rank0   751840. kBytes
=======================================================================

   base      :      30000. kBytes
   nonl-proj :      34307. kBytes
   fftplans  :      21726. kBytes
   grid      :      14732. kBytes
   one-center:        279. kBytes
   wavefun   :     650796. kBytes
 
     INWAV:  cpu time    0.0000: real time    0.0001
 Broyden mixing: mesh for mixing (old mesh)
   NGX = 27   NGY = 27   NGZ = 23
  (NGX  =108   NGY  =108   NGZ  = 96)
  gives a total of  16767 points

 initial charge density was supplied:
 charge density of overlapping atoms calculated
 number of electron     180.0000000 magnetization       6.0000000
 keeping initial charge density in first step


--------------------------------------------------------------------------------------------------------


 Maximum index for augmentation-charges        11261 (set IRDMAX)


--------------------------------------------------------------------------------------------------------


 First call to EWALD:  gamma=   0.227
 Maximum number of real-space cells 3x 3x 3
 Maximum number of reciprocal cells 3x 3x 3

    FEWALD:  cpu time    0.0127: real time    0.0127


--------------------------------------- Iteration      1(   1)  ---------------------------------------


    POTLOK:  cpu time    0.2524: real time    0.2524
    SETDIJ:  cpu time    0.3221: real time    0.3221
    TRIAL :  cpu time   19.3246: real time   19.3950
    CORREC:  cpu time    0.0066: real time    0.0067
    --------------------------------------------
      LOOP:  cpu time   20.1254: real time   20.2022

 eigenvalue-minimisations  : 23296
 total energy-change (2. order) : 0.1351262E+04  (-0.5881896E+04)
 number of electron     180.0000000 magnetization       6.0000000
 augmentation part      180.0000000 magnetization       6.0000000

 Free energy of the ion-electron system (eV)
  ---------------------------------------------------
  alpha Z        PSCENC =       532.25742704
  Ewald energy   TEWEN  =     -8601.05107233
  -Hartree energ DENC   =     -1903.73857242
  -exchange      EXHF   =         0.00000000
  -V(xc)+E(xc)   XCENC  =      -664.67388585
  PAW double counting   =      8494.55058411    -7650.81563588
  entropy T*S    EENTRO =         0.00028612
  eigenvalues    EBANDS =      2679.61700488
  atomic energy  EATOM  =      8465.11600846
  ---------------------------------------------------
  free energy    TOTEN  =      1351.26214413 eV

  energy without entropy =     1351.26185801  energy(sigma->0) =     1351.26204876


--------------------------------------------------------------------------------------------------------




--------------------------------------- Iteration      1(   2)  ---------------------------------------


    TRIAL :  cpu time   18.9773: real time   19.8152
    CORREC:  cpu time    0.0081: real time    0.0082
    --------------------------------------------
      LOOP:  cpu time   18.9867: real time   19.8264

 eigenvalue-minimisations  : 23296
 total energy-change (2. order) :-0.1412229E+04  (-0.1379262E+04)
 number of electron     180.0000000 magnetization       6.0000000
 augmentation part      180.0000000 magnetization       6.0000000

 Free energy of the ion-electron system (eV)
  ---------------------------------------------------
  alpha Z        PSCENC =       532.25742704
  Ewald energy   TEWEN  =     -8601.05107233
  -Hartree energ DENC   =     -1903.73857242
  -exchange      EXHF   =         0.00000000
  -V(xc)+E(xc)   XCENC  =      -664.67388585
  PAW double counting   =      8494.55058411    -7650.81563588
  entropy T*S    EENTRO =        -0.00335534
  eigenvalues    EBANDS =      1267.39166953
  atomic energy  EATOM  =      8465.11600846
  ---------------------------------------------------
  free energy    TOTEN  =       -60.96683268 eV

  energy without entropy =      -60.96347734  energy(sigma->0) =      -60.96571423


--------------------------------------------------------------------------------------------------------




--------------------------------------- Iteration      1(   3)  ---------------------------------------


    TRIAL :  cpu time   26.3124: real time   26.5525
    CORREC:  cpu time    0.0097: real time    0.0098
    --------------------------------------------
      LOOP:  cpu time   26.3240: real time   26.5660

 eigenvalue-minimisations  : 35496
 total energy-change (2. order) :-0.1766821E+03  (-0.1589853E+03)
 number of electron     180.0000000 magnetization       6.0000000
 augmentation part      180.0000000 magnetization       6.0000000

 Free energy of the ion-electron system (eV)
  ---------------------------------------------------
  alpha Z        PSCENC =       532.25742704
  Ewald energy   TEWEN  =     -8601.05107233
  -Hartree energ DENC   =     -1903.73857242
  -exchange      EXHF   =         0.00000000
  -V(xc)+E(xc)   XCENC  =      -664.67388585
  PAW double counting   =      8494.55058411    -7650.81563588
  entropy T*S    EENTRO =         0.00036332
  eigenvalues    EBANDS =      1090.70581801
  atomic energy  EATOM  =      8465.11600846
  ---------------------------------------------------
  free energy    TOTEN  =      -237.64896554 eV

  energy without entropy =     -237.64932885  energy(sigma->0) =     -237.64908664


--------------------------------------------------------------------------------------------------------




--------------------------------------- Iteration      1(   4)  ---------------------------------------


    TRIAL :  cpu time   27.3037: real time   28.1968
    CORREC:  cpu time    0.0152: real time    0.0161
    --------------------------------------------
      LOOP:  cpu time   27.3373: real time   28.2315

 eigenvalue-minimisations  : 37928
 total energy-change (2. order) :-0.2800086E+02  (-0.2490049E+02)
 number of electron     180.0000000 magnetization       6.0000000
 augmentation part      180.0000000 magnetization       6.0000000

 Free energy of the ion-electron system (eV)
  ---------------------------------------------------
  alpha Z        PSCENC =       532.25742704
  Ewald energy   TEWEN  =     -8601.05107233
  -Hartree energ DENC   =     -1903.73857242
  -exchange      EXHF   =         0.00000000
  -V(xc)+E(xc)   XCENC  =      -664.67388585
  PAW double counting   =      8494.55058411    -7650.81563588
  entropy T*S    EENTRO =         0.00577123
  eigenvalues    EBANDS =      1062.69955010
  atomic energy  EATOM  =      8465.11600846
  ---------------------------------------------------
  free energy    TOTEN  =      -265.64982554 eV

  energy without entropy =     -265.65559677  energy(sigma->0) =     -265.65174928


--------------------------------------------------------------------------------------------------------




--------------------------------------- Iteration      1(   5)  ---------------------------------------


    TRIAL :  cpu time   27.7223: real time   27.9723
    CORREC:  cpu time    0.0103: real time    0.0111
    --------------------------------------------
      LOOP:  cpu time   27.7346: real time   27.9862

 eigenvalue-minimisations  : 39080
 total energy-change (2. order) :-0.3167122E+01  (-0.3004076E+01)
 number of electron     180.0000000 magnetization       6.0000000
 augmentation part      180.0000000 magnetization       6.0000000

 Free energy of the ion-electron system (eV)
  ---------------------------------------------------
  alpha Z        PSCENC =       532.25742704
  Ewald energy   TEWEN  =     -8601.05107233
  -Hartree energ DENC   =     -1903.73857242
  -exchange      EXHF   =         0.00000000
  -V(xc)+E(xc)   XCENC  =      -664.67388585
  PAW double counting   =      8494.55058411    -7650.81563588
  entropy T*S    EENTRO =         0.00857346
  eigenvalues    EBANDS =      1059.52962599
  atomic energy  EATOM  =      8465.11600846
  ---------------------------------------------------
  free energy    TOTEN  =      -268.81694742 eV

  energy without entropy =     -268.82552088  energy(sigma->0) =     -268.81980524


--------------------------------------------------------------------------------------------------------




--------------------------------------- Iteration      1(   6)  ---------------------------------------


    TRIAL :  cpu time   28.3874: real time   28.5497
    CORREC:  cpu time    0.0104: real time    0.0105
    --------------------------------------------
      LOOP:  cpu time   28.3987: real time   28.5630

 eigenvalue-minimisations  : 38800
 total energy-change (2. order) :-0.2661371E+00  (-0.2581227E+00)
 number of electron     180.0000000 magnetization       6.0000000
 augmentation part      180.0000000 magnetization       6.0000000

 Free energy of the ion-electron system (eV)
  ---------------------------------------------------
  alpha Z        PSCENC =       532.25742704
  Ewald energy   TEWEN  =     -8601.05107233
  -Hartree energ DENC   =     -1903.73857242
  -exchange      EXHF   =         0.00000000
  -V(xc)+E(xc)   XCENC  =      -664.67388585
  PAW double counting   =      8494.55058411    -7650.81563588
  entropy T*S    EENTRO =         0.00937136
  eigenvalues    EBANDS =      1059.26269103
  atomic energy  EATOM  =      8465.11600846
  ---------------------------------------------------
  free energy    TOTEN  =      -269.08308447 eV

  energy without entropy =     -269.09245584  energy(sigma->0) =     -269.08620826


--------------------------------------------------------------------------------------------------------




--------------------------------------- Iteration      1(   7)  ---------------------------------------


    TRIAL :  cpu time   27.8782: real time   28.8040
    CORREC:  cpu time    0.0103: real time    0.0112
    --------------------------------------------
      LOOP:  cpu time   27.8897: real time   28.8186

 eigenvalue-minimisations  : 39664
 total energy-change (2. order) :-0.2914170E-01  (-0.2862962E-01)
 number of electron     180.0000000 magnetization       6.0000000
 augmentation part      180.0000000 magnetization       6.0000000

 Free energy of the ion-electron system (eV)
  ---------------------------------------------------
  alpha Z        PSCENC =       532.25742704
  Ewald energy   TEWEN  =     -8601.05107233
  -Hartree energ DENC   =     -1903.73857242
  -exchange      EXHF   =         0.00000000
  -V(xc)+E(xc)   XCENC  =      -664.67388585
  PAW double counting   =      8494.55058411    -7650.81563588
  entropy T*S    EENTRO =         0.00975309
  eigenvalues    EBANDS =      1059.23316760
  atomic energy  EATOM  =      8465.11600846
  ---------------------------------------------------
  free energy    TOTEN  =      -269.11222618 eV

  energy without entropy =     -269.12197927  energy(sigma->0) =     -269.11547721


--------------------------------------------------------------------------------------------------------




--------------------------------------- Iteration      1(   8)  ---------------------------------------


    TRIAL :  cpu time   27.8281: real time   27.9245
    CORREC:  cpu time    0.0103: real time    0.0104
    CHARGE:  cpu time    1.0623: real time    1.0859
    --------------------------------------------
      LOOP:  cpu time   28.9016: real time   29.0241

 eigenvalue-minimisations  : 38000
 total energy-change (2. order) :-0.2837222E-02  (-0.2798095E-02)
 number of electron     179.9999997 magnetization       4.0973525
 augmentation part       42.6246762 magnetization       2.4333096

 Free energy of the ion-electron system (eV)
  ---------------------------------------------------
  alpha Z        PSCENC =       532.25742704
  Ewald energy   TEWEN  =     -8601.05107233
  -Hartree energ DENC   =     -1903.73857242
  -exchange      EXHF   =         0.00000000
  -V(xc)+E(xc)   XCENC  =      -664.67388585
  PAW double counting   =      8494.55058411    -7650.81563588
  entropy T*S    EENTRO =         0.00993068
  eigenvalues    EBANDS =      1059.23015279
  atomic energy  EATOM  =      8465.11600846
  ---------------------------------------------------
  free energy    TOTEN  =      -269.11506340 eV

  energy without entropy =     -269.12499408  energy(sigma->0) =     -269.11837363


--------------------------------------------------------------------------------------------------------




--------------------------------------- Iteration      1(   9)  ---------------------------------------


    POTLOK:  cpu time    0.2521: real time    0.2521
    SETDIJ:  cpu time    0.3585: real time    0.3659
    TRIAL :  cpu time    9.7302: real time    9.8371
    CORREC:  cpu time    3.3975: real time    3.4485
    CHARGE:  cpu time    1.0985: real time    1.0985
    --------------------------------------------
      LOOP:  cpu time   14.8574: real time   15.0235

 eigenvalue-minimisations  :     0
 total energy-change (2. order) : 0.2087564E+03  (-0.1397376E+03)
 number of electron     179.9999997 magnetization       4.1368651
 augmentation part       53.3532666 magnetization       2.6253382

 Free energy of the ion-electron system (eV)
  ---------------------------------------------------
  alpha Z        PSCENC =       532.25742704
  Ewald energy   TEWEN  =     -8601.05107233
  -Hartree energ DENC   =      -846.61028223
  -exchange      EXHF   =         0.00000000
  -V(xc)+E(xc)   XCENC  =      -695.10606361
  PAW double counting   =     12753.93128812   -11807.17229989
  entropy T*S    EENTRO =        -0.00673057
  eigenvalues    EBANDS =       138.26637507
  atomic energy  EATOM  =      8465.11600846
  ---------------------------------------------------
  free energy    TOTEN  =       -60.35868870 eV

  energy without entropy =      -60.35195814  energy(sigma->0) =      -60.35644518


--------------------------------------------------------------------------------------------------------




--------------------------------------- Iteration      1(  10)  ---------------------------------------


    POTLOK:  cpu time    0.2466: real time    0.2465
    SETDIJ:  cpu time    0.3215: real time    0.3217
    TRIAL :  cpu time    9.2310: real time    9.2567
    CORREC:  cpu time    3.3390: real time    3.4292
    CHARGE:  cpu time    1.0955: real time    1.0957
    --------------------------------------------
      LOOP:  cpu time   14.2393: real time   14.3563

 eigenvalue-minimisations  :     0
 total energy-change (2. order) :-0.1423819E+03  (-0.1411454E+02)
 number of electron     179.9999996 magnetization       4.0485677
 augmentation part       57.2899047 magnetization       2.7554319

 Free energy of the ion-electron system (eV)
  ---------------------------------------------------
  alpha Z        PSCENC =       532.25742704
  Ewald energy   TEWEN  =     -8601.05107233
  -Hartree energ DENC   =     -1322.84164037
  -exchange      EXHF   =         0.00000000
  -V(xc)+E(xc)   XCENC  =      -678.97824193
  PAW double counting   =     13381.96371663   -12538.78888026
  entropy T*S    EENTRO =        -0.01575399
  eigenvalues    EBANDS =       559.58879185
  atomic energy  EATOM  =      8465.11600846
  ---------------------------------------------------
  free energy    TOTEN  =      -202.74062148 eV

  energy without entropy =     -202.72486749  energy(sigma->0) =     -202.73537015


--------------------------------------------------------------------------------------------------------




--------------------------------------- Iteration      1(  11)  ---------------------------------------


    POTLOK:  cpu time    0.2473: real time    0.3051
    SETDIJ:  cpu time    0.3159: real time    0.3159
    TRIAL :  cpu time    9.8654: real time    9.8813
    CORREC:  cpu time    3.4404: real time    3.4458
    CHARGE:  cpu time    1.0735: real time    1.0871
    --------------------------------------------
      LOOP:  cpu time   14.9493: real time   15.0432

 eigenvalue-minimisations  :     0
 total energy-change (2. order) :-0.1420324E+02  (-0.8282593E+01)
 number of electron     179.9999996 magnetization       3.9295734
 augmentation part       59.0292318 magnetization       2.7292277

 Free energy of the ion-electron system (eV)
  ---------------------------------------------------
  alpha Z        PSCENC =       532.25742704
  Ewald energy   TEWEN  =     -8601.05107233
  -Hartree energ DENC   =     -1536.91374590
  -exchange      EXHF   =         0.00000000
  -V(xc)+E(xc)   XCENC  =      -671.19397536
  PAW double counting   =     14295.51400453   -13494.09183807
  entropy T*S    EENTRO =        -0.01080659
  eigenvalues    EBANDS =       793.43508020
  atomic energy  EATOM  =      8465.11600846
  ---------------------------------------------------
  free energy    TOTEN  =      -216.94386542 eV

  energy without entropy =     -216.93305884  energy(sigma->0) =     -216.94026323


--------------------------------------------------------------------------------------------------------




--------------------------------------- Iteration      1(  12)  ---------------------------------------


    POTLOK:  cpu time    0.2470: real time    0.2471
    SETDIJ:  cpu time    0.3358: real time    0.3463
    TRIAL :  cpu time    9.8063: real time    9.8848
    CORREC:  cpu time    3.3930: real time    3.3943
    CHARGE:  cpu time    1.1034: real time    1.1036
    --------------------------------------------
      LOOP:  cpu time   14.8893: real time   14.9817

 eigenvalue-minimisations  :     0
 total energy-change (2. order) :-0.8283006E+01  (-0.7233075E+01)
 number of electron     179.9999997 magnetization       3.6844264
 augmentation part       58.6305798 magnetization       2.6190569

 Free energy of the ion-electron system (eV)
  ---------------------------------------------------
  alpha Z        PSCENC =       532.25742704
  Ewald energy   TEWEN  =     -8601.05107233
  -Hartree energ DENC   =     -1683.36538914
  -exchange      EXHF   =         0.00000000
  -V(xc)+E(xc)   XCENC  =      -666.20610168
  PAW double counting   =     14440.22543055   -13645.74312437
  entropy T*S    EENTRO =        -0.00490460
  eigenvalues    EBANDS =       933.55075670
  atomic energy  EATOM  =      8465.11600846
  ---------------------------------------------------
  free energy    TOTEN  =      -225.22687137 eV

  energy without entropy =     -225.22196677  energy(sigma->0) =     -225.22523650


--------------------------------------------------------------------------------------------------------




--------------------------------------- Iteration      1(  13)  ---------------------------------------


    POTLOK:  cpu time    0.2475: real time    0.2475
    SETDIJ:  cpu time    0.3097: real time    0.3240
    TRIAL :  cpu time    9.0985: real time    9.8892
    CORREC:  cpu time    3.4308: real time    3.4625
    CHARGE:  cpu time    1.0982: real time    1.0983
    --------------------------------------------
      LOOP:  cpu time   14.1909: real time   15.0286

 eigenvalue-minimisations  :     0
 total energy-change (2. order) :-0.7044362E+01  (-0.1443380E+01)
 number of electron     179.9999997 magnetization       3.6333126
 augmentation part       57.5655959 magnetization       2.5792868

 Free energy of the ion-electron system (eV)
  ---------------------------------------------------
  alpha Z        PSCENC =       532.25742704
  Ewald energy   TEWEN  =     -8601.05107233
  -Hartree energ DENC   =     -1718.15476816
  -exchange      EXHF   =         0.00000000
  -V(xc)+E(xc)   XCENC  =      -665.31529628
  PAW double counting   =     14238.25846912   -13423.32930678
  entropy T*S    EENTRO =         0.00007346
  eigenvalues    EBANDS =       939.95220968
  atomic energy  EATOM  =      8465.11600846
  ---------------------------------------------------
  free energy    TOTEN  =      -232.27123385 eV

  energy without entropy =     -232.27130731  energy(sigma->0) =     -232.27125834


--------------------------------------------------------------------------------------------------------




--------------------------------------- Iteration      1(  14)  ---------------------------------------


    POTLOK:  cpu time    0.2472: real time    0.2472
    SETDIJ:  cpu time    0.3239: real time    0.3241
    TRIAL :  cpu time    9.1744: real time    9.2102
    CORREC:  cpu time    3.4752: real time    3.5523
    CHARGE:  cpu time    1.0738: real time    1.0739
    --------------------------------------------
      LOOP:  cpu time   14.2980: real time   14.4120

 eigenvalue-minimisations  :     0
 total energy-change (2. order) :-0.1420208E+01  (-0.7388659E+00)
 number of electron     179.9999997 magnetization       3.5706627
 augmentation part       57.2367520 magnetization       2.5071515

 Free energy of the ion-electron system (eV)
  ---------------------------------------------------
  alpha Z        PSCENC =       532.25742704
  Ewald energy   TEWEN  =     -8601.05107233
  -Hartree energ DENC   =     -1668.73831643
  -exchange      EXHF   =         0.00000000
  -V(xc)+E(xc)   XCENC  =      -667.19137193
  PAW double counting   =     13954.95413482   -13123.62945597
  entropy T*S    EENTRO =         0.00262733
  eigenvalues    EBANDS =       874.59113077
  atomic energy  EATOM  =      8465.11600846
  ---------------------------------------------------
  free energy    TOTEN  =      -233.69144211 eV

  energy without entropy =     -233.69406944  energy(sigma->0) =     -233.69231789


--------------------------------------------------------------------------------------------------------




--------------------------------------- Iteration      1(  15)  ---------------------------------------


    POTLOK:  cpu time    0.2464: real time    0.2463
    SETDIJ:  cpu time    0.3241: real time    0.3240
    TRIAL :  cpu time    9.7692: real time    9.8388
    CORREC:  cpu time    3.3963: real time    3.3980
    CHARGE:  cpu time    1.1081: real time    1.1373
    --------------------------------------------
      LOOP:  cpu time   14.8495: real time   14.9509

 eigenvalue-minimisations  :     0
 total energy-change (2. order) :-0.7369920E+00  (-0.6519800E+00)
 number of electron     179.9999996 magnetization       3.4674539
 augmentation part       57.6428560 magnetization       2.4487581

 Free energy of the ion-electron system (eV)
  ---------------------------------------------------
  alpha Z        PSCENC =       532.25742704
  Ewald energy   TEWEN  =     -8601.05107233
  -Hartree energ DENC   =     -1644.08176645
  -exchange      EXHF   =         0.00000000
  -V(xc)+E(xc)   XCENC  =      -668.00966246
  PAW double counting   =     13497.57021183   -12659.62628525
  entropy T*S    EENTRO =         0.00917916
  eigenvalues    EBANDS =       843.39407767
  atomic energy  EATOM  =      8465.11600846
  ---------------------------------------------------
  free energy    TOTEN  =      -234.42843415 eV

  energy without entropy =     -234.43761331  energy(sigma->0) =     -234.43149387


--------------------------------------------------------------------------------------------------------




--------------------------------------- Iteration      1(  16)  ---------------------------------------


    POTLOK:  cpu time    0.2463: real time    0.2463
    SETDIJ:  cpu time    0.3209: real time    0.3208
    TRIAL :  cpu time    9.8757: real time    9.9323
    CORREC:  cpu time    3.3846: real time    3.3861
    CHARGE:  cpu time    1.1001: real time    1.1003
    --------------------------------------------
      LOOP:  cpu time   14.9401: real time   14.9991

 eigenvalue-minimisations  :     0
 total energy-change (2. order) :-0.6472645E+00  (-0.2090101E+00)
 number of electron     179.9999996 magnetization       3.4096442
 augmentation part       58.0870982 magnetization       2.4190482

 Free energy of the ion-electron system (eV)
  ---------------------------------------------------
  alpha Z        PSCENC =       532.25742704
  Ewald energy   TEWEN  =     -8601.05107233
  -Hartree energ DENC   =     -1654.71771340
  -exchange      EXHF   =         0.00000000
  -V(xc)+E(xc)   XCENC  =      -667.50955525
  PAW double counting   =     13110.96090350   -12275.04854570
  entropy T*S    EENTRO =         0.01146917
  eigenvalues    EBANDS =       854.90766987
  atomic energy  EATOM  =      8465.11600846
  ---------------------------------------------------
  free energy    TOTEN  =      -235.07569865 eV

  energy without entropy =     -235.08716782  energy(sigma->0) =     -235.07952171


--------------------------------------------------------------------------------------------------------




--------------------------------------- Iteration      1(  17)  ---------------------------------------


    POTLOK:  cpu time    0.2465: real time    0.2465
    SETDIJ:  cpu time    0.3249: real time    0.3250
    TRIAL :  cpu time    9.1111: real time   10.1690
    CORREC:  cpu time    3.3791: real time    3.4093
    CHARGE:  cpu time    1.1213: real time    1.1305
    --------------------------------------------
      LOOP:  cpu time   14.1843: real time   15.2837

 eigenvalue-minimisations  :     0
 total energy-change (2. order) :-0.2085608E+00  (-0.1787747E+00)
 number of electron     179.9999996 magnetization       3.3189822
 augmentation part       58.2769742 magnetization       2.3706460

 Free energy of the ion-electron system (eV)
  ---------------------------------------------------
  alpha Z        PSCENC =       532.25742704
  Ewald energy   TEWEN  =     -8601.05107233
  -Hartree energ DENC   =     -1673.83462554
  -exchange      EXHF   =         0.00000000
  -V(xc)+E(xc)   XCENC  =      -666.70484851
  PAW double counting   =     13026.07276842   -12194.65186255
  entropy T*S    EENTRO =         0.01391115
  eigenvalues    EBANDS =       877.50047642
  atomic energy  EATOM  =      8465.11600846
  ---------------------------------------------------
  free energy    TOTEN  =      -235.28425941 eV

  energy without entropy =     -235.29817056  energy(sigma->0) =     -235.28889646


--------------------------------------------------------------------------------------------------------




--------------------------------------- Iteration      1(  18)  ---------------------------------------


    POTLOK:  cpu time    0.2464: real time    0.2464
    SETDIJ:  cpu time    0.3373: real time    0.3374
    TRIAL :  cpu time    9.1835: real time    9.2026
    CORREC:  cpu time    3.4265: real time    3.4844
    CHARGE:  cpu time    1.0908: real time    1.0992
    --------------------------------------------
      LOOP:  cpu time   14.2953: real time   14.3829

 eigenvalue-minimisations  :     0
 total energy-change (2. order) :-0.1786833E+00  (-0.1317874E+00)
 number of electron     179.9999996 magnetization       3.2313886
 augmentation part       58.1307159 magnetization       2.3263404

 Free energy of the ion-electron system (eV)
  ---------------------------------------------------
  alpha Z        PSCENC =       532.25742704
  Ewald energy   TEWEN  =     -8601.05107233
  -Hartree energ DENC   =     -1680.39540801
  -exchange      EXHF   =         0.00000000
  -V(xc)+E(xc)   XCENC  =      -666.28116826
  PAW double counting   =     12980.92073010   -12151.73826988
  entropy T*S    EENTRO =         0.01551948
  eigenvalues    EBANDS =       885.69489906
  atomic energy  EATOM  =      8465.11600846
  ---------------------------------------------------
  free energy    TOTEN  =      -235.46294267 eV

  energy without entropy =     -235.47846215  energy(sigma->0) =     -235.46811583


--------------------------------------------------------------------------------------------------------




--------------------------------------- Iteration      1(  19)  ---------------------------------------


    POTLOK:  cpu time    0.2467: real time    0.2467
    SETDIJ:  cpu time    0.3227: real time    0.3227
    TRIAL :  cpu time    9.7923: real time    9.8638
    CORREC:  cpu time    3.3840: real time    3.3857
    CHARGE:  cpu time    1.1345: real time    1.1346
    --------------------------------------------
      LOOP:  cpu time   14.8837: real time   14.9599

 eigenvalue-minimisations  :     0
 total energy-change (2. order) :-0.1306875E+00  (-0.5253580E-01)
 number of electron     179.9999996 magnetization       3.2146321
 augmentation part       57.9420795 magnetization       2.3173137

 Free energy of the ion-electron system (eV)
  ---------------------------------------------------
  alpha Z        PSCENC =       532.25742704
  Ewald energy   TEWEN  =     -8601.05107233
  -Hartree energ DENC   =     -1670.81358667
  -exchange      EXHF   =         0.00000000
  -V(xc)+E(xc)   XCENC  =      -666.46517982
  PAW double counting   =     12951.18739622   -12120.66193768
  entropy T*S    EENTRO =         0.01580547
  eigenvalues    EBANDS =       874.82179517
  atomic energy  EATOM  =      8465.11600846
  ---------------------------------------------------
  free energy    TOTEN  =      -235.59363014 eV

  energy without entropy =     -235.60943561  energy(sigma->0) =     -235.59889863


--------------------------------------------------------------------------------------------------------




--------------------------------------- Iteration      1(  20)  ---------------------------------------


    POTLOK:  cpu time    0.2446: real time    0.2632
    SETDIJ:  cpu time    0.3212: real time    0.3212
    TRIAL :  cpu time    9.8562: real time    9.9128
    CORREC:  cpu time    3.3947: real time    3.3961
    CHARGE:  cpu time    1.0814: real time    1.0815
    --------------------------------------------
      LOOP:  cpu time   14.9045: real time   14.9823

 eigenvalue-minimisations  :     0
 total energy-change (2. order) :-0.5236622E-01  (-0.6305813E-01)
 number of electron     179.9999996 magnetization       3.1358331
 augmentation part       57.8162300 magnetization       2.2871937

 Free energy of the ion-electron system (eV)
  ---------------------------------------------------
  alpha Z        PSCENC =       532.25742704
  Ewald energy   TEWEN  =     -8601.05107233
  -Hartree energ DENC   =     -1661.30249736
  -exchange      EXHF   =         0.00000000
  -V(xc)+E(xc)   XCENC  =      -666.74468019
  PAW double counting   =     12939.64681715   -12107.22964120
  entropy T*S    EENTRO =         0.01642201
  eigenvalues    EBANDS =       863.64583661
  atomic energy  EATOM  =      8465.11600846
  ---------------------------------------------------
  free energy    TOTEN  =      -235.64599636 eV

  energy without entropy =     -235.66241837  energy(sigma->0) =     -235.65147037


--------------------------------------------------------------------------------------------------------




--------------------------------------- Iteration      1(  21)  ---------------------------------------


    POTLOK:  cpu time    0.2466: real time    0.2466
    SETDIJ:  cpu time    0.3196: real time    0.3196
    TRIAL :  cpu time    9.0570: real time    9.8572
    CORREC:  cpu time    3.3830: real time    3.3939
    CHARGE:  cpu time    1.0637: real time    1.1212
    --------------------------------------------
      LOOP:  cpu time   14.0884: real time   14.9580

 eigenvalue-minimisations  :     0
 total energy-change (2. order) :-0.6310653E-01  (-0.4652723E-01)
 number of electron     179.9999996 magnetization       3.1139980
 augmentation part       57.9068545 magnetization       2.2718703

 Free energy of the ion-electron system (eV)
  ---------------------------------------------------
  alpha Z        PSCENC =       532.25742704
  Ewald energy   TEWEN  =     -8601.05107233
  -Hartree energ DENC   =     -1657.27531180
  -exchange      EXHF   =         0.00000000
  -V(xc)+E(xc)   XCENC  =      -666.81212475
  PAW double counting   =     12946.55846554   -12113.18386367
  entropy T*S    EENTRO =         0.01648138
  eigenvalues    EBANDS =       858.66494660
  atomic energy  EATOM  =      8465.11600846
  ---------------------------------------------------
  free energy    TOTEN  =      -235.70910290 eV

  energy without entropy =     -235.72558428  energy(sigma->0) =     -235.71459669


--------------------------------------------------------------------------------------------------------




--------------------------------------- Iteration      1(  22)  ---------------------------------------


    POTLOK:  cpu time    0.2463: real time    0.2463
    SETDIJ:  cpu time    0.3225: real time    0.3225
    TRIAL :  cpu time    9.1866: real time    9.2055
    CORREC:  cpu time    3.4156: real time    3.4753
    CHARGE:  cpu time    1.0930: real time    1.1062
    --------------------------------------------
      LOOP:  cpu time   14.2652: real time   14.3578

 eigenvalue-minimisations  :     0
 total energy-change (2. order) :-0.4650709E-01  (-0.1931585E-01)
 number of electron     179.9999996 magnetization       3.0596612
 augmentation part       57.9927670 magnetization       2.2411812

 Free energy of the ion-electron system (eV)
  ---------------------------------------------------
  alpha Z        PSCENC =       532.25742704
  Ewald energy   TEWEN  =     -8601.05107233
  -Hartree energ DENC   =     -1664.51255332
  -exchange      EXHF   =         0.00000000
  -V(xc)+E(xc)   XCENC  =      -666.49977571
  PAW double counting   =     12971.99680851   -12139.96347976
  entropy T*S    EENTRO =         0.01680288
  eigenvalues    EBANDS =       866.88454574
  atomic energy  EATOM  =      8465.11600846
  ---------------------------------------------------
  free energy    TOTEN  =      -235.75560999 eV

  energy without entropy =     -235.77241287  energy(sigma->0) =     -235.76121095


--------------------------------------------------------------------------------------------------------




--------------------------------------- Iteration      1(  23)  ---------------------------------------


    POTLOK:  cpu time    0.2501: real time    0.2501
    SETDIJ:  cpu time    0.3182: real time    0.3183
[...]
  8.438  14.379   0.000   0.000   0.000   0.001   0.000   0.000
 14.379  24.504   0.000   0.000   0.000   0.001   0.000   0.000
  0.000   0.000   1.996  -0.000   0.000   5.749  -0.000   0.000
  0.000   0.000  -0.000   1.995  -0.000  -0.000   5.747  -0.000
  0.000   0.000   0.000  -0.000   1.996   0.000  -0.000   5.748
  0.001   0.001   5.749  -0.000   0.000  16.473  -0.001   0.000
  0.000   0.000  -0.000   5.747  -0.000  -0.001  16.469  -0.000
  0.000   0.000   0.000  -0.000   5.748   0.000  -0.000  16.473
 total augmentation occupancy for first ion, spin component:           1
  4.365  -1.245  -0.002  -0.001   0.001   0.000   0.000  -0.000
 -1.245   0.374   0.002   0.001  -0.000  -0.000  -0.000   0.000
 -0.002   0.002   1.403   0.001  -0.011  -0.100  -0.000   0.001
 -0.001   0.001   0.001   1.503   0.010  -0.000  -0.101  -0.000
  0.001  -0.000  -0.011   0.010   1.413   0.001  -0.000  -0.101
  0.000  -0.000  -0.100  -0.000   0.001   0.007   0.000  -0.000
  0.000  -0.000  -0.000  -0.101  -0.000   0.000   0.007   0.000
 -0.000   0.000   0.001  -0.000  -0.101  -0.000   0.000   0.008
 total augmentation occupancy for first ion, spin component:           2
 -0.061   0.020  -0.053  -0.027  -0.015   0.002   0.001   0.001
  0.020  -0.007  -0.007  -0.002  -0.002   0.001   0.000   0.000
 -0.053  -0.007  -0.020   0.026   0.015   0.001  -0.001  -0.000
 -0.027  -0.002   0.026  -0.042  -0.028  -0.001   0.002   0.000
 -0.015  -0.002   0.015  -0.028  -0.029  -0.000   0.001   0.002
  0.002   0.001   0.001  -0.001  -0.000  -0.000  -0.000  -0.000
  0.001   0.000  -0.001   0.002   0.001  -0.000  -0.000   0.000
  0.001   0.000  -0.000   0.000   0.002  -0.000   0.000  -0.000


------------------------ aborting loop because EDIFF is reached ----------------------------------------


 


 total charge     
 
# of ion       s       p       d       tot
------------------------------------------
    1        0.405   0.427   0.000   0.832
    2        0.405   0.427   0.000   0.831
    3        0.405   0.427   0.000   0.832
    4        0.405   0.427   0.000   0.831
    5        0.405   0.428   0.000   0.833
    6        0.405   0.427   0.000   0.832
    7        0.406   0.427   0.000   0.832
    8        0.406   0.426   0.000   0.832
    9        0.405   0.426   0.000   0.831
   10        0.404   0.426   0.000   0.831
   11        0.406   0.428   0.000   0.834
   12        0.406   0.427   0.000   0.834
   13        0.405   0.426   0.000   0.831
   14        0.404   0.426   0.000   0.831
   15        0.406   0.427   0.000   0.832
   16        0.406   0.426   0.000   0.832
   17        0.406   0.428   0.000   0.834
   18        0.406   0.427   0.000   0.834
   19        0.333   0.350   5.143   5.826
   20        0.333   0.352   5.142   5.828
   21        0.336   0.357   5.120   5.813
   22        0.337   0.351   5.129   5.816
   23        0.329   0.354   5.146   5.829
   24        0.333   0.356   5.124   5.813
   25        0.333   0.351   5.140   5.824
   26        0.333   0.351   5.140   5.824
   27        0.331   0.355   5.137   5.823
   28        0.331   0.355   5.138   5.824
   29        0.331   0.355   5.138   5.824
   30        0.331   0.355   5.137   5.823
   31        0.333   0.352   5.142   5.828
   32        0.333   0.350   5.143   5.826
   33        0.333   0.356   5.124   5.813
   34        0.329   0.354   5.146   5.829
   35        0.337   0.351   5.129   5.816
   36        0.336   0.357   5.120   5.813
--------------------------------------------------
tot         13.289  14.048  92.437 119.773
 


 magnetization (x)
 
# of ion       s       p       d       tot
------------------------------------------
    1       -0.004  -0.009   0.000  -0.014
    2       -0.004  -0.010   0.000  -0.014
    3       -0.004  -0.009   0.000  -0.014
    4       -0.004  -0.010   0.000  -0.014
    5        0.008   0.017   0.000   0.026
    6        0.008   0.017   0.000   0.026
    7       -0.008  -0.018   0.000  -0.026
    8       -0.008  -0.017   0.000  -0.025
    9       -0.006  -0.010   0.000  -0.016
   10       -0.006  -0.010   0.000  -0.016
   11        0.004   0.010   0.000   0.014
   12        0.004   0.010   0.000   0.014
   13       -0.006  -0.010   0.000  -0.016
   14       -0.006  -0.010   0.000  -0.016
   15       -0.008  -0.018   0.000  -0.026
   16       -0.008  -0.017   0.000  -0.025
   17        0.004   0.010   0.000   0.014
   18        0.004   0.010   0.000   0.014
   19        0.017   0.006   2.316   2.339
   20        0.023   0.025   2.154   2.202
   21       -0.033  -0.028  -2.425  -2.486
   22       -0.028  -0.010  -2.567  -2.605
   23        0.028   0.031   2.082   2.141
   24       -0.014  -0.028  -2.390  -2.433
   25        0.014   0.015   2.288   2.316
   26        0.014   0.015   2.288   2.316
   27        0.027   0.040   2.168   2.235
   28       -0.021  -0.038  -2.129  -2.187
   29       -0.021  -0.038  -2.129  -2.187
   30        0.027   0.040   2.168   2.235
   31        0.023   0.025   2.154   2.202
   32        0.017   0.006   2.316   2.339
   33       -0.014  -0.028  -2.390  -2.433
   34        0.028   0.031   2.082   2.141
   35       -0.028  -0.010  -2.567  -2.605
   36       -0.033  -0.028  -2.425  -2.486
--------------------------------------------------
tot         -0.018  -0.048   2.997   2.931
 
    FORLOC:  cpu time    0.0287: real time    0.0287
    FORNL :  cpu time   13.0629: real time   13.1338
    STRESS:  cpu time   18.5492: real time   18.6885
    FORCOR:  cpu time    0.2671: real time    0.2861
    OFIELD:  cpu time    0.0014: real time    0.0014

  FORCE on cell =-STRESS in cart. coord.  units (eV):
  Direction    XX          YY          ZZ          XY          YZ          ZX
  --------------------------------------------------------------------------------------
  Alpha Z   532.25743   532.25743   532.25743
  Ewald   -2702.40749 -2702.40749 -3196.26924    -0.00000    -0.00000    -0.00000
  Hartree   721.04104   720.43708   226.45447     0.10979    -0.00000    -0.00000
  E(xc)    -760.06298  -759.69436  -760.23967    -0.04412     0.00000     0.00000
  Local     248.61369   252.34667  1260.74222    -0.36221    -0.00000    -0.00000
  n-local  -111.82817  -110.19264  -123.66003     0.45108     0.05831    -0.16707
  augment   520.92106   519.34003   515.61607    -0.00344     0.00001     0.00001
  Kinetic  1556.78915  1555.22493  1544.28035     0.38497     0.24625     0.51989
  Fock        0.00000     0.00000     0.00000     0.00000     0.00000     0.00000
  -------------------------------------------------------------------------------------
  Total       5.32374     7.31164    -0.81841     0.53608     0.00000     0.00000
  in kB      18.02248    24.75214    -2.77057     1.81480     0.00000     0.00000
  external pressure =       13.33 kB  Pullay stress =        0.00 kB


 VOLUME and BASIS-vectors are now :
 -----------------------------------------------------------------------------
  energy-cutoff  :      404.80
  volume of cell :      473.27
      direct lattice vectors                 reciprocal lattice vectors
     8.250148166  0.000000000  0.000000000     0.121209944  0.000000000  0.000000000
     0.000000000  8.250148166  0.000000000     0.000000000  0.121209944  0.000000000
     0.000000000  0.000000000  6.953274261     0.000000000  0.000000000  0.143817137

  length of vectors
     8.250148166  8.250148166  6.953274261     0.121209944  0.121209944  0.143817137


 FORCES acting on ions:
    Electron-Ion                     Ewald-Force                    Non-Local-Force
 -----------------------------------------------------------------------------------------------
   0.107E-01 0.194E-01 0.229E-01   -.239E-08 -.239E-08 0.411E-08   0.274E-02 0.258E-01 0.719E-02
   0.107E-01 0.194E-01 -.229E-01   -.239E-08 -.239E-08 0.411E-08   0.274E-02 0.258E-01 -.719E-02
   -.107E-01 -.194E-01 -.229E-01   -.239E-08 -.802E-09 0.411E-08   -.274E-02 -.258E-01 -.719E-02
   -.107E-01 -.194E-01 0.229E-01   -.239E-08 -.802E-09 0.411E-08   -.274E-02 -.258E-01 0.719E-02
   -.409E-10 -.330E-08 -.190E-08   -.239E-08 0.631E-08 0.411E-08   0.000E+00 0.000E+00 0.000E+00
   -.422E-10 -.329E-08 -.192E-08   -.239E-08 0.631E-08 0.411E-08   0.000E+00 0.000E+00 0.000E+00
   -.334E-02 0.127E+00 -.358E-02   -.802E-09 -.239E-08 0.411E-08   0.212E-01 0.307E-01 0.331E-01
   -.334E-02 0.127E+00 0.358E-02   -.802E-09 -.239E-08 0.411E-08   0.212E-01 0.307E-01 -.331E-01
   -.202E-01 0.397E-03 -.307E-01   -.802E-09 -.802E-09 0.411E-08   0.420E-01 -.423E-01 0.563E-01
   -.202E-01 0.397E-03 0.307E-01   -.802E-09 -.802E-09 0.411E-08   0.420E-01 -.423E-01 -.563E-01
   -.114E+00 -.124E+00 -.119E+00   -.802E-09 0.631E-08 0.411E-08   0.188E-01 -.334E-01 0.282E-01
   -.114E+00 -.124E+00 0.119E+00   -.802E-09 0.631E-08 0.411E-08   0.188E-01 -.334E-01 -.282E-01
   0.202E-01 -.397E-03 0.307E-01   0.631E-08 -.239E-08 0.411E-08   -.420E-01 0.423E-01 -.563E-01
   0.202E-01 -.397E-03 -.307E-01   0.631E-08 -.239E-08 0.411E-08   -.420E-01 0.423E-01 0.563E-01
   0.334E-02 -.127E+00 0.358E-02   0.631E-08 -.802E-09 0.411E-08   -.212E-01 -.307E-01 -.331E-01
   0.334E-02 -.127E+00 -.358E-02   0.631E-08 -.802E-09 0.411E-08   -.212E-01 -.307E-01 0.331E-01
   0.114E+00 0.124E+00 0.119E+00   0.631E-08 0.631E-08 0.411E-08   -.188E-01 0.334E-01 -.282E-01
   0.114E+00 0.124E+00 -.119E+00   0.631E-08 0.631E-08 0.411E-08   -.188E-01 0.334E-01 0.282E-01
   -.137E-01 -.389E+00 -.139E-08   -.169E-07 -.169E-07 -.411E-08   0.381E-01 0.380E+00 0.000E+00
   -.869E-01 0.245E+00 -.487E-08   -.169E-07 -.169E-07 -.411E-08   0.402E-01 -.114E+00 -.108E-18
   -.674E+00 -.637E-01 0.141E-08   -.169E-07 0.802E-09 -.411E-08   0.379E+00 0.116E+00 0.173E-17
   0.490E+00 0.485E+00 -.633E-08   -.169E-07 0.802E-09 -.411E-08   -.253E+00 -.355E+00 0.000E+00
   -.309E+00 0.478E+00 0.582E-10   -.169E-07 0.130E-07 -.411E-08   0.332E+00 -.246E+00 0.000E+00
   -.708E+00 -.400E+00 -.774E-08   -.169E-07 0.130E-07 -.411E-08   0.523E+00 0.215E+00 -.173E-17
   -.129E+00 0.608E+00 -.205E-08   0.802E-09 -.169E-07 -.411E-08   0.124E+00 -.419E+00 -.867E-18
   0.129E+00 -.608E+00 -.260E-08   0.802E-09 -.169E-07 -.411E-08   -.124E+00 0.419E+00 0.867E-18
   -.328E+00 -.819E+00 0.590E-09   0.802E-09 0.802E-09 -.411E-08   0.221E+00 0.542E+00 0.000E+00
   -.632E+00 -.743E-01 -.408E-08   0.802E-09 0.802E-09 -.411E-08   0.335E+00 0.763E-01 0.867E-18
   0.632E+00 0.743E-01 -.632E-09   0.802E-09 0.130E-07 -.411E-08   -.335E+00 -.763E-01 -.867E-18
   0.328E+00 0.819E+00 -.529E-08   0.802E-09 0.130E-07 -.411E-08   -.221E+00 -.542E+00 0.000E+00
   0.869E-01 -.245E+00 0.412E-09   0.130E-07 -.169E-07 -.411E-08   -.402E-01 0.114E+00 0.108E-18
   0.137E-01 0.389E+00 -.323E-08   0.130E-07 -.169E-07 -.411E-08   -.381E-01 -.380E+00 0.000E+00
   0.708E+00 0.400E+00 0.286E-08   0.130E-07 0.802E-09 -.411E-08   -.523E+00 -.215E+00 0.173E-17
   0.309E+00 -.478E+00 -.468E-08   0.130E-07 0.802E-09 -.411E-08   -.332E+00 0.246E+00 0.000E+00
   -.490E+00 -.485E+00 0.185E-08   0.130E-07 0.130E-07 -.411E-08   0.253E+00 0.355E+00 0.000E+00
   0.674E+00 0.637E-01 -.576E-08   0.130E-07 0.130E-07 -.411E-08   -.379E+00 -.116E+00 -.173E-17
 -----------------------------------------------------------------------------------------------
   -.301E-07 -.276E-07 -.779E-07   -.197E-14 0.275E-13 0.265E-14   -.555E-16 0.278E-16 -.173E-16
 
 
 POSITION                                       TOTAL-FORCE (eV/Angst)
 -----------------------------------------------------------------------------------
      0.00000      0.00000      0.00000         0.013545      0.041941      0.029176
      0.00000      0.00000      3.47664         0.013545      0.041941     -0.029176
      0.00000      2.75005      0.00000        -0.013545     -0.041941     -0.029176
      0.00000      2.75005      3.47664        -0.013545     -0.041941      0.029176
      0.00000      5.50010      0.00000         0.000000      0.000000      0.000000
      0.00000      5.50010      3.47664         0.000000      0.000000      0.000000
      2.75005      0.00000      0.00000         0.016475      0.153828      0.026436
      2.75005      0.00000      3.47664         0.016475      0.153828     -0.026436
      2.75005      2.75005      0.00000         0.018699     -0.037263      0.020633
      2.75005      2.75005      3.47664         0.018699     -0.037263     -0.020633
      2.75005      5.50010      0.00000        -0.096232     -0.154614     -0.093078
      2.75005      5.50010      3.47664        -0.096232     -0.154614      0.093078
      5.50010      0.00000      0.00000        -0.018699      0.037263     -0.020633
      5.50010      0.00000      3.47664        -0.018699      0.037263      0.020633
      5.50010      2.75005      0.00000        -0.016475     -0.153828     -0.026436
      5.50010      2.75005      3.47664        -0.016475     -0.153828      0.026436
      5.50010      5.50010      0.00000         0.096232      0.154614      0.093078
      5.50010      5.50010      3.47664         0.096232      0.154614     -0.093078
      1.37502      1.37502      1.73832         0.025769     -0.011512      0.000000
      1.37502      1.37502      5.21496        -0.045245      0.137495      0.000000
      1.37502      4.12507      1.73832        -0.309827      0.053601     -0.000000
      1.37502      4.12507      5.21496         0.250152      0.144394      0.000000
      1.37502      6.87512      1.73832         0.018699      0.236553      0.000000
      1.37502      6.87512      5.21496        -0.193154     -0.190910      0.000000
      4.12507      1.37502      1.73832        -0.007898      0.200009      0.000000
      4.12507      1.37502      5.21496         0.007898     -0.200009      0.000000
      4.12507      4.12507      1.73832        -0.116452     -0.293026      0.000000
      4.12507      4.12507      5.21496        -0.306958      0.005986      0.000000
      4.12507      6.87512      1.73832         0.306958     -0.005986      0.000000
      4.12507      6.87512      5.21496         0.116452      0.293026      0.000000
      6.87512      1.37502      1.73832         0.045245     -0.137495      0.000000
      6.87512      1.37502      5.21496        -0.025769      0.011512      0.000000
      6.87512      4.12507      1.73832         0.193154      0.190910     -0.000000
      6.87512      4.12507      5.21496        -0.018699     -0.236553      0.000000
      6.87512      6.87512      1.73832        -0.250152     -0.144394      0.000000
      6.87512      6.87512      5.21496         0.309827     -0.053601      0.000000
 -----------------------------------------------------------------------------------
    total drift:                               -0.000000     -0.000000     -0.000000


--------------------------------------------------------------------------------------------------------



  FREE ENERGIE OF THE ION-ELECTRON SYSTEM (eV)
  ---------------------------------------------------
  free  energy   TOTEN  =      -235.85514645 eV

  energy  without entropy=     -235.87102617  energy(sigma->0) =     -235.86043969
 


--------------------------------------------------------------------------------------------------------


    POTLOK:  cpu time    0.6508: real time    0.6511


--------------------------------------------------------------------------------------------------------


     LOOP+:  cpu time 1072.4387: real time 1093.6120
    4ORBIT:  cpu time    0.0000: real time    0.0000
 


 total charge     
 
# of ion       s       p       d       tot
------------------------------------------
    1        0.405   0.427   0.000   0.832
    2        0.405   0.427   0.000   0.831
    3        0.405   0.427   0.000   0.832
    4        0.405   0.427   0.000   0.831
    5        0.405   0.428   0.000   0.833
    6        0.405   0.427   0.000   0.832
    7        0.406   0.427   0.000   0.832
    8        0.406   0.426   0.000   0.832
    9        0.405   0.426   0.000   0.831
   10        0.404   0.426   0.000   0.831
   11        0.406   0.428   0.000   0.834
   12        0.406   0.427   0.000   0.834
   13        0.405   0.426   0.000   0.831
   14        0.404   0.426   0.000   0.831
   15        0.406   0.427   0.000   0.832
   16        0.406   0.426   0.000   0.832
   17        0.406   0.428   0.000   0.834
   18        0.406   0.427   0.000   0.834
   19        0.333   0.350   5.143   5.826
   20        0.333   0.352   5.142   5.828
   21        0.336   0.357   5.120   5.813
   22        0.337   0.351   5.129   5.816
   23        0.329   0.354   5.146   5.829
   24        0.333   0.356   5.124   5.813
   25        0.333   0.351   5.140   5.824
   26        0.333   0.351   5.140   5.824
   27        0.331   0.355   5.137   5.823
   28        0.331   0.355   5.138   5.824
   29        0.331   0.355   5.138   5.824
   30        0.331   0.355   5.137   5.823
   31        0.333   0.352   5.142   5.828
   32        0.333   0.350   5.143   5.826
   33        0.333   0.356   5.124   5.813
   34        0.329   0.354   5.146   5.829
   35        0.337   0.351   5.129   5.816
   36        0.336   0.357   5.120   5.813
--------------------------------------------------
tot         13.289  14.048  92.437 119.773
 


 magnetization (x)
 
# of ion       s       p       d       tot
------------------------------------------
    1       -0.004  -0.009   0.000  -0.014
    2       -0.004  -0.010   0.000  -0.014
    3       -0.004  -0.009   0.000  -0.014
    4       -0.004  -0.010   0.000  -0.014
    5        0.008   0.017   0.000   0.026
    6        0.008   0.017   0.000   0.026
    7       -0.008  -0.018   0.000  -0.026
    8       -0.008  -0.017   0.000  -0.025
    9       -0.006  -0.010   0.000  -0.016
   10       -0.006  -0.010   0.000  -0.016
   11        0.004   0.010   0.000   0.014
   12        0.004   0.010   0.000   0.014
   13       -0.006  -0.010   0.000  -0.016
   14       -0.006  -0.010   0.000  -0.016
   15       -0.008  -0.018   0.000  -0.026
   16       -0.008  -0.017   0.000  -0.025
   17        0.004   0.010   0.000   0.014
   18        0.004   0.010   0.000   0.014
   19        0.017   0.006   2.316   2.339
   20        0.023   0.025   2.154   2.202
   21       -0.033  -0.028  -2.425  -2.486
   22       -0.028  -0.010  -2.567  -2.605
   23        0.028   0.031   2.082   2.141
   24       -0.014  -0.028  -2.390  -2.433
   25        0.014   0.015   2.288   2.316
   26        0.014   0.015   2.288   2.316
   27        0.027   0.040   2.168   2.235
   28       -0.021  -0.038  -2.129  -2.187
   29       -0.021  -0.038  -2.129  -2.187
   30        0.027   0.040   2.168   2.235
   31        0.023   0.025   2.154   2.202
   32        0.017   0.006   2.316   2.339
   33       -0.014  -0.028  -2.390  -2.433
   34        0.028   0.031   2.082   2.141
   35       -0.028  -0.010  -2.567  -2.605
   36       -0.033  -0.028  -2.425  -2.486
--------------------------------------------------
tot         -0.018  -0.048   2.997   2.931
 

 total amount of memory used by VASP MPI-rank0   751840. kBytes
=======================================================================

   base      :      30000. kBytes
   nonl-proj :      34307. kBytes
   fftplans  :      21726. kBytes
   grid      :      14732. kBytes
   one-center:        279. kBytes
   wavefun   :     650796. kBytes
 
  
  
 General timing and accounting informations for this job:
 ========================================================
  
                  Total CPU time used (sec):     1098.727
                            User time (sec):     1077.503
                          System time (sec):       21.224
                         Elapsed time (sec):     1122.488
  
                   Maximum memory used (kb):      888820.
                   Average memory used (kb):           0.
  
                          Minor page faults:       380377
                          Major page faults:           15
                 Voluntary context switches:         4447
