   36   36    1    2
  0.1314651E+02  0.8250148E-09  0.8250148E-09  0.6953274E-09  0.2000000E-15
  1.000000000000000E-004
  CAR 
 AlMn_pv                                 
    180     52    110
 
  0.0000000E+00  0.0000000E+00  0.0000000E+00  0.6666667E-02
    1       -2.519626     -2.518563   1.000000   1.000000
    2       -0.374508     -0.361992   1.000000   1.000000
    3       -0.349541     -0.348004   1.000000   1.000000
    4       -0.328701     -0.321879   1.000000   1.000000
    5       -0.292743     -0.308384   1.000000   1.000000
    6       -0.119567     -0.116397   1.000000   1.000000
    7        1.359202      1.357413   1.000000   1.000000
    8        1.380158      1.375343   1.000000   1.000000
    9        1.387085      1.382465   1.000000   1.000000
   10        1.409505      1.413668   1.000000   1.000000
   11        1.427617      1.449955   1.000000   1.000000
   12        1.546099      1.552233   1.000000   1.000000
   13        1.567891      1.571855   1.000000   1.000000
   14        1.615041      1.610758   1.000000   1.000000
   15        1.637994      1.635620   1.000000   1.000000
   16        2.720005      2.720936   1.000000   1.000000
   17        2.746711      2.765562   1.000000   1.000000
   18        2.823896      2.828726   1.000000   1.000000
   19        2.851325      2.860345   1.000000   1.000000
   20        3.459114      3.455635   1.000000   1.000000
   21        3.517182      3.515968   1.000000   1.000000
   22        3.578397      3.584509   1.000000   1.000000
   23        3.640195      3.623713   1.000000   1.000000
   24        4.055072      4.102186   1.000000   1.000000
   25        4.181023      4.130109   1.000000   1.000000
   26        4.436955      4.359403   1.000000   1.000000
   27        4.498813      4.496814   1.000000   1.000000
   28        4.513758      4.551016   1.000000   1.000000
   29        4.547200      4.554982   1.000000   1.000000
   30        4.627320      4.607365   1.000000   1.000000
   31        4.655385      4.654441   1.000000   1.000000
   32        4.720675      4.702833   1.000000   1.000000
   33        4.740465      4.721825   1.000000   1.000000
   34        4.743748      4.790593   1.000000   1.000000
   35        4.830394      4.842587   1.000000   1.000000
   36        4.870041      4.903804   1.000000   1.000000
   37        4.928111      4.913542   1.000000   1.000000
   38        4.989240      5.071808   1.000000   1.000000
   39        5.089540      5.109419   1.000000   1.000000
   40        5.192437      5.224957   1.000000   1.000000
   41        5.269039      5.280222   1.000000   1.000000
   42        5.311312      5.291132   1.000000   1.000000
   43        5.345447      5.338623   1.000000   1.000000
   44        5.411861      5.419694   1.000000   1.000000
   45        5.424941      5.468465   1.000000   1.000000
   46        5.450911      5.477234   1.000000   1.000000
   47        5.480587      5.510746   1.000000   1.000000
   48        5.498428      5.530701   1.000000   1.000000
   49        5.575062      5.559358   1.000000   1.000000
   50        5.616841      5.590573   1.000000   1.000000
   51        5.672993      5.668832   1.000000   1.000000
   52        5.705808      5.716109   1.000000   1.000000
   53        5.748683      5.734931   1.000000   1.000000
   54        5.785704      5.800032   1.000000   1.000000
   55        5.806531      5.804691   1.000000   1.000000
   56        5.910741      5.857346   1.000000   1.000000
   57        6.029616      5.913999   1.000000   1.000000
   58        6.045149      6.020693   1.000000   1.000000
   59        6.202475      6.199873   1.000000   1.000000
   60        6.246945      6.237062   1.000000   1.000000
   61        6.252807      6.305575   1.000000   1.000000
   62        6.335371      6.308154   1.000000   1.000000
   63        6.349540      6.366640   1.000000   1.000000
   64        6.412871      6.424861   1.000000   1.000000
   65        6.418359      6.438908   1.000000   1.000000
   66        6.455361      6.457673   1.000000   1.000000
   67        6.527745      6.474916   1.000000   1.000000
   68        6.533471      6.568065   1.000000   1.000000
   69        6.606577      6.588571   1.000000   1.000000
   70        6.620167      6.609214   1.000000   1.000000
   71        6.668870      6.719596   1.000000   1.000000
   72        6.685157      6.720382   1.000000   1.000000
   73        6.690430      6.731617   1.000000   1.000000
   74        6.754258      6.761258   1.000000   1.000000
   75        6.779657      6.804353   1.000000   1.000000
   76        6.810565      6.816048   1.000000   1.000000
   77        6.875086      6.906698   1.000000   1.000000
   78        6.922328      6.911649   1.000000   1.000000
   79        6.946271      7.022133   1.000000   1.000003
   80        7.097767      7.205644   1.000033   1.000607
   81        7.157771      7.224572   1.000181   1.000945
   82        7.228782      7.235917   1.001040   1.001221
   83        7.285085      7.260201   1.003388   1.002057
   84        7.297895      7.340624   1.004312   1.008948
   85        7.382353      7.434709   1.016181   1.027912
   86        7.510958      7.478506   1.033219   1.035092
   87        7.531667      7.509122   1.026074   1.033601
   88        7.553112      7.563316   1.011774   1.001996
   89        7.625003      7.603775   0.892598   0.940698
   90        7.659585      7.646813   0.790227   0.831503
   91        7.897938      7.797075   0.004510   0.245561
   92        7.946366      7.825412  -0.030571   0.153083
   93        7.969018      7.964686  -0.035090  -0.034654
   94        8.053250      8.100106  -0.023131  -0.013126
   95        8.118276      8.114569  -0.010079  -0.010392
   96        8.124544      8.130728  -0.009214  -0.008365
   97        8.193092      8.246891  -0.002716  -0.000292
   98        8.199503      8.338316  -0.002391  -0.000075
   99        8.213976      8.380570  -0.001650  -0.000024
  100        8.448580      8.399016  -0.000001  -0.000011
  101        8.468579      8.427741  -0.000000  -0.000000
  102        8.506153      8.618636  -0.000000  -0.000000
  103        8.569915      8.688863  -0.000000  -0.000000
  104        8.686622      8.712253  -0.000000  -0.000000
  105        8.736878      8.731223  -0.000000  -0.000000
  106        8.758587      8.750780  -0.000000  -0.000000
  107        8.777108      8.759285  -0.000000  -0.000000
  108        8.834237      8.783796  -0.000000  -0.000000
  109        8.907076      8.853782  -0.000000  -0.000000
  110        9.014946      8.860577  -0.000000  -0.000000
 
  0.2000000E+00  0.0000000E+00  0.0000000E+00  0.1333333E-01
    1       -2.429117     -2.428058   1.000000   1.000000
    2       -1.103290     -1.101591   1.000000   1.000000
    3       -0.266989     -0.260121   1.000000   1.000000
    4       -0.240623     -0.244883   1.000000   1.000000
    5       -0.053865     -0.050618   1.000000   1.000000
    6        0.567463      0.568718   1.000000   1.000000
    7        0.884904      0.888833   1.000000   1.000000
    8        0.926722      0.931641   1.000000   1.000000
    9        0.942255      0.939472   1.000000   1.000000
   10        1.442926      1.441205   1.000000   1.000000
   11        1.471233      1.479717   1.000000   1.000000
   12        1.483842      1.480599   1.000000   1.000000
   13        1.923176      1.932647   1.000000   1.000000
   14        2.308521      2.303853   1.000000   1.000000
   15        2.325303      2.324763   1.000000   1.000000
   16        2.325768      2.330111   1.000000   1.000000
   17        2.340317      2.353308   1.000000   1.000000
   18        2.826874      2.824507   1.000000   1.000000
   19        3.232745      3.248323   1.000000   1.000000
   20        3.265781      3.274661   1.000000   1.000000
   21        3.580500      3.585466   1.000000   1.000000
   22        3.643220      3.625566   1.000000   1.000000
   23        3.738657      3.737649   1.000000   1.000000
   24        4.037991      4.081136   1.000000   1.000000
   25        4.144555      4.100853   1.000000   1.000000
   26        4.316120      4.296393   1.000000   1.000000
   27        4.378185      4.325871   1.000000   1.000000
   28        4.441962      4.492588   1.000000   1.000000
   29        4.527748      4.532113   1.000000   1.000000
   30        4.581466      4.585708   1.000000   1.000000
   31        4.586325      4.610429   1.000000   1.000000
   32        4.617169      4.630396   1.000000   1.000000
   33        4.684066      4.648331   1.000000   1.000000
   34        4.757252      4.708585   1.000000   1.000000
   35        4.811557      4.859920   1.000000   1.000000
   36        4.887249      4.896809   1.000000   1.000000
   37        5.002037      5.014814   1.000000   1.000000
   38        5.076042      5.096574   1.000000   1.000000
   39        5.086431      5.098184   1.000000   1.000000
   40        5.101529      5.159253   1.000000   1.000000
   41        5.144763      5.180145   1.000000   1.000000
   42        5.316919      5.297790   1.000000   1.000000
   43        5.316996      5.326336   1.000000   1.000000
   44        5.366504      5.391039   1.000000   1.000000
   45        5.432106      5.455126   1.000000   1.000000
   46        5.441860      5.479872   1.000000   1.000000
   47        5.505680      5.495153   1.000000   1.000000
   48        5.538251      5.569899   1.000000   1.000000
   49        5.612967      5.574855   1.000000   1.000000
   50        5.617727      5.621547   1.000000   1.000000
   51        5.719187      5.684959   1.000000   1.000000
   52        5.725091      5.707952   1.000000   1.000000
   53        5.774024      5.764504   1.000000   1.000000
   54        5.784318      5.774937   1.000000   1.000000
   55        5.895187      5.861093   1.000000   1.000000
   56        5.947611      5.869884   1.000000   1.000000
   57        6.042368      5.956860   1.000000   1.000000
   58        6.072187      6.031532   1.000000   1.000000
   59        6.141955      6.134792   1.000000   1.000000
   60        6.233788      6.240177   1.000000   1.000000
   61        6.242329      6.281423   1.000000   1.000000
   62        6.324875      6.300002   1.000000   1.000000
   63        6.325814      6.346181   1.000000   1.000000
   64        6.344671      6.380908   1.000000   1.000000
   65        6.375638      6.423216   1.000000   1.000000
   66        6.442893      6.514072   1.000000   1.000000
   67        6.490463      6.515596   1.000000   1.000000
   68        6.509378      6.540477   1.000000   1.000000
   69        6.557672      6.586266   1.000000   1.000000
   70        6.635652      6.588913   1.000000   1.000000
   71        6.641164      6.685125   1.000000   1.000000
   72        6.685411      6.695683   1.000000   1.000000
   73        6.691087      6.734484   1.000000   1.000000
   74        6.725293      6.752380   1.000000   1.000000
   75        6.786965      6.788547   1.000000   1.000000
   76        6.842450      6.834982   1.000000   1.000000
   77        6.881336      6.880711   1.000000   1.000000
   78        6.883950      6.909746   1.000000   1.000000
   79        6.923379      6.946938   1.000000   1.000000
   80        7.040234      7.121397   1.000005   1.000066
   81        7.128297      7.234975   1.000081   1.001195
   82        7.167931      7.282053   1.000237   1.003192
   83        7.269681      7.308685   1.002500   1.005242
   84        7.333006      7.338232   1.007927   1.008618
   85        7.378068      7.393966   1.015317   1.018640
   86        7.505725      7.416374   1.034187   1.023723
   87        7.565078      7.538296   1.000090   1.022477
   88        7.590960      7.570994   0.964294   0.993239
   89        7.617837      7.593078   0.910046   0.960683
   90        7.675789      7.691655   0.733317   0.673009
   91        7.886094      7.798773   0.020087   0.239551
   92        7.948077      7.838182  -0.031122   0.117478
   93        7.996412      7.932233  -0.034361  -0.024429
   94        8.024686      8.008358  -0.029571  -0.032677
   95        8.064480      8.092501  -0.020561  -0.014635
   96        8.160319      8.166853  -0.005060  -0.004495
   97        8.163305      8.206039  -0.004800  -0.001637
   98        8.199226      8.322846  -0.002398  -0.000075
   99        8.304978      8.336163  -0.000197  -0.000048
  100        8.350244      8.385002  -0.000051  -0.000004
  101        8.471156      8.501016  -0.000001  -0.000000
  102        8.483038      8.511041  -0.000001  -0.000000
  103        8.540050      8.617706  -0.000000  -0.000000
  104        8.602228      8.675605  -0.000000  -0.000000
  105        8.781894      8.693072  -0.000000  -0.000000
  106        8.809698      8.718741  -0.000000  -0.000000
  107        8.913436      8.911949  -0.000000  -0.000000
  108        8.970525      8.922284  -0.000000  -0.000000
  109        8.976770      8.989141  -0.000000  -0.000000
  110        8.982776      9.030012  -0.000000  -0.000000
 
  0.4000000E+00  0.0000000E+00  0.0000000E+00  0.1333333E-01
    1       -2.159378     -2.158442   1.000000   1.000000
    2       -1.713866     -1.712257   1.000000   1.000000
    3       -0.021358     -0.014436   1.000000   1.000000
    4        0.003576     -0.001544   1.000000   1.000000
    5        0.140589      0.144181   1.000000   1.000000
    6        0.383181      0.389081   1.000000   1.000000
    7        0.404414      0.402544   1.000000   1.000000
    8        0.460167      0.463551   1.000000   1.000000
    9        1.583033      1.583421   1.000000   1.000000
   10        1.623646      1.624511   1.000000   1.000000
   11        1.652169      1.659826   1.000000   1.000000
   12        1.760223      1.755087   1.000000   1.000000
   13        1.935178      1.929940   1.000000   1.000000
   14        1.953432      1.968381   1.000000   1.000000
   15        2.227580      2.226492   1.000000   1.000000
   16        2.336320      2.348672   1.000000   1.000000
   17        2.679689      2.679623   1.000000   1.000000
   18        2.943177      2.931534   1.000000   1.000000
   19        3.007336      3.017234   1.000000   1.000000
   20        3.574473      3.587507   1.000000   1.000000
   21        3.659143      3.684386   1.000000   1.000000
   22        3.758410      3.749818   1.000000   1.000000
   23        3.794396      3.773963   1.000000   1.000000
   24        3.971361      3.994847   1.000000   1.000000
   25        4.019796      4.010472   1.000000   1.000000
   26        4.114094      4.132761   1.000000   1.000000
   27        4.177566      4.148307   1.000000   1.000000
   28        4.336235      4.350441   1.000000   1.000000
   29        4.351431      4.361101   1.000000   1.000000
   30        4.434489      4.448512   1.000000   1.000000
   31        4.544194      4.503483   1.000000   1.000000
   32        4.565427      4.550541   1.000000   1.000000
   33        4.658054      4.687914   1.000000   1.000000
   34        4.720840      4.723891   1.000000   1.000000
   35        4.855327      4.859406   1.000000   1.000000
   36        4.931490      4.895390   1.000000   1.000000
   37        4.970729      4.955452   1.000000   1.000000
   38        5.047275      5.065995   1.000000   1.000000
   39        5.115901      5.166233   1.000000   1.000000
   40        5.201996      5.224443   1.000000   1.000000
   41        5.203347      5.234334   1.000000   1.000000
   42        5.264110      5.313491   1.000000   1.000000
   43        5.307160      5.329273   1.000000   1.000000
   44        5.349706      5.378290   1.000000   1.000000
   45        5.445642      5.441291   1.000000   1.000000
   46        5.459570      5.531020   1.000000   1.000000
   47        5.482471      5.538348   1.000000   1.000000
   48        5.547480      5.547786   1.000000   1.000000
   49        5.634615      5.596581   1.000000   1.000000
   50        5.642752      5.619913   1.000000   1.000000
   51        5.694351      5.663528   1.000000   1.000000
   52        5.706095      5.685531   1.000000   1.000000
   53        5.769076      5.695025   1.000000   1.000000
   54        5.847940      5.785251   1.000000   1.000000
   55        5.929452      5.838597   1.000000   1.000000
   56        6.029661      5.869436   1.000000   1.000000
   57        6.050347      6.016375   1.000000   1.000000
   58        6.091152      6.057135   1.000000   1.000000
   59        6.124542      6.114225   1.000000   1.000000
   60        6.186397      6.181846   1.000000   1.000000
   61        6.186517      6.189622   1.000000   1.000000
   62        6.205179      6.297984   1.000000   1.000000
   63        6.270855      6.308728   1.000000   1.000000
   64        6.297063      6.320213   1.000000   1.000000
   65        6.365260      6.351460   1.000000   1.000000
   66        6.403280      6.428496   1.000000   1.000000
   67        6.448644      6.511231   1.000000   1.000000
   68        6.480978      6.518755   1.000000   1.000000
   69        6.488407      6.601892   1.000000   1.000000
   70        6.614771      6.624899   1.000000   1.000000
   71        6.653635      6.684176   1.000000   1.000000
   72        6.654562      6.725697   1.000000   1.000000
   73        6.689397      6.747790   1.000000   1.000000
   74        6.739808      6.768559   1.000000   1.000000
   75        6.774330      6.775000   1.000000   1.000000
   76        6.813168      6.810491   1.000000   1.000000
   77        6.860500      6.893111   1.000000   1.000000
   78        6.879839      6.927947   1.000000   1.000000
   79        6.990559      6.949473   1.000001   1.000000
   80        7.015300      7.065671   1.000002   1.000012
   81        7.129844      7.250264   1.000084   1.001668
   82        7.200365      7.260063   1.000535   1.002051
   83        7.225793      7.276812   1.000972   1.002881
   84        7.249158      7.338965   1.001630   1.008718
   85        7.293006      7.389902   1.003936   1.017762
   86        7.462871      7.466109   1.033334   1.033794
   87        7.577338      7.478532   0.985006   1.035094
   88        7.630627      7.604134   0.877943   0.940019
   89        7.692564      7.620228   0.669427   0.904481
   90        7.748320      7.748117   0.437682   0.438527
   91        7.884574      7.748918   0.022332   0.435216
   92        7.906499      7.814585  -0.004839   0.186447
   93        7.968865      7.822455  -0.035076   0.161873
   94        8.031568      8.054688  -0.028093  -0.022803
   95        8.063267      8.058478  -0.020827  -0.021931
   96        8.116002      8.079659  -0.010502  -0.017245
   97        8.144202      8.132539  -0.006703  -0.008125
   98        8.166887      8.232106  -0.004497  -0.001193
   99        8.290821      8.318579  -0.000293  -0.000141
  100        8.296827      8.349847  -0.000246  -0.000057
  101        8.418773      8.404571  -0.000007  -0.000011
  102        8.506921      8.524611  -0.000000  -0.000000
  103        8.512404      8.574269  -0.000000  -0.000000
  104        8.592616      8.622468  -0.000000  -0.000000
  105        8.603322      8.695377  -0.000000  -0.000000
  106        8.791912      8.713121  -0.000000  -0.000000
  107        8.968504      8.959731  -0.000000  -0.000000
  108        8.970716      9.010571  -0.000000  -0.000000
  109        9.115122      9.054262  -0.000000  -0.000000
  110        9.135235      9.111366  -0.000000  -0.000000
 
  0.0000000E+00  0.2000000E+00  0.0000000E+00  0.1333333E-01
    1       -2.429070     -2.428020   1.000000   1.000000
    2       -1.103203     -1.101629   1.000000   1.000000
    3       -0.282962     -0.272031   1.000000   1.000000
    4       -0.224092     -0.232558   1.000000   1.000000
    5       -0.053748     -0.050520   1.000000   1.000000
    6        0.567097      0.568112   1.000000   1.000000
    7        0.886734      0.889252   1.000000   1.000000
    8        0.915390      0.926284   1.000000   1.000000
    9        0.953485      0.945122   1.000000   1.000000
   10        1.423553      1.420898   1.000000   1.000000
   11        1.484319      1.480273   1.000000   1.000000
   12        1.487788      1.503651   1.000000   1.000000
   13        1.923609      1.928360   1.000000   1.000000
   14        2.298831      2.288528   1.000000   1.000000
   15        2.316572      2.313848   1.000000   1.000000
   16        2.334672      2.345069   1.000000   1.000000
   17        2.345455      2.363983   1.000000   1.000000
   18        2.825260      2.820420   1.000000   1.000000
   19        3.208436      3.223613   1.000000   1.000000
   20        3.300208      3.301697   1.000000   1.000000
   21        3.550852      3.558800   1.000000   1.000000
   22        3.679555      3.667844   1.000000   1.000000
   23        3.741559      3.741966   1.000000   1.000000
   24        4.042197      4.079676   1.000000   1.000000
   25        4.151015      4.103648   1.000000   1.000000
   26        4.307291      4.281185   1.000000   1.000000
   27        4.339748      4.320796   1.000000   1.000000
   28        4.467129      4.486607   1.000000   1.000000
   29        4.540217      4.537208   1.000000   1.000000
   30        4.578902      4.574724   1.000000   1.000000
   31        4.580669      4.589650   1.000000   1.000000
   32        4.639083      4.651784   1.000000   1.000000
   33        4.679045      4.656917   1.000000   1.000000
   34        4.728235      4.706417   1.000000   1.000000
   35        4.867246      4.928725   1.000000   1.000000
   36        4.922432      4.943165   1.000000   1.000000
   37        4.980576      5.034527   1.000000   1.000000
   38        5.037130      5.042678   1.000000   1.000000
   39        5.108907      5.070613   1.000000   1.000000
   40        5.134489      5.142948   1.000000   1.000000
   41        5.138908      5.154704   1.000000   1.000000
   42        5.253681      5.290505   1.000000   1.000000
   43        5.331478      5.292697   1.000000   1.000000
   44        5.346765      5.330133   1.000000   1.000000
   45        5.385695      5.489166   1.000000   1.000000
   46        5.460844      5.514676   1.000000   1.000000
   47        5.476570      5.523828   1.000000   1.000000
   48        5.533236      5.539029   1.000000   1.000000
   49        5.586471      5.553727   1.000000   1.000000
   50        5.622171      5.608761   1.000000   1.000000
   51        5.699616      5.689845   1.000000   1.000000
   52        5.706260      5.707080   1.000000   1.000000
   53        5.760767      5.793889   1.000000   1.000000
   54        5.820311      5.805863   1.000000   1.000000
   55        5.893495      5.851411   1.000000   1.000000
   56        5.982974      5.867706   1.000000   1.000000
   57        6.013470      6.002487   1.000000   1.000000
   58        6.075032      6.050374   1.000000   1.000000
   59        6.189587      6.126084   1.000000   1.000000
   60        6.246959      6.226444   1.000000   1.000000
   61        6.278113      6.311407   1.000000   1.000000
   62        6.292994      6.324313   1.000000   1.000000
   63        6.353115      6.357809   1.000000   1.000000
   64        6.355451      6.378041   1.000000   1.000000
   65        6.396861      6.382052   1.000000   1.000000
   66        6.410783      6.417758   1.000000   1.000000
   67        6.470009      6.461728   1.000000   1.000000
   68        6.560225      6.546664   1.000000   1.000000
   69        6.579183      6.571523   1.000000   1.000000
   70        6.590059      6.669601   1.000000   1.000000
   71        6.644788      6.712311   1.000000   1.000000
   72        6.663175      6.722603   1.000000   1.000000
   73        6.721153      6.737223   1.000000   1.000000
   74        6.735925      6.747606   1.000000   1.000000
   75        6.754345      6.785791   1.000000   1.000000
   76        6.791167      6.837598   1.000000   1.000000
   77        6.837059      6.866653   1.000000   1.000000
   78        6.893413      6.909669   1.000000   1.000000
   79        6.953003      6.940793   1.000000   1.000000
   80        7.047621      7.051733   1.000007   1.000008
   81        7.164927      7.196893   1.000219   1.000491
   82        7.176470      7.226679   1.000295   1.000992
   83        7.258603      7.256715   1.001991   1.001913
   84        7.338854      7.314890   1.008706   1.005846
   85        7.458783      7.404216   1.032689   1.020926
   86        7.506319      7.488366   1.034096   1.035458
   87        7.576098      7.574597   0.986691   0.988688
   88        7.601621      7.637005   0.944972   0.860412
   89        7.622383      7.641589   0.899125   0.847214
   90        7.662165      7.701901   0.781526   0.632037
   91        7.781337      7.799527   0.304022   0.236932
   92        7.921623      7.806367  -0.017802   0.213287
   93        8.002297      7.983354  -0.033610  -0.035370
   94        8.067295      8.076359  -0.019922  -0.017937
   95        8.132165      8.160269  -0.008173  -0.005055
   96        8.143552      8.192253  -0.006775  -0.002475
   97        8.179510      8.226430  -0.003548  -0.001350
   98        8.199002      8.242624  -0.002406  -0.000933
   99        8.236117      8.327919  -0.001093  -0.000103
  100        8.372475      8.400041  -0.000026  -0.000010
  101        8.469634      8.449203  -0.000001  -0.000002
  102        8.479191      8.469982  -0.000001  -0.000001
  103        8.570053      8.662477  -0.000000  -0.000000
  104        8.624330      8.693817  -0.000000  -0.000000
  105        8.771448      8.722778  -0.000000  -0.000000
  106        8.838792      8.808156  -0.000000  -0.000000
  107        8.888092      8.854182  -0.000000  -0.000000
  108        8.941678      8.907024  -0.000000  -0.000000
  109        8.982889      8.977421  -0.000000  -0.000000
  110        8.989171      9.021901  -0.000000  -0.000000
 
  0.2000000E+00  0.2000000E+00  0.0000000E+00  0.1333333E-01
    1       -2.338841     -2.337784   1.000000   1.000000
    2       -1.032399     -1.019296   1.000000   1.000000
    3       -1.001741     -1.012328   1.000000   1.000000
    4        0.011874      0.015068   1.000000   1.000000
    5        0.225881      0.229003   1.000000   1.000000
    6        0.632901      0.646293   1.000000   1.000000
    7        0.662489      0.650458   1.000000   1.000000
    8        0.947543      0.940051   1.000000   1.000000
    9        0.951263      0.967077   1.000000   1.000000
   10        1.577318      1.571245   1.000000   1.000000
   11        1.722555      1.728500   1.000000   1.000000
   12        1.774263      1.770021   1.000000   1.000000
   13        1.844923      1.846941   1.000000   1.000000
   14        1.981736      1.993266   1.000000   1.000000
   15        1.999773      2.002253   1.000000   1.000000
   16        2.795246      2.816631   1.000000   1.000000
   17        2.868043      2.871669   1.000000   1.000000
   18        2.870206      2.872182   1.000000   1.000000
   19        2.875929      2.877150   1.000000   1.000000
   20        2.941824      2.931013   1.000000   1.000000
   21        3.660855      3.665416   1.000000   1.000000
   22        3.779431      3.784129   1.000000   1.000000
   23        3.792463      3.793205   1.000000   1.000000
   24        3.835576      3.837840   1.000000   1.000000
   25        4.150450      4.124000   1.000000   1.000000
   26        4.269903      4.319848   1.000000   1.000000
   27        4.348162      4.339165   1.000000   1.000000
   28        4.392594      4.351335   1.000000   1.000000
   29        4.441777      4.381301   1.000000   1.000000
   30        4.476050      4.488633   1.000000   1.000000
   31        4.481335      4.513207   1.000000   1.000000
   32        4.593772      4.616674   1.000000   1.000000
   33        4.650595      4.700682   1.000000   1.000000
   34        4.785590      4.729810   1.000000   1.000000
   35        4.822963      4.787352   1.000000   1.000000
   36        4.865271      4.932789   1.000000   1.000000
   37        4.922364      4.957443   1.000000   1.000000
   38        4.978194      4.993447   1.000000   1.000000
   39        5.070984      5.094560   1.000000   1.000000
   40        5.158148      5.125886   1.000000   1.000000
   41        5.262870      5.298765   1.000000   1.000000
   42        5.267721      5.302833   1.000000   1.000000
   43        5.308694      5.350303   1.000000   1.000000
   44        5.380549      5.384509   1.000000   1.000000
   45        5.440127      5.452914   1.000000   1.000000
   46        5.455710      5.462362   1.000000   1.000000
   47        5.531569      5.537649   1.000000   1.000000
   48        5.572011      5.555671   1.000000   1.000000
   49        5.636611      5.574177   1.000000   1.000000
   50        5.637649      5.630458   1.000000   1.000000
   51        5.719183      5.676436   1.000000   1.000000
   52        5.753061      5.758900   1.000000   1.000000
   53        5.788534      5.775932   1.000000   1.000000
   54        5.868799      5.824921   1.000000   1.000000
   55        5.869444      5.861340   1.000000   1.000000
   56        5.986257      5.963227   1.000000   1.000000
   57        6.029636      6.003154   1.000000   1.000000
   58        6.115003      6.037699   1.000000   1.000000
   59        6.155399      6.134281   1.000000   1.000000
   60        6.203144      6.169081   1.000000   1.000000
   61        6.224316      6.280402   1.000000   1.000000
   62        6.250674      6.300984   1.000000   1.000000
   63        6.337023      6.324446   1.000000   1.000000
   64        6.349288      6.395568   1.000000   1.000000
   65        6.382640      6.432075   1.000000   1.000000
   66        6.441508      6.485548   1.000000   1.000000
   67        6.455738      6.497001   1.000000   1.000000
   68        6.502028      6.595773   1.000000   1.000000