       N       E                     dE             d eps       ncg     rms          ort
DAV:   1     0.135259096224E+04    0.13526E+04   -0.58479E+04  5720   0.144E+03
DAV:   2    -0.559675519460E+02   -0.14086E+04   -0.13791E+04  5720   0.446E+02
DAV:   3    -0.236324174788E+03   -0.18036E+03   -0.16327E+03  5720   0.172E+02
DAV:   4    -0.265703665665E+03   -0.29379E+02   -0.26308E+02  5720   0.754E+01
DAV:   5    -0.269078736298E+03   -0.33751E+01   -0.32107E+01  5720   0.225E+01
DAV:   6    -0.269367571163E+03   -0.28883E+00   -0.28020E+00  5720   0.571E+00
DAV:   7    -0.269400468423E+03   -0.32897E-01   -0.32295E-01  5720   0.172E+00
DAV:   8    -0.269403875936E+03   -0.34075E-02   -0.33613E-02  5720   0.467E-01
SDA:   9    -0.652402998902E+02    0.20416E+03   -0.33613E-02  5720   0.227E+04 0.000E+00
CGA:  10    -0.209293956037E+03   -0.14405E+03   -0.14468E+03  5720   0.114E+03 0.355E+03
CGA:  11    -0.218594078742E+03   -0.93001E+01   -0.93022E+01  5720   0.592E+02 0.920E+00
CGA:  12    -0.226716349256E+03   -0.81223E+01   -0.80966E+01  5720   0.995E+02-0.110E+00
CGA:  13    -0.233305510920E+03   -0.65892E+01   -0.68100E+01  5720   0.130E+02-0.842E+00
CGA:  14    -0.234256077863E+03   -0.95057E+00   -0.96247E+00  5720   0.570E+01-0.797E-01
CGA:  15    -0.234982871905E+03   -0.72679E+00   -0.72887E+00  5720   0.667E+01 0.105E-01
CGA:  16    -0.235608790435E+03   -0.62592E+00   -0.62818E+00  5720   0.196E+01-0.170E-02
CGA:  17    -0.235776815580E+03   -0.16803E+00   -0.16791E+00  5720   0.135E+01 0.172E-02
CGA:  18    -0.235957105723E+03   -0.18029E+00   -0.18039E+00  5720   0.134E+01 0.209E-03
CGA:  19    -0.236082528146E+03   -0.12542E+00   -0.12585E+00  5720   0.487E+00-0.248E-02
CGA:  20    -0.236128998982E+03   -0.46471E-01   -0.46577E-01  5720   0.362E+00-0.522E-03
CGA:  21    -0.236192006042E+03   -0.63007E-01   -0.62990E-01  5720   0.501E+00 0.497E-03
CGA:  22    -0.236235774273E+03   -0.43768E-01   -0.43789E-01  5720   0.181E+00-0.336E-03
CGA:  23    -0.236253821688E+03   -0.18047E-01   -0.18038E-01  5720   0.115E+00-0.190E-03
CGA:  24    -0.236273696852E+03   -0.19875E-01   -0.19882E-01  5720   0.148E+00-0.340E-03
CGA:  25    -0.236290646494E+03   -0.16950E-01   -0.16943E-01  5720   0.979E-01-0.324E-03
CGA:  26    -0.236302396580E+03   -0.11750E-01   -0.11747E-01  5720   0.938E-01-0.131E-03
CGA:  27    -0.236313594988E+03   -0.11198E-01   -0.11195E-01  5720   0.630E-01-0.687E-04
CGA:  28    -0.236319603537E+03   -0.60085E-02   -0.60019E-02  5720   0.353E-01 0.924E-04
CGA:  29    -0.236323910209E+03   -0.43067E-02   -0.43076E-02  5720   0.273E-01 0.630E-04
CGA:  30    -0.236328245687E+03   -0.43355E-02   -0.43353E-02  5720   0.212E-01 0.590E-04
CGA:  31    -0.236330985359E+03   -0.27397E-02   -0.27405E-02  5720   0.231E-01 0.448E-04
CGA:  32    -0.236333594962E+03   -0.26096E-02   -0.26100E-02  5720   0.167E-01 0.773E-04
CGA:  33    -0.236335568040E+03   -0.19731E-02   -0.19750E-02  5720   0.857E-02 0.942E-04
CGA:  34    -0.236336697567E+03   -0.11295E-02   -0.11300E-02  5720   0.781E-02 0.649E-04
CGA:  35    -0.236337632455E+03   -0.93489E-03   -0.93580E-03  5720   0.586E-02 0.413E-04
CGA:  36    -0.236338266622E+03   -0.63417E-03   -0.63473E-03  5720   0.358E-02 0.211E-04
CGA:  37    -0.236338854515E+03   -0.58789E-03   -0.58729E-03  5720   0.462E-02 0.171E-04
CGA:  38    -0.236339470263E+03   -0.61575E-03   -0.61587E-03  5720   0.311E-02 0.224E-04
CGA:  39    -0.236339745558E+03   -0.27529E-03   -0.27609E-03  5720   0.128E-02 0.149E-04
SDA:  40    -0.236339905014E+03   -0.15946E-03   -0.15951E-03  5720   0.141E-02 0.470E-05
CGA:  41    -0.236340006550E+03   -0.10154E-03   -0.10115E-03  5720   0.104E-02-0.643E-05
CGA:  42    -0.236340169058E+03   -0.16251E-03   -0.16299E-03  5720   0.786E-03-0.194E-04
CGA:  43    -0.236340289582E+03   -0.12052E-03   -0.12075E-03  5720   0.101E-02-0.978E-05
CGA:  44    -0.236340387720E+03   -0.98138E-04   -0.97922E-04  5720   0.348E-03-0.597E-05
CGA:  45    -0.236340448591E+03   -0.60871E-04   -0.61123E-04  5720   0.601E-03-0.581E-05
CGA:  46    -0.236340521580E+03   -0.72989E-04   -0.72899E-04  5720   0.323E-03-0.785E-05
CGA:  47    -0.236340559891E+03   -0.38311E-04   -0.38280E-04  5720   0.373E-03-0.228E-05
CGA:  48    -0.236340630896E+03   -0.71005E-04   -0.71020E-04  5720   0.259E-03-0.171E-06
CGA:  49    -0.236340656590E+03   -0.25694E-04   -0.25710E-04  5720   0.209E-03 0.640E-06
CGA:  50    -0.236340689070E+03   -0.32479E-04   -0.32459E-04  5720   0.218E-03 0.127E-05
CGA:  51    -0.236340705838E+03   -0.16768E-04   -0.16817E-04  5720   0.701E-04 0.102E-05
CGA:  52    -0.236340719622E+03   -0.13784E-04   -0.13694E-04  5720   0.125E-03 0.149E-05
CGA:  53    -0.236340733576E+03   -0.13954E-04   -0.13995E-04  5720   0.432E-04 0.185E-05
CGA:  54    -0.236340741955E+03   -0.83795E-05   -0.83242E-05  5720   0.848E-04 0.992E-06
CGA:  55    -0.236340752793E+03   -0.10838E-04   -0.10846E-04  5720   0.188E-04 0.771E-06
CGA:  56    -0.236340754370E+03   -0.15762E-05   -0.15561E-05  5720   0.195E-04-0.364E-06
CGA:  57    -0.236340760136E+03   -0.57662E-05   -0.61400E-05  5720   0.273E-04-0.200E-05
CGA:  58    -0.236340762384E+03   -0.22487E-05   -0.22463E-05  5720   0.133E-04-0.920E-07
CGA:  59    -0.236340764367E+03   -0.19822E-05   -0.19754E-05  5720   0.122E-04 0.840E-06
CGA:  60    -0.236340765899E+03   -0.15329E-05   -0.15397E-05  5720   0.138E-04 0.272E-06
CGA:  61    -0.236340767725E+03   -0.18259E-05   -0.18220E-05  5720   0.401E-05-0.371E-06
CGA:  62    -0.236340768198E+03   -0.47240E-06   -0.46921E-06  5720   0.563E-05-0.123E-06
CGA:  63    -0.236340769350E+03   -0.11525E-05   -0.11626E-05  5720   0.941E-05-0.134E-06
CGA:  64    -0.236340770076E+03   -0.72519E-06   -0.73358E-06  5720   0.190E-05 0.154E-06
CGA:  65    -0.236340770263E+03   -0.18761E-06   -0.19224E-06  5720   0.866E-06 0.133E-06
CGA:  66    -0.236340770363E+03   -0.99755E-07   -0.99573E-07  5720   0.627E-06 0.315E-07
CGA:  67    -0.236340770515E+03   -0.15224E-06   -0.16674E-06  5720   0.340E-05-0.133E-06
CGA:  68    -0.236340770932E+03   -0.41707E-06   -0.52255E-06  5720  -0.389E-05-0.161E-05
CGA:  69    -0.236340768631E+03    0.23010E-05   -0.51139E-07  5720   0.354E-04-0.357E-04
CGA:  70    -0.236340770581E+03   -0.19503E-05   -0.19447E-05  5720   0.456E-05-0.705E-07
CGA:  71    -0.236340770963E+03   -0.38123E-06   -0.37188E-06  5720   0.172E-05-0.162E-06
CGA:  72    -0.236340771099E+03   -0.13647E-06   -0.13204E-06  5720   0.125E-06-0.763E-07
CGA:  73    -0.236340771101E+03   -0.20082E-08   -0.35149E-08  5720  -0.182E-07 0.130E-07
   1 F= -.23634077E+03 E0= -.23634399E+03  d E =0.966941E-02  mag=     0.1258
