 vasp.5.4.4.18Apr17-6-g9f103f2a35 (build Dec 20 2018 12:05:58) complex          
  
 executed on             LinuxIFC date 2019.06.20  16:36:39
 running on   32 total cores
 distrk:  each k-point on    8 cores,    4 groups
 distr:  one band on NCORES_PER_BAND=   4 cores,    2 groups


--------------------------------------------------------------------------------------------------------


 INCAR:
 POTCAR:    PAW_PBE Al 04Jan2001                  
 POTCAR:    PAW_PBE Mn 06Sep2000                  

 ----------------------------------------------------------------------------- 
|                                                                             |
|           W    W    AA    RRRRR   N    N  II  N    N   GGGG   !!!           |
|           W    W   A  A   R    R  NN   N  II  NN   N  G    G  !!!           |
|           W    W  A    A  R    R  N N  N  II  N N  N  G       !!!           |
|           W WW W  AAAAAA  RRRRR   N  N N  II  N  N N  G  GGG   !            |
|           WW  WW  A    A  R   R   N   NN  II  N   NN  G    G                |
|           W    W  A    A  R    R  N    N  II  N    N   GGGG   !!!           |
|                                                                             |
|      You have enabled k-point parallelism (KPAR>1).                         |
|      This developmental code was originally  written by Paul Kent at ORNL,  |
|      and carefully double checked in Vienna.                                |
|      GW as well as linear response parallelism added by Martijn Marsman     |
|      and Georg Kresse.                                                      |
|      Carefully verify results versus KPAR=1.                                |
|      Report problems to Paul Kent and Vienna.                               |
|                                                                             |
 ----------------------------------------------------------------------------- 

 POTCAR:    PAW_PBE Al 04Jan2001                  
   VRHFIN =Al: s2p1                                                             
   LEXCH  = PE                                                                  
   EATOM  =    53.5387 eV,    3.9350 Ry                                         
                                                                                
   TITEL  = PAW_PBE Al 04Jan2001                                                
   LULTRA =        F    use ultrasoft PP ?                                      
   IUNSCR =        1    unscreen: 0-lin 1-nonlin 2-no                           
   RPACOR =    1.500    partial core radius                                     
   POMASS =   26.981; ZVAL   =    3.000    mass and valenz                      
   RCORE  =    1.900    outmost cutoff radius                                   
   RWIGS  =    2.650; RWIGS  =    1.402    wigner-seitz radius (au A)           
   ENMAX  =  240.300; ENMIN  =  180.225 eV                                      
   ICORE  =        2    local potential                                         
   LCOR   =        T    correct aug charges                                     
   LPAW   =        T    paw PP                                                  
   EAUG   =  291.052                                                            
   DEXC   =    0.000                                                            
   RMAX   =    1.939    core radius for proj-oper                               
   RAUG   =    1.300    factor for augmentation sphere                          
   RDEP   =    1.966    radius for radial grids                                 
   RDEPT  =    1.856    core radius for aug-charge                              
                                                                                
   Atomic configuration                                                         
    6 entries                                                                   
     n  l   j            E        occ.                                          
     1  0  0.50     -1511.1048   2.0000                                         
     2  0  0.50      -108.1629   2.0000                                         
     2  1  1.50       -69.6402   6.0000                                         
     3  0  0.50        -7.7528   2.0000                                         
     3  1  1.50        -2.7121   1.0000                                         
     3  2  2.50        -2.7212   0.0000                                         
   Description                                                                  
     l       E           TYP  RCUT    TYP  RCUT                                 
     0     -7.7528455     23  1.900                                             
     0     -3.3096929     23  1.900                                             
     1     -2.7120682     23  1.900                                             
     1     13.6058260     23  1.900                                             
     2     -2.7211652      7  1.900                                             
  local pseudopotential read in
  partial core-charges read in
  partial kinetic energy density read in
  atomic valenz-charges read in
  non local Contribution for L=           0  read in
    real space projection operators read in
  non local Contribution for L=           0  read in
    real space projection operators read in
  non local Contribution for L=           1  read in
    real space projection operators read in
  non local Contribution for L=           1  read in
    real space projection operators read in
    PAW grid and wavefunctions read in
 
   number of l-projection  operators is LMAX  =           4
   number of lm-projection operators is LMMAX =           8
 
 POTCAR:    PAW_PBE Mn 06Sep2000                  
   VRHFIN =Mn: d6 s1                                                            
   LEXCH  = PE                                                                  
   EATOM  =   416.7541 eV,   30.6306 Ry                                         
                                                                                
   TITEL  = PAW_PBE Mn 06Sep2000                                                
   LULTRA =        F    use ultrasoft PP ?                                      
   IUNSCR =        1    unscreen: 0-lin 1-nonlin 2-no                           
   RPACOR =    2.000    partial core radius                                     
   POMASS =   54.938; ZVAL   =    7.000    mass and valenz                      
   RCORE  =    2.300    outmost cutoff radius                                   
   RWIGS  =    2.500; RWIGS  =    1.323    wigner-seitz radius (au A)           
   ENMAX  =  269.864; ENMIN  =  202.398 eV                                      
   RCLOC  =    1.725    cutoff for local pot                                    
   LCOR   =        T    correct aug charges                                     
   LPAW   =        T    paw PP                                                  
   EAUG   =  500.711                                                            
   DEXC   =    0.000                                                            
   RMAX   =    2.343    core radius for proj-oper                               
   RAUG   =    1.300    factor for augmentation sphere                          
   RDEP   =    2.338    radius for radial grids                                 
   RDEPT  =    1.911    core radius for aug-charge                              
                                                                                
   Atomic configuration                                                         
    9 entries                                                                   
     n  l   j            E        occ.                                          
     1  0  0.50     -6424.8288   2.0000                                         
     2  0  0.50      -739.1154   2.0000                                         
     2  1  1.50      -625.3949   6.0000                                         
     3  0  0.50       -81.6100   2.0000                                         
     3  1  1.50       -50.4667   6.0000                                         
     3  2  2.50        -3.3745   6.0000                                         
     4  0  0.50        -4.1331   1.0000                                         
     4  1  0.50        -4.0817   0.0000                                         
     4  3  2.50        -1.3606   0.0000                                         
   Description                                                                  
     l       E           TYP  RCUT    TYP  RCUT                                 
     2     -3.3744664     23  2.300                                             
     2     -4.7350490     23  2.300                                             
     0     -4.1331408     23  2.300                                             
     0      7.6656614     23  2.300                                             
     1     -2.7211652     23  2.300                                             
     1     20.4087390     23  2.300                                             
  local pseudopotential read in
  partial core-charges read in
  partial kinetic energy density read in
  atomic valenz-charges read in
  non local Contribution for L=           2  read in
    real space projection operators read in
  non local Contribution for L=           2  read in
    real space projection operators read in
  non local Contribution for L=           0  read in
    real space projection operators read in
  non local Contribution for L=           0  read in
    real space projection operators read in
  non local Contribution for L=           1  read in
    real space projection operators read in
  non local Contribution for L=           1  read in
    real space projection operators read in
    PAW grid and wavefunctions read in
 
   number of l-projection  operators is LMAX  =           6
   number of lm-projection operators is LMMAX =          18
 

 ----------------------------------------------------------------------------- 
|                                                                             |
|  ADVICE TO THIS USER RUNNING 'VASP/VAMP'   (HEAR YOUR MASTER'S VOICE ...):  |
|                                                                             |
|      You have a (more or less) 'large supercell' and for larger cells       |
|      it might be more efficient to use real space projection opertators     |
|      So try LREAL= Auto  in the INCAR   file.                               |
|      Mind:          For very  accurate calculation you might also keep the  |
|      reciprocal projection scheme          (i.e. LREAL=.FALSE.)             |
|                                                                             |
 ----------------------------------------------------------------------------- 

  PAW_PBE Al 04Jan2001                  :
 energy of atom  1       EATOM=  -53.5387
 kinetic energy error for atom=    0.0005 (will be added to EATOM!!)
  PAW_PBE Mn 06Sep2000                  :
 energy of atom  2       EATOM= -416.7541
 kinetic energy error for atom=    0.0080 (will be added to EATOM!!)
 
 
 POSCAR: NewRef: 18, @ ['Mn', array([1.37502469, 
  positions in cartesian coordinates
  velocities in cartesian coordinates
  No initial velocities read in
 exchange correlation table for  LEXCH =        8
   RHO(1)=    0.500       N(1)  =     2000
   RHO(2)=  100.500       N(2)  =     4000
 


--------------------------------------------------------------------------------------------------------


 ion  position               nearest neighbor table
   1  0.000  0.000  0.000-  20 2.61  24 2.61  32 2.61  36 2.61  31 2.61  23 2.61  35 2.61  19 2.61
                             3 2.75   7 2.75   5 2.75  13 2.75
   2  0.000  0.000  0.500-  19 2.61  23 2.61  31 2.61  35 2.61  20 2.61  32 2.61  24 2.61  36 2.61
                             4 2.75   8 2.75   6 2.75  14 2.75
   3  0.000  0.333  0.000-  20 2.61  32 2.61  22 2.61  34 2.61  19 2.61  31 2.61  33 2.61  21 2.61
                             9 2.75   1 2.75   5 2.75  15 2.75
   4  0.000  0.333  0.500-  19 2.61  31 2.61  21 2.61  33 2.61  32 2.61  20 2.61  22 2.61  34 2.61
                            10 2.75   2 2.75   6 2.75  16 2.75
   5  0.000  0.667  0.000-  22 2.61  34 2.61  24 2.61  36 2.61  21 2.61  33 2.61  35 2.61  23 2.61
                             3 2.75  11 2.75   1 2.75  17 2.75
   6  0.000  0.667  0.500-  21 2.61  33 2.61  23 2.61  35 2.61  34 2.61  22 2.61  24 2.61  36 2.61
                             4 2.75  12 2.75   2 2.75  18 2.75
   7  0.333  0.000  0.000-  20 2.61  24 2.61  26 2.61  30 2.61  23 2.61  19 2.61  29 2.61  25 2.61
                            13 2.75   1 2.75   9 2.75  11 2.75
   8  0.333  0.000  0.500-  19 2.61  23 2.61  25 2.61  29 2.61  20 2.61  24 2.61  26 2.61  30 2.61
                            14 2.75   2 2.75  10 2.75  12 2.75
   9  0.333  0.333  0.000-  20 2.61  22 2.61  26 2.61  19 2.61  28 2.61  21 2.61  25 2.61  27 2.61
                             3 2.75   7 2.75  11 2.75  15 2.75
  10  0.333  0.333  0.500-  19 2.61  21 2.61  25 2.61  20 2.61  27 2.61  26 2.61  22 2.61  28 2.61
                             4 2.75   8 2.75  12 2.75  16 2.75
  11  0.333  0.667  0.000-  22 2.61  24 2.61  28 2.61  21 2.61  30 2.61  23 2.61  27 2.61  29 2.61
                            17 2.75   5 2.75   9 2.75   7 2.75
  12  0.333  0.667  0.500-  21 2.61  23 2.61  27 2.61  22 2.61  29 2.61  28 2.61  24 2.61  30 2.61
                            18 2.75   6 2.75  10 2.75   8 2.75
  13  0.667  0.000  0.000-  26 2.61  30 2.61  32 2.61  36 2.61  29 2.61  25 2.61  35 2.61  31 2.61
                             7 2.75  15 2.75   1 2.75  17 2.75
  14  0.667  0.000  0.500-  25 2.61  29 2.61  31 2.61  35 2.61  26 2.61  30 2.61  32 2.61  36 2.61
                             8 2.75  16 2.75   2 2.75  18 2.75
  15  0.667  0.333  0.000-  26 2.61  28 2.61  32 2.61  25 2.61  34 2.61  27 2.61  31 2.61  33 2.61
                            17 2.75   9 2.75  13 2.75   3 2.75
  16  0.667  0.333  0.500-  25 2.61  27 2.61  31 2.61  26 2.61  33 2.61  32 2.61  28 2.61  34 2.61
                            18 2.75  10 2.75  14 2.75   4 2.75
  17  0.667  0.667  0.000-  28 2.61  30 2.61  34 2.61  27 2.61  36 2.61  29 2.61  33 2.61  35 2.61
                            11 2.75  15 2.75  13 2.75   5 2.75
  18  0.667  0.667  0.500-  27 2.61  29 2.61  33 2.61  28 2.61  35 2.61  34 2.61  30 2.61  36 2.61
                            12 2.75  16 2.75  14 2.75   6 2.75
  19  0.167  0.167  0.250-  10 2.61   8 2.61   4 2.61   9 2.61   2 2.61   7 2.61   3 2.61   1 2.61
                            21 2.75  25 2.75  23 2.75  31 2.75
  20  0.167  0.167  0.750-   9 2.61   7 2.61   3 2.61  10 2.61   1 2.61   4 2.61   8 2.61   2 2.61
                            22 2.75  26 2.75  24 2.75  32 2.75
  21  0.167  0.500  0.250-  12 2.61  10 2.61   6 2.61  11 2.61   4 2.61   9 2.61   5 2.61   3 2.61
                            19 2.75  23 2.75  27 2.75  33 2.75
  22  0.167  0.500  0.750-  11 2.61   9 2.61   5 2.61  12 2.61   3 2.61   6 2.61  10 2.61   4 2.61
                            20 2.75  24 2.75  28 2.75  34 2.75
  23  0.167  0.833  0.250-   8 2.61  12 2.61   2 2.61   6 2.61  11 2.61   7 2.61   5 2.61   1 2.61
                            21 2.75  29 2.75  19 2.75  35 2.75
  24  0.167  0.833  0.750-   7 2.61  11 2.61   1 2.61   5 2.61   8 2.61  12 2.61   2 2.61   6 2.61
                            22 2.75  30 2.75  20 2.75  36 2.75
  25  0.500  0.167  0.250-  16 2.61  14 2.61  10 2.61  15 2.61   8 2.61  13 2.61   9 2.61   7 2.61
                            19 2.75  27 2.75  31 2.75  29 2.75
  26  0.500  0.167  0.750-  15 2.61  13 2.61   9 2.61  16 2.61   7 2.61  10 2.61  14 2.61   8 2.61
                            20 2.75  28 2.75  32 2.75  30 2.75
  27  0.500  0.500  0.250-  18 2.61  16 2.61  12 2.61  17 2.61  10 2.61  15 2.61  11 2.61   9 2.61
                            21 2.75  25 2.75  29 2.75  33 2.75
  28  0.500  0.500  0.750-  17 2.61  15 2.61  11 2.61  18 2.61   9 2.61  12 2.61  16 2.61  10 2.61
                            22 2.75  26 2.75  30 2.75  34 2.75
  29  0.500  0.833  0.250-  14 2.61  18 2.61   8 2.61  12 2.61  17 2.61  13 2.61  11 2.61   7 2.61
                            23 2.75  27 2.75  35 2.75  25 2.75
  30  0.500  0.833  0.750-  13 2.61  17 2.61   7 2.61  11 2.61  14 2.61  18 2.61   8 2.61  12 2.61
                            24 2.75  28 2.75  36 2.75  26 2.75
  31  0.833  0.167  0.250-   4 2.61  16 2.61  14 2.61   2 2.61  15 2.61   3 2.61  13 2.61   1 2.61
                            25 2.75  33 2.75  19 2.75  35 2.75
  32  0.833  0.167  0.750-   3 2.61  15 2.61  13 2.61   1 2.61   4 2.61  16 2.61   2 2.61  14 2.61
                            26 2.75  34 2.75  20 2.75  36 2.75
  33  0.833  0.500  0.250-   6 2.61  18 2.61  16 2.61   4 2.61  17 2.61   5 2.61  15 2.61   3 2.61
                            27 2.75  31 2.75  35 2.75  21 2.75
  34  0.833  0.500  0.750-   5 2.61  17 2.61  15 2.61   3 2.61   6 2.61  18 2.61   4 2.61  16 2.61
                            28 2.75  32 2.75  36 2.75  22 2.75
  35  0.833  0.833  0.250-   2 2.61   6 2.61  14 2.61  18 2.61  13 2.61   5 2.61  17 2.61   1 2.61
                            29 2.75  33 2.75  31 2.75  23 2.75
  36  0.833  0.833  0.750-   1 2.61   5 2.61  13 2.61  17 2.61   2 2.61  14 2.61   6 2.61  18 2.61
                            30 2.75  34 2.75  32 2.75  24 2.75
 
  LATTYP: Found a simple tetragonal cell.
 ALAT       =     8.2501481662
 C/A-ratio  =     0.8428059861
  
  Lattice vectors:
  
 A1 = (   8.2501481662,   0.0000000000,   0.0000000000)
 A2 = (   0.0000000000,   8.2501481662,   0.0000000000)
 A3 = (   0.0000000000,   0.0000000000,   6.9532742610)


Analysis of symmetry for initial positions (statically):
=====================================================================
 Subroutine PRICEL returns following result:
 
  LATTYP: Found a simple tetragonal cell.
 ALAT       =     2.7500493888
 C/A-ratio  =     1.2642089792
  
  Lattice vectors:
  
 A1 = (   2.7500493888,   0.0000000000,   0.0000000000)
 A2 = (   0.0000000000,   2.7500493888,   0.0000000000)
 A3 = (   0.0000000000,   0.0000000000,   3.4766371305)
 
  18 primitive cells build up your supercell.
 

 Routine SETGRP: Setting up the symmetry group for a 
 simple tetragonal supercell.


 Subroutine GETGRP returns: Found 16 space group operations
 (whereof 16 operations were pure point group operations)
 out of a pool of 16 trial point group operations.


The static configuration has the point symmetry D_4h.


Analysis of symmetry for dynamics (positions and initial velocities):
=====================================================================
 Subroutine PRICEL returns following result:
 
  LATTYP: Found a simple tetragonal cell.
 ALAT       =     2.7500493888
 C/A-ratio  =     1.2642089792
  
  Lattice vectors:
  
 A1 = (   2.7500493888,   0.0000000000,   0.0000000000)
 A2 = (   0.0000000000,   2.7500493888,   0.0000000000)
 A3 = (   0.0000000000,   0.0000000000,   3.4766371305)
 
  18 primitive cells build up your supercell.
 

 Routine SETGRP: Setting up the symmetry group for a 
 simple tetragonal supercell.


 Subroutine GETGRP returns: Found 16 space group operations
 (whereof 16 operations were pure point group operations)
 out of a pool of 16 trial point group operations.


The dynamic configuration has the point symmetry D_4h.


Analysis of structural, dynamic, and magnetic symmetry:
=====================================================================
 Subroutine PRICEL returns:
 Original cell was already a primitive cell.
 

 Routine SETGRP: Setting up the symmetry group for a 
 simple tetragonal supercell.


 Subroutine GETGRP returns: Found  2 space group operations
 (whereof  1 operations were pure point group operations)
 out of a pool of 16 trial point group operations.


The magnetic configuration has the point symmetry C_1 .
 The point group associated with its full space group is C_1h.


 Subroutine INISYM returns: Found  2 space group operations
 (whereof  1 operations are pure point group operations),
 and found     1 'primitive' translations

 
 
 KPOINTS: automatic KPOINTS                       

Automatic generation of k-mesh.
 generate k-points for:    5    5    6
Space group operators:
 irot       det(A)        alpha          n_x          n_y          n_z        tau_x        tau_y        tau_z
    1     1.000000     0.000001     1.000000     0.000000     0.000000     0.000000     0.000000     0.000000
    2    -1.000000   179.999999     0.000000     0.000000     1.000000     0.000000     0.000000     0.500000
 
 Subroutine IBZKPT returns following result:
 ===========================================
 
 Found     52 irreducible k-points:
 
 Following reciprocal coordinates:
            Coordinates               Weight
  0.000000  0.000000  0.000000      1.000000
  0.200000  0.000000  0.000000      2.000000
  0.400000  0.000000  0.000000      2.000000
  0.000000  0.200000  0.000000      2.000000
  0.200000  0.200000  0.000000      2.000000
  0.400000  0.200000  0.000000      2.000000
 -0.400000  0.200000  0.000000      2.000000
 -0.200000  0.200000  0.000000      2.000000
  0.000000  0.400000  0.000000      2.000000
  0.200000  0.400000  0.000000      2.000000
  0.400000  0.400000  0.000000      2.000000
 -0.400000  0.400000  0.000000      2.000000
 -0.200000  0.400000  0.000000      2.000000
  0.000000  0.000000  0.166667      2.000000
  0.200000  0.000000  0.166667      4.000000
  0.400000  0.000000  0.166667      4.000000
  0.000000  0.200000  0.166667      4.000000
  0.200000  0.200000  0.166667      4.000000
  0.400000  0.200000  0.166667      4.000000
 -0.400000  0.200000  0.166667      4.000000
 -0.200000  0.200000  0.166667      4.000000
  0.000000  0.400000  0.166667      4.000000
  0.200000  0.400000  0.166667      4.000000
  0.400000  0.400000  0.166667      4.000000
 -0.400000  0.400000  0.166667      4.000000
 -0.200000  0.400000  0.166667      4.000000
  0.000000  0.000000  0.333333      2.000000
  0.200000  0.000000  0.333333      4.000000
  0.400000  0.000000  0.333333      4.000000
  0.000000  0.200000  0.333333      4.000000
  0.200000  0.200000  0.333333      4.000000
  0.400000  0.200000  0.333333      4.000000
 -0.400000  0.200000  0.333333      4.000000
 -0.200000  0.200000  0.333333      4.000000
  0.000000  0.400000  0.333333      4.000000
  0.200000  0.400000  0.333333      4.000000
  0.400000  0.400000  0.333333      4.000000
 -0.400000  0.400000  0.333333      4.000000
 -0.200000  0.400000  0.333333      4.000000
  0.000000  0.000000  0.500000      1.000000
  0.200000  0.000000  0.500000      2.000000
  0.400000  0.000000  0.500000      2.000000
  0.000000  0.200000  0.500000      2.000000
  0.200000  0.200000  0.500000      2.000000
  0.400000  0.200000  0.500000      2.000000
 -0.400000  0.200000  0.500000      2.000000
 -0.200000  0.200000  0.500000      2.000000
  0.000000  0.400000  0.500000      2.000000
  0.200000  0.400000  0.500000      2.000000
  0.400000  0.400000  0.500000      2.000000
 -0.400000  0.400000  0.500000      2.000000
 -0.200000  0.400000  0.500000      2.000000
 
 Following cartesian coordinates:
            Coordinates               Weight
  0.000000  0.000000  0.000000      1.000000
  0.024242  0.000000  0.000000      2.000000
  0.048484  0.000000  0.000000      2.000000
  0.000000  0.024242  0.000000      2.000000
  0.024242  0.024242  0.000000      2.000000
  0.048484  0.024242  0.000000      2.000000
 -0.048484  0.024242  0.000000      2.000000
 -0.024242  0.024242  0.000000      2.000000
  0.000000  0.048484  0.000000      2.000000
  0.024242  0.048484  0.000000      2.000000
  0.048484  0.048484  0.000000      2.000000
 -0.048484  0.048484  0.000000      2.000000
 -0.024242  0.048484  0.000000      2.000000
  0.000000  0.000000  0.023970      2.000000
  0.024242  0.000000  0.023970      4.000000
  0.048484  0.000000  0.023970      4.000000
  0.000000  0.024242  0.023970      4.000000
  0.024242  0.024242  0.023970      4.000000
  0.048484  0.024242  0.023970      4.000000
 -0.048484  0.024242  0.023970      4.000000
 -0.024242  0.024242  0.023970      4.000000
  0.000000  0.048484  0.023970      4.000000
  0.024242  0.048484  0.023970      4.000000
  0.048484  0.048484  0.023970      4.000000
 -0.048484  0.048484  0.023970      4.000000
 -0.024242  0.048484  0.023970      4.000000
  0.000000  0.000000  0.047939      2.000000
  0.024242  0.000000  0.047939      4.000000
  0.048484  0.000000  0.047939      4.000000
  0.000000  0.024242  0.047939      4.000000
  0.024242  0.024242  0.047939      4.000000
  0.048484  0.024242  0.047939      4.000000
 -0.048484  0.024242  0.047939      4.000000
 -0.024242  0.024242  0.047939      4.000000
  0.000000  0.048484  0.047939      4.000000
  0.024242  0.048484  0.047939      4.000000
  0.048484  0.048484  0.047939      4.000000
 -0.048484  0.048484  0.047939      4.000000
 -0.024242  0.048484  0.047939      4.000000
  0.000000  0.000000  0.071909      1.000000
  0.024242  0.000000  0.071909      2.000000
  0.048484  0.000000  0.071909      2.000000
  0.000000  0.024242  0.071909      2.000000
  0.024242  0.024242  0.071909      2.000000
  0.048484  0.024242  0.071909      2.000000
 -0.048484  0.024242  0.071909      2.000000
 -0.024242  0.024242  0.071909      2.000000
  0.000000  0.048484  0.071909      2.000000
  0.024242  0.048484  0.071909      2.000000
  0.048484  0.048484  0.071909      2.000000
 -0.048484  0.048484  0.071909      2.000000
 -0.024242  0.048484  0.071909      2.000000
 


--------------------------------------------------------------------------------------------------------




 Dimension of arrays:
   k-points           NKPTS =     52   k-points in BZ     NKDIM =     52   number of bands    NBANDS=    110
   number of dos      NEDOS =    301   number of ions     NIONS =     36
   non local maximal  LDIM  =      6   non local SUM 2l+1 LMDIM =     18
   total plane-waves  NPLWV = 139968
   max r-space proj   IRMAX =      1   max aug-charges    IRDMAX=  92271
   dimension x,y,z NGX =    54 NGY =   54 NGZ =   48
   dimension x,y,z NGXF=   108 NGYF=  108 NGZF=   96
   support grid    NGXF=   216 NGYF=  216 NGZF=  192
   ions per type =              18  18
   NGX,Y,Z   is equivalent  to a cutoff of  10.88, 10.88, 11.48 a.u.
   NGXF,Y,Z  is equivalent  to a cutoff of  21.76, 21.76, 22.95 a.u.

 SYSTEM =  AlMn_pv                                 
 POSCAR =  NewRef: 18, @ ['Mn', array([1.37502469, 

 Startparameter for this run:
   NWRITE =      2    write-flag & timer
   PREC   = accura    normal or accurate (medium, high low for compatibility)
   ISTART =      0    job   : 0-new  1-cont  2-samecut
   ICHARG =      2    charge: 1-file 2-atom 10-const
   ISPIN  =      2    spin polarized calculation?
   LNONCOLLINEAR =      F non collinear calculations
   LSORBIT =      F    spin-orbit coupling
   INIWAV =      1    electr: 0-lowe 1-rand  2-diag
   LASPH  =      F    aspherical Exc in radial PAW
   METAGGA=      F    non-selfconsistent MetaGGA calc.

 Electronic Relaxation 1
   ENCUT  =  404.8 eV  29.75 Ry    5.45 a.u.  13.53 13.53 11.41*2*pi/ulx,y,z
   ENINI  =  404.8     initial cutoff
   ENAUG  =  500.7 eV  augmentation charge cutoff
   NELM   =    100;   NELMIN=  4; NELMDL= -8     # of ELM steps 
   EDIFF  = 0.1E-06   stopping-criterion for ELM
   LREAL  =      F    real-space projection
   NLSPLINE    = F    spline interpolate recip. space projectors
   LCOMPAT=      F    compatible to vasp.4.4
   GGA_COMPAT  = T    GGA compatible to vasp.4.4-vasp.4.6
   LMAXPAW     = -100 max onsite density
   LMAXMIX     =    2 max onsite mixed and CHGCAR
   VOSKOWN=      0    Vosko Wilk Nusair interpolation
   ROPT   =    0.00000   0.00000
 Ionic relaxation
   EDIFFG = 0.1E-05   stopping-criterion for IOM
   NSW    =      0    number of steps for IOM
   NBLOCK =      1;   KBLOCK =      1    inner block; outer block 
   IBRION =     -1    ionic relax: 0-MD 1-quasi-New 2-CG
   NFREE  =      0    steps in history (QN), initial steepest desc. (CG)
   ISIF   =      2    stress and relaxation
   IWAVPR =     10    prediction:  0-non 1-charg 2-wave 3-comb
   ISYM   =      2    0-nonsym 1-usesym 2-fastsym
   LCORR  =      T    Harris-Foulkes like correction to forces

   POTIM  = 0.2000    time-step for ionic-motion
   TEIN   =    0.0    initial temperature
   TEBEG  =    0.0;   TEEND  =   0.0 temperature during run
   SMASS  =  -3.00    Nose mass-parameter (am)
   estimated Nose-frequenzy (Omega)   =  0.10E-29 period in steps =****** mass=  -0.156E-26a.u.
   SCALEE = 1.0000    scale energy and forces
   NPACO  =    256;   APACO  = 16.0  distance and # of slots for P.C.
   PSTRESS=    0.0 pullay stress

  Mass of Ions in am
   POMASS =  26.98 54.94
  Ionic Valenz
   ZVAL   =   3.00  7.00
  Atomic Wigner-Seitz radii
   RWIGS  =  -1.00 -1.00
  virtual crystal weights 
   VCA    =   1.00  1.00
   NELECT =     180.0000    total number of electrons
   NUPDOWN=      -1.0000    fix difference up-down

 DOS related values:
   EMIN   =  10.00;   EMAX   =-10.00  energy-range for DOS
   EFERMI =   0.00
   ISMEAR =     1;   SIGMA  =   0.20  broadening in eV -4-tet -1-fermi 0-gaus

 Electronic relaxation 2 (details)
   IALGO  =     58    algorithm
   LDIAG  =      T    sub-space diagonalisation (order eigenvalues)
   LSUBROT=      F    optimize rotation matrix (better conditioning)
   TURBO    =      0    0=normal 1=particle mesh
   IRESTART =      0    0=no restart 2=restart with 2 vectors
   NREBOOT  =      0    no. of reboots
   NMIN     =      0    reboot dimension
   EREF     =   0.00    reference energy to select bands
   IMIX   =      4    mixing-type and parameters
     AMIX     =   0.40;   BMIX     =  1.00
     AMIX_MAG =   1.60;   BMIX_MAG =  1.00
     AMIN     =   0.10
     WC   =   100.;   INIMIX=   1;  MIXPRE=   1;  MAXMIX= -45

 Intra band minimization:
   WEIMIN = 0.0000     energy-eigenvalue tresh-hold
   EBREAK =  0.23E-09  absolut break condition
   DEPER  =   0.30     relativ break condition  

   TIME   =   0.40     timestep for ELM

  volume/ion in A,a.u.               =      13.15        88.72
  Fermi-wavevector in a.u.,A,eV,Ry     =   1.186118  2.241439 19.141722  1.406877
  Thomas-Fermi vector in A             =   2.322298
 
 Write flags
   LWAVE        =      F    write WAVECAR
   LDOWNSAMPLE  =      F    k-point downsampling of WAVECAR
   LCHARG       =      F    write CHGCAR
   LVTOT        =      F    write LOCPOT, total local potential
   LVHAR        =      F    write LOCPOT, Hartree potential only
   LELF         =      F    write electronic localiz. function (ELF)
   LORBIT       =     10    0 simple, 1 ext, 2 COOP (PROOUT), +10 PAW based schemes


 Dipole corrections
   LMONO  =      F    monopole corrections only (constant potential shift)
   LDIPOL =      F    correct potential (dipole corrections)
   IDIPOL =      0    1-x, 2-y, 3-z, 4-all directions 
   EPSILON=  1.0000000 bulk dielectric constant

 Exchange correlation treatment:
   GGA     =    --    GGA type
   LEXCH   =     8    internal setting for exchange type
   VOSKOWN=      0    Vosko Wilk Nusair interpolation
   LHFCALC =     F    Hartree Fock is set to
   LHFONE  =     F    Hartree Fock one center treatment
   AEXX    =    0.0000 exact exchange contribution

 Linear response parameters
   LEPSILON=     F    determine dielectric tensor
   LRPA    =     F    only Hartree local field effects (RPA)
   LNABLA  =     F    use nabla operator in PAW spheres
   LVEL    =     F    velocity operator in full k-point grid
   LINTERFAST=   F  fast interpolation
   KINTER  =     0    interpolate to denser k-point grid
   CSHIFT  =0.1000    complex shift for real part using Kramers Kronig
   OMEGAMAX=  -1.0    maximum frequency
   DEG_THRESHOLD= 0.2000000E-02 threshold for treating states as degnerate
   RTIME   =   -0.100 relaxation time in fs
  (WPLASMAI=    0.000 imaginary part of plasma frequency in eV, 0.658/RTIME)
   DFIELD  = 0.0000000 0.0000000 0.0000000 field for delta impulse in time
 
 Orbital magnetization related:
   ORBITALMAG=     F  switch on orbital magnetization
   LCHIMAG   =     F  perturbation theory with respect to B field
   DQ        =  0.001000  dq finite difference perturbation B field
   LLRAUG    =     F  two centre corrections for induced B field



--------------------------------------------------------------------------------------------------------


 Static calculation
 charge density and potential will be updated during run
 spin polarized calculation
 Conjugate gradient for all bands (Freysoldt, et al. PRB 79, 241103 (2009))
 preconditioned conjugated gradient                                        
 perform sub-space diagonalisation
    before iterative eigenvector-optimisation
 modified Broyden-mixing scheme, WC =      100.0
 initial mixing is a Kerker type mixing with AMIX =  0.4000 and BMIX =      1.0000
 Hartree-type preconditioning will be used
 using additional bands           20
 reciprocal scheme for non local part
 use partial core corrections
 no Harris-corrections to forces 
 use gradient corrections 
 use of overlap-Matrix (Vanderbilt PP)
 Methfessel and Paxton  Order N= 1 SIGMA  =   0.20


--------------------------------------------------------------------------------------------------------


  energy-cutoff  :      404.80
  volume of cell :      473.27
      direct lattice vectors                 reciprocal lattice vectors
     8.250148166  0.000000000  0.000000000     0.121209944  0.000000000  0.000000000
     0.000000000  8.250148166  0.000000000     0.000000000  0.121209944  0.000000000
     0.000000000  0.000000000  6.953274261     0.000000000  0.000000000  0.143817137

  length of vectors
     8.250148166  8.250148166  6.953274261     0.121209944  0.121209944  0.143817137


 
 k-points in units of 2pi/SCALE and weight: automatic KPOINTS                       
   0.00000000  0.00000000  0.00000000       0.007
   0.02424199  0.00000000  0.00000000       0.013
   0.04848398  0.00000000  0.00000000       0.013
   0.00000000  0.02424199  0.00000000       0.013
   0.02424199  0.02424199  0.00000000       0.013
   0.04848398  0.02424199  0.00000000       0.013
  -0.04848398  0.02424199  0.00000000       0.013
  -0.02424199  0.02424199  0.00000000       0.013
   0.00000000  0.04848398  0.00000000       0.013
   0.02424199  0.04848398  0.00000000       0.013
   0.04848398  0.04848398  0.00000000       0.013
  -0.04848398  0.04848398  0.00000000       0.013
  -0.02424199  0.04848398  0.00000000       0.013
   0.00000000  0.00000000  0.02396952       0.013
   0.02424199  0.00000000  0.02396952       0.027
   0.04848398  0.00000000  0.02396952       0.027
   0.00000000  0.02424199  0.02396952       0.027
   0.02424199  0.02424199  0.02396952       0.027
   0.04848398  0.02424199  0.02396952       0.027
  -0.04848398  0.02424199  0.02396952       0.027
  -0.02424199  0.02424199  0.02396952       0.027
   0.00000000  0.04848398  0.02396952       0.027
   0.02424199  0.04848398  0.02396952       0.027
   0.04848398  0.04848398  0.02396952       0.027
  -0.04848398  0.04848398  0.02396952       0.027
  -0.02424199  0.04848398  0.02396952       0.027
   0.00000000  0.00000000  0.04793905       0.013
   0.02424199  0.00000000  0.04793905       0.027
   0.04848398  0.00000000  0.04793905       0.027
   0.00000000  0.02424199  0.04793905       0.027
   0.02424199  0.02424199  0.04793905       0.027
   0.04848398  0.02424199  0.04793905       0.027
  -0.04848398  0.02424199  0.04793905       0.027
  -0.02424199  0.02424199  0.04793905       0.027
   0.00000000  0.04848398  0.04793905       0.027
   0.02424199  0.04848398  0.04793905       0.027
   0.04848398  0.04848398  0.04793905       0.027
  -0.04848398  0.04848398  0.04793905       0.027
  -0.02424199  0.04848398  0.04793905       0.027
   0.00000000  0.00000000  0.07190857       0.007
   0.02424199  0.00000000  0.07190857       0.013
   0.04848398  0.00000000  0.07190857       0.013
   0.00000000  0.02424199  0.07190857       0.013
   0.02424199  0.02424199  0.07190857       0.013
   0.04848398  0.02424199  0.07190857       0.013
  -0.04848398  0.02424199  0.07190857       0.013
  -0.02424199  0.02424199  0.07190857       0.013
   0.00000000  0.04848398  0.07190857       0.013
   0.02424199  0.04848398  0.07190857       0.013
   0.04848398  0.04848398  0.07190857       0.013
  -0.04848398  0.04848398  0.07190857       0.013
  -0.02424199  0.04848398  0.07190857       0.013
 
 k-points in reciprocal lattice and weights: automatic KPOINTS                       
   0.00000000  0.00000000  0.00000000       0.007
   0.20000000  0.00000000  0.00000000       0.013
   0.40000000  0.00000000  0.00000000       0.013
   0.00000000  0.20000000  0.00000000       0.013
   0.20000000  0.20000000  0.00000000       0.013
   0.40000000  0.20000000  0.00000000       0.013
  -0.40000000  0.20000000  0.00000000       0.013
  -0.20000000  0.20000000  0.00000000       0.013
   0.00000000  0.40000000  0.00000000       0.013
   0.20000000  0.40000000  0.00000000       0.013
   0.40000000  0.40000000  0.00000000       0.013
  -0.40000000  0.40000000  0.00000000       0.013
  -0.20000000  0.40000000  0.00000000       0.013
   0.00000000  0.00000000  0.16666667       0.013
   0.20000000  0.00000000  0.16666667       0.027
   0.40000000  0.00000000  0.16666667       0.027
   0.00000000  0.20000000  0.16666667       0.027
   0.20000000  0.20000000  0.16666667       0.027
   0.40000000  0.20000000  0.16666667       0.027
  -0.40000000  0.20000000  0.16666667       0.027
  -0.20000000  0.20000000  0.16666667       0.027
   0.00000000  0.40000000  0.16666667       0.027
   0.20000000  0.40000000  0.16666667       0.027
   0.40000000  0.40000000  0.16666667       0.027
  -0.40000000  0.40000000  0.16666667       0.027
  -0.20000000  0.40000000  0.16666667       0.027
   0.00000000  0.00000000  0.33333333       0.013
   0.20000000  0.00000000  0.33333333       0.027
   0.40000000  0.00000000  0.33333333       0.027
   0.00000000  0.20000000  0.33333333       0.027
   0.20000000  0.20000000  0.33333333       0.027
   0.40000000  0.20000000  0.33333333       0.027
  -0.40000000  0.20000000  0.33333333       0.027
  -0.20000000  0.20000000  0.33333333       0.027
   0.00000000  0.40000000  0.33333333       0.027
   0.20000000  0.40000000  0.33333333       0.027
   0.40000000  0.40000000  0.33333333       0.027
  -0.40000000  0.40000000  0.33333333       0.027
  -0.20000000  0.40000000  0.33333333       0.027
   0.00000000  0.00000000  0.50000000       0.007
   0.20000000  0.00000000  0.50000000       0.013
   0.40000000  0.00000000  0.50000000       0.013
   0.00000000  0.20000000  0.50000000       0.013
   0.20000000  0.20000000  0.50000000       0.013
   0.40000000  0.20000000  0.50000000       0.013
  -0.40000000  0.20000000  0.50000000       0.013
  -0.20000000  0.20000000  0.50000000       0.013
   0.00000000  0.40000000  0.50000000       0.013
   0.20000000  0.40000000  0.50000000       0.013
   0.40000000  0.40000000  0.50000000       0.013
  -0.40000000  0.40000000  0.50000000       0.013
  -0.20000000  0.40000000  0.50000000       0.013
 
 position of ions in fractional coordinates (direct lattice) 
   0.00000000  0.00000000  0.00000000
   0.00000000  0.00000000  0.50000000
   0.00000000  0.33333333  0.00000000
   0.00000000  0.33333333  0.50000000
   0.00000000  0.66666667  0.00000000
   0.00000000  0.66666667  0.50000000
   0.33333333  0.00000000  0.00000000
   0.33333333  0.00000000  0.50000000
   0.33333333  0.33333333  0.00000000
   0.33333333  0.33333333  0.50000000
   0.33333333  0.66666667  0.00000000
   0.33333333  0.66666667  0.50000000
   0.66666667  0.00000000  0.00000000
   0.66666667  0.00000000  0.50000000
   0.66666667  0.33333333  0.00000000
   0.66666667  0.33333333  0.50000000
   0.66666667  0.66666667  0.00000000
   0.66666667  0.66666667  0.50000000
   0.16666667  0.16666667  0.25000000
   0.16666667  0.16666667  0.75000000
   0.16666667  0.50000000  0.25000000
   0.16666667  0.50000000  0.75000000
   0.16666667  0.83333333  0.25000000
   0.16666667  0.83333333  0.75000000
   0.50000000  0.16666667  0.25000000
   0.50000000  0.16666667  0.75000000
   0.50000000  0.50000000  0.25000000
   0.50000000  0.50000000  0.75000000
   0.50000000  0.83333333  0.25000000
   0.50000000  0.83333333  0.75000000
   0.83333333  0.16666667  0.25000000
   0.83333333  0.16666667  0.75000000
   0.83333333  0.50000000  0.25000000
   0.83333333  0.50000000  0.75000000
   0.83333333  0.83333333  0.25000000
   0.83333333  0.83333333  0.75000000
 
 position of ions in cartesian coordinates  (Angst):
   0.00000000  0.00000000  0.00000000
   0.00000000  0.00000000  3.47663713
   0.00000000  2.75004939  0.00000000
   0.00000000  2.75004939  3.47663713
   0.00000000  5.50009878  0.00000000
   0.00000000  5.50009878  3.47663713
   2.75004939  0.00000000  0.00000000
   2.75004939  0.00000000  3.47663713
   2.75004939  2.75004939  0.00000000
   2.75004939  2.75004939  3.47663713
   2.75004939  5.50009878  0.00000000
   2.75004939  5.50009878  3.47663713
   5.50009878  0.00000000  0.00000000
   5.50009878  0.00000000  3.47663713
   5.50009878  2.75004939  0.00000000
   5.50009878  2.75004939  3.47663713
   5.50009878  5.50009878  0.00000000
   5.50009878  5.50009878  3.47663713
   1.37502469  1.37502469  1.73831857
   1.37502469  1.37502469  5.21495570
   1.37502469  4.12507408  1.73831857
   1.37502469  4.12507408  5.21495570
   1.37502469  6.87512347  1.73831857
   1.37502469  6.87512347  5.21495570
   4.12507408  1.37502469  1.73831857
   4.12507408  1.37502469  5.21495570
   4.12507408  4.12507408  1.73831857
   4.12507408  4.12507408  5.21495570
   4.12507408  6.87512347  1.73831857
   4.12507408  6.87512347  5.21495570
   6.87512347  1.37502469  1.73831857
   6.87512347  1.37502469  5.21495570
   6.87512347  4.12507408  1.73831857
   6.87512347  4.12507408  5.21495570
   6.87512347  6.87512347  1.73831857
   6.87512347  6.87512347  5.21495570
 


--------------------------------------------------------------------------------------------------------


 k-point  1 :   0.0000 0.0000 0.0000  plane waves:    8799
 k-point  2 :   0.2000 0.0000 0.0000  plane waves:    8753
 k-point  3 :   0.4000 0.0000 0.0000  plane waves:    8757
 k-point  4 :   0.0000 0.2000 0.0000  plane waves:    8753
 k-point  5 :   0.2000 0.2000 0.0000  plane waves:    8767
 k-point  6 :   0.4000 0.2000 0.0000  plane waves:    8761
 k-point  7 :  -0.4000 0.2000 0.0000  plane waves:    8761
 k-point  8 :  -0.2000 0.2000 0.0000  plane waves:    8767
 k-point  9 :   0.0000 0.4000 0.0000  plane waves:    8757
 k-point 10 :   0.2000 0.4000 0.0000  plane waves:    8761
 k-point 11 :   0.4000 0.4000 0.0000  plane waves:    8731
 k-point 12 :  -0.4000 0.4000 0.0000  plane waves:    8731
 k-point 13 :  -0.2000 0.4000 0.0000  plane waves:    8761
 k-point 14 :   0.0000 0.0000 0.1667  plane waves:    8763
 k-point 15 :   0.2000 0.0000 0.1667  plane waves:    8771
 k-point 16 :   0.4000 0.0000 0.1667  plane waves:    8747
 k-point 17 :   0.0000 0.2000 0.1667  plane waves:    8771
 k-point 18 :   0.2000 0.2000 0.1667  plane waves:    8764
 k-point 19 :   0.4000 0.2000 0.1667  plane waves:    8768
 k-point 20 :  -0.4000 0.2000 0.1667  plane waves:    8768
 k-point 21 :  -0.2000 0.2000 0.1667  plane waves:    8764
 k-point 22 :   0.0000 0.4000 0.1667  plane waves:    8747
 k-point 23 :   0.2000 0.4000 0.1667  plane waves:    8768
 k-point 24 :   0.4000 0.4000 0.1667  plane waves:    8740
 k-point 25 :  -0.4000 0.4000 0.1667  plane waves:    8740
 k-point 26 :  -0.2000 0.4000 0.1667  plane waves:    8768
 k-point 27 :   0.0000 0.0000 0.3333  plane waves:    8743
 k-point 28 :   0.2000 0.0000 0.3333  plane waves:    8736
 k-point 29 :   0.4000 0.0000 0.3333  plane waves:    8753
 k-point 30 :   0.0000 0.2000 0.3333  plane waves:    8736
 k-point 31 :   0.2000 0.2000 0.3333  plane waves:    8753
 k-point 32 :   0.4000 0.2000 0.3333  plane waves:    8743
 k-point 33 :  -0.4000 0.2000 0.3333  plane waves:    8743
 k-point 34 :  -0.2000 0.2000 0.3333  plane waves:    8753
 k-point 35 :   0.0000 0.4000 0.3333  plane waves:    8753
 k-point 36 :   0.2000 0.4000 0.3333  plane waves:    8743
 k-point 37 :   0.4000 0.4000 0.3333  plane waves:    8755
 k-point 38 :  -0.4000 0.4000 0.3333  plane waves:    8755
 k-point 39 :  -0.2000 0.4000 0.3333  plane waves:    8743
 k-point 40 :   0.0000 0.0000 0.5000  plane waves:    8742
 k-point 41 :   0.2000 0.0000 0.5000  plane waves:    8756
 k-point 42 :   0.4000 0.0000 0.5000  plane waves:    8744
 k-point 43 :   0.0000 0.2000 0.5000  plane waves:    8756
 k-point 44 :   0.2000 0.2000 0.5000  plane waves:    8762
 k-point 45 :   0.4000 0.2000 0.5000  plane waves:    8732
 k-point 46 :  -0.4000 0.2000 0.5000  plane waves:    8732
 k-point 47 :  -0.2000 0.2000 0.5000  plane waves:    8762
 k-point 48 :   0.0000 0.4000 0.5000  plane waves:    8744
 k-point 49 :   0.2000 0.4000 0.5000  plane waves:    8732
 k-point 50 :   0.4000 0.4000 0.5000  plane waves:    8736
 k-point 51 :  -0.4000 0.4000 0.5000  plane waves:    8736
 k-point 52 :  -0.2000 0.4000 0.5000  plane waves:    8732

 maximum and minimum number of plane-waves per node :      2210     2164

 maximum number of plane-waves:      8799
 maximum index in each direction: 
   IXMAX=   13   IYMAX=   13   IZMAX=   11
   IXMIN=  -13   IYMIN=  -13   IZMIN=  -11


 parallel 3D FFT for wavefunctions:
    minimum data exchange during FFTs selected (reduces bandwidth)
 parallel 3D FFT for charge:
    minimum data exchange during FFTs selected (reduces bandwidth)


 total amount of memory used by VASP MPI-rank0   740218. kBytes
=======================================================================

   base      :      30000. kBytes
   nonl-proj :      34307. kBytes
   fftplans  :      21726. kBytes
   grid      :      14732. kBytes
   one-center:        279. kBytes
   wavefun   :     639174. kBytes
 
     INWAV:  cpu time    0.0000: real time    0.0000
 Broyden mixing: mesh for mixing (old mesh)
   NGX = 27   NGY = 27   NGZ = 23
  (NGX  =108   NGY  =108   NGZ  = 96)
  gives a total of  16767 points

 initial charge density was supplied:
 charge density of overlapping atoms calculated
 number of electron     180.0000000 magnetization       0.0000000
 keeping initial charge density in first step


--------------------------------------------------------------------------------------------------------


 Maximum index for augmentation-charges        11261 (set IRDMAX)


--------------------------------------------------------------------------------------------------------


 First call to EWALD:  gamma=   0.227
 Maximum number of real-space cells 3x 3x 3
 Maximum number of reciprocal cells 3x 3x 3

    FEWALD:  cpu time    0.0025: real time    0.0025


--------------------------------------- Iteration      1(   1)  ---------------------------------------


    POTLOK:  cpu time    0.2510: real time    0.2516
    SETDIJ:  cpu time    0.3366: real time    0.3377
    TRIAL :  cpu time   18.6437: real time   18.8418
    CORREC:  cpu time    0.0060: real time    0.0062
    --------------------------------------------
      LOOP:  cpu time   19.4535: real time   19.6603

 eigenvalue-minimisations  : 22880
 total energy-change (2. order) : 0.1352591E+04  (-0.5847923E+04)
 number of electron     180.0000000 magnetization       0.0000000
 augmentation part      180.0000000 magnetization       0.0000000

 Free energy of the ion-electron system (eV)
  ---------------------------------------------------
  alpha Z        PSCENC =       532.25742704
  Ewald energy   TEWEN  =     -8601.05107233
  -Hartree energ DENC   =     -1903.73857242
  -exchange      EXHF   =         0.00000000
  -V(xc)+E(xc)   XCENC  =      -664.58324153
  PAW double counting   =      8494.55058411    -7650.81563588
  entropy T*S    EENTRO =        -0.00039068
  eigenvalues    EBANDS =      2680.85585547
  atomic energy  EATOM  =      8465.11600846
  ---------------------------------------------------
  free energy    TOTEN  =      1352.59096224 eV

  energy without entropy =     1352.59135292  energy(sigma->0) =     1352.59109247


--------------------------------------------------------------------------------------------------------




--------------------------------------- Iteration      1(   2)  ---------------------------------------


    TRIAL :  cpu time   18.3023: real time   18.4605
    CORREC:  cpu time    0.0386: real time    0.0387
    --------------------------------------------
      LOOP:  cpu time   18.3424: real time   18.5024

 eigenvalue-minimisations  : 22880
 total energy-change (2. order) :-0.1408559E+04  (-0.1379099E+04)
 number of electron     180.0000000 magnetization       0.0000000
 augmentation part      180.0000000 magnetization       0.0000000

 Free energy of the ion-electron system (eV)
  ---------------------------------------------------
  alpha Z        PSCENC =       532.25742704
  Ewald energy   TEWEN  =     -8601.05107233
  -Hartree energ DENC   =     -1903.73857242
  -exchange      EXHF   =         0.00000000
  -V(xc)+E(xc)   XCENC  =      -664.58324153
  PAW double counting   =      8494.55058411    -7650.81563588
  entropy T*S    EENTRO =         0.00465894
  eigenvalues    EBANDS =      1272.29229166
  atomic energy  EATOM  =      8465.11600846
  ---------------------------------------------------
  free energy    TOTEN  =       -55.96755195 eV

  energy without entropy =      -55.97221089  energy(sigma->0) =      -55.96910493


--------------------------------------------------------------------------------------------------------




--------------------------------------- Iteration      1(   3)  ---------------------------------------


    TRIAL :  cpu time   25.3115: real time   26.2551
    CORREC:  cpu time    0.0095: real time    0.0097
    --------------------------------------------
      LOOP:  cpu time   25.3235: real time   26.2676

 eigenvalue-minimisations  : 34912
 total energy-change (2. order) :-0.1803566E+03  (-0.1632701E+03)
 number of electron     180.0000000 magnetization       0.0000000
 augmentation part      180.0000000 magnetization       0.0000000

 Free energy of the ion-electron system (eV)
  ---------------------------------------------------
  alpha Z        PSCENC =       532.25742704
  Ewald energy   TEWEN  =     -8601.05107233
  -Hartree energ DENC   =     -1903.73857242
  -exchange      EXHF   =         0.00000000
  -V(xc)+E(xc)   XCENC  =      -664.58324153
  PAW double counting   =      8494.55058411    -7650.81563588
  entropy T*S    EENTRO =         0.00683358
  eigenvalues    EBANDS =      1091.93349418
  atomic energy  EATOM  =      8465.11600846
  ---------------------------------------------------
  free energy    TOTEN  =      -236.32417479 eV

  energy without entropy =     -236.33100837  energy(sigma->0) =     -236.32645265


--------------------------------------------------------------------------------------------------------




--------------------------------------- Iteration      1(   4)  ---------------------------------------


    TRIAL :  cpu time   27.3576: real time   27.8081
    CORREC:  cpu time    0.0099: real time    0.0108
    --------------------------------------------
      LOOP:  cpu time   27.3685: real time   27.8224

 eigenvalue-minimisations  : 37376
 total energy-change (2. order) :-0.2937949E+02  (-0.2630816E+02)
 number of electron     180.0000000 magnetization       0.0000000
 augmentation part      180.0000000 magnetization       0.0000000

 Free energy of the ion-electron system (eV)
  ---------------------------------------------------
  alpha Z        PSCENC =       532.25742704
  Ewald energy   TEWEN  =     -8601.05107233
  -Hartree energ DENC   =     -1903.73857242
  -exchange      EXHF   =         0.00000000
  -V(xc)+E(xc)   XCENC  =      -664.58324153
  PAW double counting   =      8494.55058411    -7650.81563588
  entropy T*S    EENTRO =         0.02072973
  eigenvalues    EBANDS =      1062.54010715
  atomic energy  EATOM  =      8465.11600846
  ---------------------------------------------------
  free energy    TOTEN  =      -265.70366566 eV

  energy without entropy =     -265.72439540  energy(sigma->0) =     -265.71057558


--------------------------------------------------------------------------------------------------------




--------------------------------------- Iteration      1(   5)  ---------------------------------------


    TRIAL :  cpu time   27.3831: real time   28.2607
    CORREC:  cpu time    0.0099: real time    0.0101
    --------------------------------------------
      LOOP:  cpu time   27.3940: real time   28.2739

 eigenvalue-minimisations  : 38528
 total energy-change (2. order) :-0.3375071E+01  (-0.3210743E+01)
 number of electron     180.0000000 magnetization       0.0000000
 augmentation part      180.0000000 magnetization       0.0000000

 Free energy of the ion-electron system (eV)
  ---------------------------------------------------
  alpha Z        PSCENC =       532.25742704
  Ewald energy   TEWEN  =     -8601.05107233
  -Hartree energ DENC   =     -1903.73857242
  -exchange      EXHF   =         0.00000000
  -V(xc)+E(xc)   XCENC  =      -664.58324153
  PAW double counting   =      8494.55058411    -7650.81563588
  entropy T*S    EENTRO =         0.02500880
  eigenvalues    EBANDS =      1059.16075745
  atomic energy  EATOM  =      8465.11600846
  ---------------------------------------------------
  free energy    TOTEN  =      -269.07873630 eV

  energy without entropy =     -269.10374510  energy(sigma->0) =     -269.08707256


--------------------------------------------------------------------------------------------------------




--------------------------------------- Iteration      1(   6)  ---------------------------------------


    TRIAL :  cpu time   27.7755: real time   27.9978
    CORREC:  cpu time    0.0102: real time    0.0112
    --------------------------------------------
      LOOP:  cpu time   27.7866: real time   28.0121

 eigenvalue-minimisations  : 38200
 total energy-change (2. order) :-0.2888349E+00  (-0.2802018E+00)
 number of electron     180.0000000 magnetization       0.0000000
 augmentation part      180.0000000 magnetization       0.0000000

 Free energy of the ion-electron system (eV)
  ---------------------------------------------------
  alpha Z        PSCENC =       532.25742704
  Ewald energy   TEWEN  =     -8601.05107233
  -Hartree energ DENC   =     -1903.73857242
  -exchange      EXHF   =         0.00000000
  -V(xc)+E(xc)   XCENC  =      -664.58324153
  PAW double counting   =      8494.55058411    -7650.81563588
  entropy T*S    EENTRO =         0.02662992
  eigenvalues    EBANDS =      1058.87030146
  atomic energy  EATOM  =      8465.11600846
  ---------------------------------------------------
  free energy    TOTEN  =      -269.36757116 eV

  energy without entropy =     -269.39420108  energy(sigma->0) =     -269.37644780


--------------------------------------------------------------------------------------------------------




--------------------------------------- Iteration      1(   7)  ---------------------------------------


    TRIAL :  cpu time   28.4442: real time   28.6575
    CORREC:  cpu time    0.0101: real time    0.0103
    --------------------------------------------
      LOOP:  cpu time   28.4552: real time   28.6712

 eigenvalue-minimisations  : 39136
 total energy-change (2. order) :-0.3289726E-01  (-0.3229491E-01)
 number of electron     180.0000000 magnetization       0.0000000
 augmentation part      180.0000000 magnetization       0.0000000

 Free energy of the ion-electron system (eV)
  ---------------------------------------------------
  alpha Z        PSCENC =       532.25742704
  Ewald energy   TEWEN  =     -8601.05107233
  -Hartree energ DENC   =     -1903.73857242
  -exchange      EXHF   =         0.00000000
  -V(xc)+E(xc)   XCENC  =      -664.58324153
  PAW double counting   =      8494.55058411    -7650.81563588
  entropy T*S    EENTRO =         0.02727545
  eigenvalues    EBANDS =      1058.83675867
  atomic energy  EATOM  =      8465.11600846
  ---------------------------------------------------
  free energy    TOTEN  =      -269.40046842 eV

  energy without entropy =     -269.42774388  energy(sigma->0) =     -269.40956024


--------------------------------------------------------------------------------------------------------




--------------------------------------- Iteration      1(   8)  ---------------------------------------


    TRIAL :  cpu time   27.3863: real time   27.6316
    CORREC:  cpu time    0.0100: real time    0.0109
    CHARGE:  cpu time    1.0920: real time    1.0919
    --------------------------------------------
      LOOP:  cpu time   28.4896: real time   28.7386

 eigenvalue-minimisations  : 37472
 total energy-change (2. order) :-0.3407513E-02  (-0.3361272E-02)
 number of electron     179.9999997 magnetization      -0.1897013
 augmentation part       42.6843034 magnetization      -0.0848059

 Free energy of the ion-electron system (eV)
  ---------------------------------------------------
  alpha Z        PSCENC =       532.25742704
  Ewald energy   TEWEN  =     -8601.05107233
  -Hartree energ DENC   =     -1903.73857242
  -exchange      EXHF   =         0.00000000
  -V(xc)+E(xc)   XCENC  =      -664.58324153
  PAW double counting   =      8494.55058411    -7650.81563588
  entropy T*S    EENTRO =         0.02754537
  eigenvalues    EBANDS =      1058.83308124
  atomic energy  EATOM  =      8465.11600846
  ---------------------------------------------------
  free energy    TOTEN  =      -269.40387594 eV

  energy without entropy =     -269.43142131  energy(sigma->0) =     -269.41305773


--------------------------------------------------------------------------------------------------------




--------------------------------------- Iteration      1(   9)  ---------------------------------------


    POTLOK:  cpu time    0.2513: real time    0.2513
    SETDIJ:  cpu time    0.3228: real time    0.3228
    TRIAL :  cpu time    8.9961: real time    9.1218
    CORREC:  cpu time    4.1965: real time    4.2079
    CHARGE:  cpu time    1.1086: real time    1.1172
    --------------------------------------------
      LOOP:  cpu time   14.8792: real time   15.0250

 eigenvalue-minimisations  :     0
 total energy-change (2. order) : 0.2041636E+03  (-0.1446835E+03)
 number of electron     179.9999997 magnetization      -0.1876817
 augmentation part       54.5796051 magnetization      -0.1264912

 Free energy of the ion-electron system (eV)
  ---------------------------------------------------
  alpha Z        PSCENC =       532.25742704
  Ewald energy   TEWEN  =     -8601.05107233
  -Hartree energ DENC   =      -845.97712318
  -exchange      EXHF   =         0.00000000
  -V(xc)+E(xc)   XCENC  =      -694.67987824
  PAW double counting   =     12763.61152023   -11817.19168113
  entropy T*S    EENTRO =         0.00194408
  eigenvalues    EBANDS =       132.64695390
  atomic energy  EATOM  =      8465.11600846
  ---------------------------------------------------
  free energy    TOTEN  =       -65.24029989 eV

  energy without entropy =      -65.24224397  energy(sigma->0) =      -65.24094792


--------------------------------------------------------------------------------------------------------




--------------------------------------- Iteration      1(  10)  ---------------------------------------


    POTLOK:  cpu time    0.2453: real time    0.2454
    SETDIJ:  cpu time    0.3213: real time    0.3213
    TRIAL :  cpu time    9.7264: real time    9.7991
    CORREC:  cpu time    3.3590: real time    3.3613
    CHARGE:  cpu time    1.0703: real time    1.0703
    --------------------------------------------
      LOOP:  cpu time   14.7251: real time   14.8004

 eigenvalue-minimisations  :     0
 total energy-change (2. order) :-0.1440537E+03  (-0.9302201E+01)
 number of electron     179.9999996 magnetization      -0.1547680
 augmentation part       57.8443817 magnetization      -0.0857427

 Free energy of the ion-electron system (eV)
  ---------------------------------------------------
  alpha Z        PSCENC =       532.25742704
  Ewald energy   TEWEN  =     -8601.05107233
  -Hartree energ DENC   =     -1382.83387062
  -exchange      EXHF   =         0.00000000
  -V(xc)+E(xc)   XCENC  =      -676.22905947
  PAW double counting   =     13667.06613529   -12837.73667755
  entropy T*S    EENTRO =        -0.00606676
  eigenvalues    EBANDS =       624.11520906
  atomic energy  EATOM  =      8465.11600846
  ---------------------------------------------------
  free energy    TOTEN  =      -209.29395604 eV

  energy without entropy =     -209.28788927  energy(sigma->0) =     -209.29193378


--------------------------------------------------------------------------------------------------------




--------------------------------------- Iteration      1(  11)  ---------------------------------------


    POTLOK:  cpu time    0.2522: real time    0.2584
    SETDIJ:  cpu time    0.3422: real time    0.3422
    TRIAL :  cpu time    9.2821: real time    9.3738
    CORREC:  cpu time    4.1102: real time    4.1183
    CHARGE:  cpu time    1.0866: real time    1.0865
    --------------------------------------------
      LOOP:  cpu time   15.0786: real time   15.1854

 eigenvalue-minimisations  :     0
 total energy-change (2. order) :-0.9300123E+01  (-0.8096599E+01)
 number of electron     179.9999996 magnetization       0.0169811
 augmentation part       59.1379555 magnetization      -0.0376793

 Free energy of the ion-electron system (eV)
  ---------------------------------------------------
  alpha Z        PSCENC =       532.25742704
  Ewald energy   TEWEN  =     -8601.05107233
  -Hartree energ DENC   =     -1571.62812313
  -exchange      EXHF   =         0.00000000
  -V(xc)+E(xc)   XCENC  =      -669.46003798
  PAW double counting   =     14430.78594670   -13634.67312198
  entropy T*S    EENTRO =        -0.00607699
  eigenvalues    EBANDS =       830.06496124
  atomic energy  EATOM  =      8465.11600846
  ---------------------------------------------------
  free energy    TOTEN  =      -218.59407874 eV

  energy without entropy =     -218.58800175  energy(sigma->0) =     -218.59205308


--------------------------------------------------------------------------------------------------------




--------------------------------------- Iteration      1(  12)  ---------------------------------------


    POTLOK:  cpu time    0.2461: real time    0.2461
    SETDIJ:  cpu time    0.3254: real time    0.3255
    TRIAL :  cpu time    8.9798: real time    9.0393
    CORREC:  cpu time    3.3683: real time    3.3941
    CHARGE:  cpu time    1.0825: real time    1.0824
    --------------------------------------------
      LOOP:  cpu time   14.0087: real time   14.0948

 eigenvalue-minimisations  :     0
 total energy-change (2. order) :-0.8122271E+01  (-0.6810042E+01)
 number of electron     179.9999996 magnetization       0.0259224
 augmentation part       58.2774534 magnetization      -0.0121601

 Free energy of the ion-electron system (eV)
  ---------------------------------------------------
  alpha Z        PSCENC =       532.25742704
  Ewald energy   TEWEN  =     -8601.05107233
  -Hartree energ DENC   =     -1697.23874307
  -exchange      EXHF   =         0.00000000
  -V(xc)+E(xc)   XCENC  =      -665.29728402
  PAW double counting   =     14450.36280199   -13655.30328815
  entropy T*S    EENTRO =         0.00143818
  eigenvalues    EBANDS =       944.44387782
  atomic energy  EATOM  =      8465.11600846
  ---------------------------------------------------
  free energy    TOTEN  =      -226.71634926 eV

  energy without entropy =     -226.71778743  energy(sigma->0) =     -226.71682865


--------------------------------------------------------------------------------------------------------




--------------------------------------- Iteration      1(  13)  ---------------------------------------


    POTLOK:  cpu time    0.2455: real time    0.2454
    SETDIJ:  cpu time    0.3263: real time    0.3263
    TRIAL :  cpu time    8.9966: real time    9.1235
    CORREC:  cpu time    3.6774: real time    3.6786
    CHARGE:  cpu time    1.5454: real time    1.5494
    --------------------------------------------
      LOOP:  cpu time   14.7934: real time   14.9266

 eigenvalue-minimisations  :     0
 total energy-change (2. order) :-0.6589162E+01  (-0.9624666E+00)
 number of electron     179.9999997 magnetization       0.0333344
 augmentation part       57.4318196 magnetization       0.0061581

 Free energy of the ion-electron system (eV)
  ---------------------------------------------------
  alpha Z        PSCENC =       532.25742704
  Ewald energy   TEWEN  =     -8601.05107233
  -Hartree energ DENC   =     -1704.26602145
  -exchange      EXHF   =         0.00000000
  -V(xc)+E(xc)   XCENC  =      -665.40562118
  PAW double counting   =     14206.84485837   -13386.76385453
  entropy T*S    EENTRO =         0.00331127
  eigenvalues    EBANDS =       919.96132653
  atomic energy  EATOM  =      8465.11600846
  ---------------------------------------------------
  free energy    TOTEN  =      -233.30551092 eV

  energy without entropy =     -233.30882219  energy(sigma->0) =     -233.30661468


--------------------------------------------------------------------------------------------------------




--------------------------------------- Iteration      1(  14)  ---------------------------------------


    POTLOK:  cpu time    0.2457: real time    0.2457
    SETDIJ:  cpu time    0.3349: real time    0.3464
    TRIAL :  cpu time    8.9846: real time    9.0102
    CORREC:  cpu time    3.8766: real time    3.8932
    CHARGE:  cpu time    1.0806: real time    1.0807
    --------------------------------------------
      LOOP:  cpu time   14.5292: real time   14.5838

 eigenvalue-minimisations  :     0
 total energy-change (2. order) :-0.9505669E+00  (-0.7288678E+00)
 number of electron     179.9999997 magnetization       0.0396312
 augmentation part       57.2117558 magnetization       0.0107764

 Free energy of the ion-electron system (eV)
  ---------------------------------------------------
  alpha Z        PSCENC =       532.25742704
  Ewald energy   TEWEN  =     -8601.05107233
  -Hartree energ DENC   =     -1661.24062070
  -exchange      EXHF   =         0.00000000
  -V(xc)+E(xc)   XCENC  =      -666.97985950
  PAW double counting   =     13914.10578939   -13081.42502688
  entropy T*S    EENTRO =         0.00466717
  eigenvalues    EBANDS =       864.95796539
  atomic energy  EATOM  =      8465.11600846
  ---------------------------------------------------
  free energy    TOTEN  =      -234.25607786 eV

  energy without entropy =     -234.26074503  energy(sigma->0) =     -234.25763359


--------------------------------------------------------------------------------------------------------




--------------------------------------- Iteration      1(  15)  ---------------------------------------


    POTLOK:  cpu time    0.2477: real time    0.2477
    SETDIJ:  cpu time    0.3592: real time    0.3591
    TRIAL :  cpu time    8.9916: real time    9.0235
    CORREC:  cpu time    4.1091: real time    4.1709
    CHARGE:  cpu time    1.1277: real time    1.1277
    --------------------------------------------
      LOOP:  cpu time   14.8387: real time   14.9334

 eigenvalue-minimisations  :     0
 total energy-change (2. order) :-0.7267940E+00  (-0.6281819E+00)
 number of electron     179.9999996 magnetization       0.0595848
 augmentation part       57.7305101 magnetization       0.0288005

 Free energy of the ion-electron system (eV)
  ---------------------------------------------------
  alpha Z        PSCENC =       532.25742704
  Ewald energy   TEWEN  =     -8601.05107233
  -Hartree energ DENC   =     -1641.33438988
  -exchange      EXHF   =         0.00000000
  -V(xc)+E(xc)   XCENC  =      -667.64430903
  PAW double counting   =     13453.72959462   -12615.70154620
  entropy T*S    EENTRO =         0.00712316
  eigenvalues    EBANDS =       839.64074826
  atomic energy  EATOM  =      8465.11600846
  ---------------------------------------------------
  free energy    TOTEN  =      -234.98287191 eV

  energy without entropy =     -234.98999506  energy(sigma->0) =     -234.98524629


--------------------------------------------------------------------------------------------------------




--------------------------------------- Iteration      1(  16)  ---------------------------------------


    POTLOK:  cpu time    0.2460: real time    0.2466
    SETDIJ:  cpu time    0.3723: real time    0.3723
    TRIAL :  cpu time    8.9688: real time    9.0298
    CORREC:  cpu time    3.3515: real time    3.3653
    CHARGE:  cpu time    1.0809: real time    1.0899
    --------------------------------------------
      LOOP:  cpu time   14.0233: real time   14.1085

 eigenvalue-minimisations  :     0
 total energy-change (2. order) :-0.6259185E+00  (-0.1679054E+00)
 number of electron     179.9999996 magnetization       0.0513617
 augmentation part       58.0814801 magnetization       0.0304644

 Free energy of the ion-electron system (eV)
  ---------------------------------------------------
  alpha Z        PSCENC =       532.25742704
  Ewald energy   TEWEN  =     -8601.05107233
  -Hartree energ DENC   =     -1657.60107127
  -exchange      EXHF   =         0.00000000
  -V(xc)+E(xc)   XCENC  =      -666.92395547
  PAW double counting   =     13089.87707603   -12255.32649174
  entropy T*S    EENTRO =         0.00832751
  eigenvalues    EBANDS =       858.03616569
  atomic energy  EATOM  =      8465.11600846
  ---------------------------------------------------
  free energy    TOTEN  =      -235.60879043 eV

  energy without entropy =     -235.61711795  energy(sigma->0) =     -235.61156627


--------------------------------------------------------------------------------------------------------




--------------------------------------- Iteration      1(  17)  ---------------------------------------


    POTLOK:  cpu time    0.2468: real time    0.2468
    SETDIJ:  cpu time    0.3237: real time    0.3237
    TRIAL :  cpu time    8.9890: real time    9.1071
    CORREC:  cpu time    3.3365: real time    3.3382
    CHARGE:  cpu time    1.0806: real time    1.0806
    --------------------------------------------
      LOOP:  cpu time   13.9807: real time   14.1005

 eigenvalue-minimisations  :     0
 total energy-change (2. order) :-0.1680251E+00  (-0.1803898E+00)
 number of electron     179.9999996 magnetization       0.0429765
 augmentation part       58.2657672 magnetization       0.0226773

 Free energy of the ion-electron system (eV)
  ---------------------------------------------------
  alpha Z        PSCENC =       532.25742704
  Ewald energy   TEWEN  =     -8601.05107233
  -Hartree energ DENC   =     -1672.74554871
  -exchange      EXHF   =         0.00000000
  -V(xc)+E(xc)   XCENC  =      -666.27240823
  PAW double counting   =     13026.60837601   -12195.68470450
  entropy T*S    EENTRO =         0.00842066
  eigenvalues    EBANDS =       875.98677917
  atomic energy  EATOM  =      8465.11600846
  ---------------------------------------------------
  free energy    TOTEN  =      -235.77681558 eV

  energy without entropy =     -235.78523624  energy(sigma->0) =     -235.77962247


--------------------------------------------------------------------------------------------------------




--------------------------------------- Iteration      1(  18)  ---------------------------------------


    POTLOK:  cpu time    0.2455: real time    0.2455
    SETDIJ:  cpu time    1.0554: real time    1.0648
    TRIAL :  cpu time    8.9921: real time    9.0304
    CORREC:  cpu time    3.7922: real time    3.8079
    CHARGE:  cpu time    1.0797: real time    1.0798
    --------------------------------------------
      LOOP:  cpu time   15.1711: real time   15.2344

 eigenvalue-minimisations  :     0
 total energy-change (2. order) :-0.1802901E+00  (-0.1258548E+00)
 number of electron     179.9999996 magnetization       0.0680678
 augmentation part       58.0818926 magnetization       0.0310356

 Free energy of the ion-electron system (eV)
  ---------------------------------------------------
  alpha Z        PSCENC =       532.25742704
  Ewald energy   TEWEN  =     -8601.05107233
  -Hartree energ DENC   =     -1679.25543602
  -exchange      EXHF   =         0.00000000
  -V(xc)+E(xc)   XCENC  =      -665.83355035
  PAW double counting   =     12983.76225851   -12155.03675300
  entropy T*S    EENTRO =         0.00963131
  eigenvalues    EBANDS =       884.07559131
  atomic energy  EATOM  =      8465.11600846
  ---------------------------------------------------
  free energy    TOTEN  =      -235.95710572 eV

  energy without entropy =     -235.96673703  energy(sigma->0) =     -235.96031616


--------------------------------------------------------------------------------------------------------




--------------------------------------- Iteration      1(  19)  ---------------------------------------


    POTLOK:  cpu time    0.2454: real time    0.2459
    SETDIJ:  cpu time    0.3403: real time    0.3412
    TRIAL :  cpu time    8.9910: real time    8.9973
    CORREC:  cpu time    4.0105: real time    4.0965
    CHARGE:  cpu time    1.0769: real time    1.0768
    --------------------------------------------
      LOOP:  cpu time   14.6656: real time   14.7615

 eigenvalue-minimisations  :     0
 total energy-change (2. order) :-0.1254224E+00  (-0.4657704E-01)
 number of electron     179.9999996 magnetization       0.0532398
 augmentation part       57.8999531 magnetization       0.0305441

 Free energy of the ion-electron system (eV)
  ---------------------------------------------------
  alpha Z        PSCENC =       532.25742704
  Ewald energy   TEWEN  =     -8601.05107233
  -Hartree energ DENC   =     -1668.21154514
  -exchange      EXHF   =         0.00000000
  -V(xc)+E(xc)   XCENC  =      -666.06339360
  PAW double counting   =     12955.16382184   -12124.66017920
  entropy T*S    EENTRO =         0.00864453
  eigenvalues    EBANDS =       871.35677348
  atomic energy  EATOM  =      8465.11600846
  ---------------------------------------------------
  free energy    TOTEN  =      -236.08252815 eV

  energy without entropy =     -236.09117267  energy(sigma->0) =     -236.08540966


--------------------------------------------------------------------------------------------------------




--------------------------------------- Iteration      1(  20)  ---------------------------------------


    POTLOK:  cpu time    0.2471: real time    0.2471
    SETDIJ:  cpu time    0.3212: real time    0.3213
    TRIAL :  cpu time    9.0716: real time    9.1300
    CORREC:  cpu time    3.3315: real time    3.3344
    CHARGE:  cpu time    1.0632: real time    1.0871
    --------------------------------------------
      LOOP:  cpu time   14.0746: real time   14.1600

 eigenvalue-minimisations  :     0
 total energy-change (2. order) :-0.4647084E-01  (-0.6298967E-01)
 number of electron     179.9999996 magnetization       0.0764030
 augmentation part       57.7937796 magnetization       0.0498968

 Free energy of the ion-electron system (eV)
  ---------------------------------------------------
  alpha Z        PSCENC =       532.25742704
  Ewald energy   TEWEN  =     -8601.05107233
  -Hartree energ DENC   =     -1659.27434235
  -exchange      EXHF   =         0.00000000
  -V(xc)+E(xc)   XCENC  =      -666.31823853
  PAW double counting   =     12944.85686926   -12112.54938942
  entropy T*S    EENTRO =         0.00844881
  eigenvalues    EBANDS =       860.82509436
  atomic energy  EATOM  =      8465.11600846
  ---------------------------------------------------
  free energy    TOTEN  =      -236.12899898 eV

  energy without entropy =     -236.13744779  energy(sigma->0) =     -236.13181525


--------------------------------------------------------------------------------------------------------




--------------------------------------- Iteration      1(  21)  ---------------------------------------


    POTLOK:  cpu time    0.2456: real time    0.2456
    SETDIJ:  cpu time    0.3582: real time    0.3582
    TRIAL :  cpu time    9.0153: real time    9.0963
    CORREC:  cpu time    3.2777: real time    3.3906
    CHARGE:  cpu time    1.0671: real time    1.0670
    --------------------------------------------
      LOOP:  cpu time   13.9770: real time   14.1713

 eigenvalue-minimisations  :     0
 total energy-change (2. order) :-0.6300706E-01  (-0.4378869E-01)
 number of electron     179.9999996 magnetization       0.0803435
 augmentation part       57.8678250 magnetization       0.0572584

 Free energy of the ion-electron system (eV)
  ---------------------------------------------------
  alpha Z        PSCENC =       532.25742704
  Ewald energy   TEWEN  =     -8601.05107233
  -Hartree energ DENC   =     -1656.42179323
  -exchange      EXHF   =         0.00000000
  -V(xc)+E(xc)   XCENC  =      -666.32740811
  PAW double counting   =     12954.09771581   -12121.04796907
  entropy T*S    EENTRO =         0.00818810
  eigenvalues    EBANDS =       857.17663658
  atomic energy  EATOM  =      8465.11600846
  ---------------------------------------------------
  free energy    TOTEN  =      -236.19200604 eV

  energy without entropy =     -236.20019414  energy(sigma->0) =     -236.19473541


--------------------------------------------------------------------------------------------------------




--------------------------------------- Iteration      1(  22)  ---------------------------------------


    POTLOK:  cpu time    0.2481: real time    0.2481
    SETDIJ:  cpu time    0.3317: real time    0.3318
    TRIAL :  cpu time    9.6924: real time    9.7103
    CORREC:  cpu time    3.3043: real time    3.3433
    CHARGE:  cpu time    1.8482: real time    1.8600
    --------------------------------------------
      LOOP:  cpu time   15.4449: real time   15.5138

 eigenvalue-minimisations  :     0
 total energy-change (2. order) :-0.4376823E-01  (-0.1803779E-01)
 number of electron     179.9999996 magnetization       0.0792391
 augmentation part       57.9672325 magnetization       0.0570351

 Free energy of the ion-electron system (eV)
  ---------------------------------------------------
  alpha Z        PSCENC =       532.25742704
  Ewald energy   TEWEN  =     -8601.05107233
  -Hartree energ DENC   =     -1662.53820849
  -exchange      EXHF   =         0.00000000
  -V(xc)+E(xc)   XCENC  =      -666.04053430
  PAW double counting   =     12977.60178296   -12145.69881796
  entropy T*S    EENTRO =         0.00802180
  eigenvalues    EBANDS =       864.10945225
  atomic energy  EATOM  =      8465.11600846
  ---------------------------------------------------
  free energy    TOTEN  =      -236.23577427 eV

  energy without entropy =     -236.24379607  energy(sigma->0) =     -236.23844821


--------------------------------------------------------------------------------------------------------




--------------------------------------- Iteration      1(  23)  ---------------------------------------


    POTLOK:  cpu time    0.2469: real time    0.2469
    SETDIJ:  cpu time    0.3494: real time    0.3493
    TRIAL :  cpu time    8.9849: real time    8.9892
    CORREC:  cpu time    3.3780: real time    3.4390
    CHARGE:  cpu time    1.0788: real time    1.1192
    --------------------------------------------
[...]
  8.437  14.378   0.000  -0.000   0.000   0.000  -0.001   0.001
 14.378  24.502   0.000  -0.000   0.000   0.001  -0.001   0.001
  0.000   0.000   1.996   0.000   0.000   5.748   0.000   0.000
 -0.000  -0.000   0.000   1.995   0.000   0.000   5.747   0.000
  0.000   0.000   0.000   0.000   1.996   0.000   0.000   5.748
  0.000   0.001   5.748   0.000   0.000  16.472   0.001   0.000
 -0.001  -0.001   0.000   5.747   0.000   0.001  16.468   0.000
  0.001   0.001   0.000   0.000   5.748   0.000   0.000  16.472
 total augmentation occupancy for first ion, spin component:           1
  4.376  -1.251  -0.002   0.003   0.000   0.000  -0.000   0.000
 -1.251   0.377  -0.000   0.000  -0.000  -0.000   0.000  -0.000
 -0.002  -0.000   1.419  -0.006   0.000  -0.101   0.000  -0.000
  0.003   0.000  -0.006   1.508   0.000   0.000  -0.102  -0.000
  0.000  -0.000   0.000   0.000   1.408  -0.000  -0.000  -0.101
  0.000  -0.000  -0.101   0.000  -0.000   0.008  -0.000   0.000
 -0.000   0.000   0.000  -0.102  -0.000  -0.000   0.007   0.000
  0.000  -0.000  -0.000  -0.000  -0.101   0.000   0.000   0.008
 total augmentation occupancy for first ion, spin component:           2
 -0.012   0.003  -0.001   0.050  -0.035   0.000  -0.001   0.001
  0.003  -0.001  -0.000   0.010  -0.003  -0.000  -0.001   0.000
 -0.001  -0.000  -0.014  -0.051  -0.030   0.000   0.001   0.000
  0.050   0.010  -0.051   0.000   0.001   0.001  -0.000  -0.000
 -0.035  -0.003  -0.030   0.001   0.002   0.000  -0.000   0.000
  0.000  -0.000   0.000   0.001   0.000  -0.000   0.000   0.000
 -0.001  -0.001   0.001  -0.000  -0.000   0.000   0.000   0.000
  0.001   0.000   0.000  -0.000   0.000   0.000   0.000  -0.000


------------------------ aborting loop because EDIFF is reached ----------------------------------------


 


 total charge     
 
# of ion       s       p       d       tot
------------------------------------------
    1        0.405   0.428   0.000   0.833
    2        0.404   0.428   0.000   0.833
    3        0.405   0.425   0.000   0.830
    4        0.405   0.426   0.000   0.831
    5        0.406   0.425   0.000   0.831
    6        0.405   0.425   0.000   0.831
    7        0.406   0.427   0.000   0.833
    8        0.406   0.426   0.000   0.832
    9        0.405   0.426   0.000   0.832
   10        0.405   0.427   0.000   0.833
   11        0.405   0.428   0.000   0.833
   12        0.405   0.427   0.000   0.833
   13        0.406   0.426   0.000   0.832
   14        0.405   0.426   0.000   0.831
   15        0.405   0.430   0.000   0.835
   16        0.405   0.430   0.000   0.834
   17        0.405   0.426   0.000   0.832
   18        0.405   0.426   0.000   0.831
   19        0.338   0.353   5.127   5.818
   20        0.334   0.352   5.139   5.825
   21        0.335   0.352   5.134   5.821
   22        0.333   0.352   5.142   5.827
   23        0.331   0.354   5.142   5.826
   24        0.333   0.357   5.124   5.814
   25        0.332   0.357   5.128   5.818
   26        0.330   0.356   5.141   5.827
   27        0.334   0.355   5.133   5.822
   28        0.338   0.356   5.120   5.813
   29        0.331   0.347   5.153   5.832
   30        0.336   0.356   5.131   5.823
   31        0.339   0.349   5.128   5.816
   32        0.336   0.360   5.119   5.815
   33        0.337   0.352   5.131   5.820
   34        0.337   0.355   5.124   5.817
   35        0.332   0.357   5.130   5.820
   36        0.335   0.356   5.124   5.815
--------------------------------------------------
tot         13.316  14.058  92.371 119.745
 


 magnetization (x)
 
# of ion       s       p       d       tot
------------------------------------------
    1       -0.002  -0.001   0.000  -0.003
    2       -0.002  -0.001   0.000  -0.003
    3       -0.009  -0.021   0.000  -0.030
    4       -0.009  -0.021   0.000  -0.030
    5       -0.007  -0.015   0.000  -0.022
    6       -0.007  -0.015   0.000  -0.023
    7        0.002   0.002   0.000   0.003
    8        0.002   0.002   0.000   0.003
    9       -0.004  -0.010   0.000  -0.014
   10       -0.004  -0.009   0.000  -0.013
   11        0.002   0.010   0.000   0.013
   12        0.002   0.010   0.000   0.012
   13        0.008   0.017   0.000   0.025
   14        0.008   0.017   0.000   0.025
   15        0.003   0.008   0.000   0.012
   16        0.004   0.009   0.000   0.012
   17        0.006   0.013   0.000   0.018
   18        0.006   0.012   0.000   0.018
   19        0.029   0.024   2.378   2.430
   20        0.021   0.008   2.342   2.371
   21        0.018   0.011   2.351   2.380
   22        0.016   0.017   2.223   2.256
   23       -0.023  -0.025  -2.184  -2.233
   24        0.013   0.023   2.349   2.385
   25       -0.009  -0.030  -2.193  -2.232
   26        0.033   0.036   2.097   2.166
   27       -0.030  -0.019  -2.334  -2.383
   28       -0.032  -0.017  -2.539  -2.588
   29       -0.010   0.005  -2.219  -2.224
   30       -0.023  -0.032  -2.148  -2.202
   31       -0.038  -0.015  -2.605  -2.658
   32       -0.041  -0.029  -2.377  -2.447
   33        0.032   0.017   2.379   2.428
   34        0.032   0.019   2.450   2.501
   35       -0.012  -0.021  -2.234  -2.267
   36        0.026   0.025   2.389   2.439
--------------------------------------------------
tot         -0.001   0.003   0.126   0.128
 
    FORLOC:  cpu time    0.0287: real time    0.0287
    FORNL :  cpu time   12.9753: real time   13.0701
    STRESS:  cpu time   19.2471: real time   19.3931
    FORCOR:  cpu time    0.2691: real time    0.2691
    OFIELD:  cpu time    0.0016: real time    0.0016

  FORCE on cell =-STRESS in cart. coord.  units (eV):
  Direction    XX          YY          ZZ          XY          YZ          ZX
  --------------------------------------------------------------------------------------
  Alpha Z   532.25743   532.25743   532.25743
  Ewald   -2702.40749 -2702.40749 -3196.26924    -0.00000    -0.00000    -0.00000
  Hartree   719.19558   720.39623   227.19200     0.02620    -0.00000    -0.00000
  E(xc)    -760.12949  -760.51283  -760.74998    -0.03959     0.00000     0.00000
  Local     253.73923   249.28475  1258.56078    -0.08331     0.00000    -0.00000
  n-local  -109.34971  -111.08916  -119.80569     0.27444    -0.23282     0.05116
  augment   519.85542   521.66354   515.83629    -0.04632     0.00001     0.00001
  Kinetic  1552.24904  1555.61605  1545.49401     0.38696     0.84081    -0.38523
  Fock        0.00000     0.00000     0.00000     0.00000     0.00000     0.00000
  -------------------------------------------------------------------------------------
  Total       5.41000     5.20852     2.51560     0.51838     0.00000     0.00000
  in kB      18.31448    17.63242     8.51607     1.75486     0.00000     0.00000
  external pressure =       14.82 kB  Pullay stress =        0.00 kB


 VOLUME and BASIS-vectors are now :
 -----------------------------------------------------------------------------
  energy-cutoff  :      404.80
  volume of cell :      473.27
      direct lattice vectors                 reciprocal lattice vectors
     8.250148166  0.000000000  0.000000000     0.121209944  0.000000000  0.000000000
     0.000000000  8.250148166  0.000000000     0.000000000  0.121209944  0.000000000
     0.000000000  0.000000000  6.953274261     0.000000000  0.000000000  0.143817137

  length of vectors
     8.250148166  8.250148166  6.953274261     0.121209944  0.121209944  0.143817137


 FORCES acting on ions:
    Electron-Ion                     Ewald-Force                    Non-Local-Force
 -----------------------------------------------------------------------------------------------
   -.493E-02 -.523E-01 0.506E-02   -.239E-08 -.239E-08 0.411E-08   0.670E-02 0.257E-01 -.507E-01
   -.493E-02 -.523E-01 -.506E-02   -.239E-08 -.239E-08 0.411E-08   0.670E-02 0.257E-01 0.507E-01
   -.148E-01 -.378E-01 0.117E-01   -.239E-08 -.802E-09 0.411E-08   0.769E-01 0.115E+00 -.342E-01
   -.148E-01 -.378E-01 -.117E-01   -.239E-08 -.802E-09 0.411E-08   0.769E-01 0.115E+00 0.342E-01
   0.296E-01 0.141E+00 0.181E-01   -.239E-08 0.631E-08 0.411E-08   -.145E-01 -.146E+00 -.850E-01
   0.296E-01 0.141E+00 -.181E-01   -.239E-08 0.631E-08 0.411E-08   -.145E-01 -.146E+00 0.850E-01
   0.788E-01 -.274E-01 -.721E-01   -.802E-09 -.239E-08 0.411E-08   -.675E-02 -.687E-02 0.356E-01
   0.788E-01 -.274E-01 0.721E-01   -.802E-09 -.239E-08 0.411E-08   -.675E-02 -.687E-02 -.356E-01
   -.285E-01 0.303E-01 -.187E-01   -.802E-09 -.802E-09 0.411E-08   -.352E-01 -.358E-01 -.184E-01
   -.285E-01 0.303E-01 0.187E-01   -.802E-09 -.802E-09 0.411E-08   -.352E-01 -.358E-01 0.184E-01
   0.216E-01 0.705E-02 -.259E-01   -.802E-09 0.631E-08 0.411E-08   0.818E-01 0.128E-02 0.480E-01
   0.216E-01 0.705E-02 0.259E-01   -.802E-09 0.631E-08 0.411E-08   0.818E-01 0.128E-02 -.480E-01
   -.783E-01 -.648E-01 0.191E+00   0.631E-08 -.239E-08 0.411E-08   0.268E-01 0.560E-01 0.479E-02
   -.783E-01 -.648E-01 -.191E+00   0.631E-08 -.239E-08 0.411E-08   0.268E-01 0.560E-01 -.479E-02
   0.770E-01 0.415E-02 0.722E-01   0.631E-08 -.802E-09 0.411E-08   -.570E-01 -.342E-01 -.145E-01
   0.770E-01 0.415E-02 -.722E-01   0.631E-08 -.802E-09 0.411E-08   -.570E-01 -.342E-01 0.145E-01
   -.387E-01 0.176E-01 -.746E-01   0.631E-08 0.631E-08 0.411E-08   -.128E+00 0.635E-02 0.761E-01
   -.387E-01 0.176E-01 0.746E-01   0.631E-08 0.631E-08 0.411E-08   -.128E+00 0.635E-02 -.761E-01
   -.319E+00 0.680E+00 0.783E-09   -.169E-07 -.169E-07 -.411E-08   0.283E+00 -.325E+00 0.000E+00
   0.397E+00 0.816E-01 -.391E-08   -.169E-07 -.169E-07 -.411E-08   -.421E+00 -.116E+00 0.000E+00
   -.454E+00 -.559E+00 -.389E-08   -.169E-07 0.802E-09 -.411E-08   0.306E+00 0.292E+00 0.000E+00
   -.469E+00 -.188E+00 -.338E-08   -.169E-07 0.802E-09 -.411E-08   0.379E+00 0.235E+00 0.000E+00
   -.252E-02 -.464E-01 -.276E-08   -.169E-07 0.130E-07 -.411E-08   0.735E-02 0.960E-01 0.000E+00
   -.478E+00 0.138E+00 -.408E-08   -.169E-07 0.130E-07 -.411E-08   0.364E+00 -.127E+00 0.000E+00
   0.371E+00 0.649E-04 0.204E-08   0.802E-09 -.169E-07 -.411E-08   -.341E+00 -.385E-01 0.000E+00
   -.328E+00 0.276E+00 -.484E-08   0.802E-09 -.169E-07 -.411E-08   0.998E-01 -.306E+00 0.000E+00
   0.784E-01 0.163E+00 -.229E-08   0.802E-09 0.802E-09 -.411E-08   -.203E-01 -.156E+00 0.000E+00
   0.189E+00 0.429E+00 -.416E-08   0.802E-09 0.802E-09 -.411E-08   -.175E+00 -.155E+00 0.000E+00
   0.724E-02 -.133E+00 -.119E-08   0.802E-09 0.130E-07 -.411E-08   0.717E-01 0.241E+00 0.000E+00
   0.198E+00 -.520E+00 -.471E-08   0.802E-09 0.130E-07 -.411E-08   -.159E+00 0.187E+00 0.000E+00
   -.580E+00 -.404E+00 0.466E-08   0.130E-07 -.169E-07 -.411E-08   0.335E+00 0.192E+00 0.000E+00
   -.768E-01 0.846E-01 -.529E-08   0.130E-07 -.169E-07 -.411E-08   -.582E-02 -.399E-01 0.000E+00
   0.515E+00 -.246E+00 0.996E-10   0.130E-07 0.802E-09 -.411E-08   -.205E+00 0.217E+00 0.000E+00
   0.482E+00 0.282E+00 -.489E-08   0.130E-07 0.802E-09 -.411E-08   -.241E+00 -.158E+00 0.000E+00
   -.146E-01 0.206E+00 0.107E-08   0.130E-07 0.130E-07 -.411E-08   0.109E-01 -.174E+00 0.000E+00
   0.481E+00 -.257E+00 -.558E-08   0.130E-07 0.130E-07 -.411E-08   -.281E+00 0.143E+00 0.000E+00
 -----------------------------------------------------------------------------------------------
   0.885E-01 0.294E-01 -.793E-07   -.197E-14 0.275E-13 0.265E-14   -.885E-01 -.294E-01 0.000E+00
 
 
 POSITION                                       TOTAL-FORCE (eV/Angst)
 -----------------------------------------------------------------------------------
      0.00000      0.00000      0.00000         0.001089     -0.029212     -0.041739
      0.00000      0.00000      3.47664         0.001089     -0.029212      0.041739
      0.00000      2.75005      0.00000         0.055402      0.067587     -0.019576
      0.00000      2.75005      3.47664         0.055402      0.067587      0.019576
      0.00000      5.50010      0.00000         0.016420      0.008642     -0.059072
      0.00000      5.50010      3.47664         0.016420      0.008642      0.059072
      2.75005      0.00000      0.00000         0.073360     -0.033889     -0.040148
      2.75005      0.00000      3.47664         0.073360     -0.033889      0.040148
      2.75005      2.75005      0.00000        -0.060360     -0.003008     -0.035259
      2.75005      2.75005      3.47664        -0.060360     -0.003008      0.035259
      2.75005      5.50010      0.00000         0.096150      0.008454      0.017158
      2.75005      5.50010      3.47664         0.096150      0.008454     -0.017158
      5.50010      0.00000      0.00000        -0.054283     -0.013895      0.194732
      5.50010      0.00000      3.47664        -0.054283     -0.013895     -0.194732
      5.50010      2.75005      0.00000         0.024900     -0.027942      0.058128
      5.50010      2.75005      3.47664         0.024900     -0.027942     -0.058128
      5.50010      5.50010      0.00000        -0.155724      0.023889     -0.005976
      5.50010      5.50010      3.47664        -0.155724      0.023889      0.005976
      1.37502      1.37502      1.73832        -0.046623      0.373308      0.000000
      1.37502      1.37502      5.21496        -0.019030     -0.030025      0.000000
      1.37502      4.12507      1.73832        -0.155917     -0.279778      0.000000
      1.37502      4.12507      5.21496        -0.096460      0.043301      0.000000
      1.37502      6.87512      1.73832         0.008286      0.050500      0.000000
      1.37502      6.87512      5.21496        -0.117405      0.012860      0.000000
      4.12507      1.37502      1.73832         0.027677     -0.041483      0.000000
      4.12507      1.37502      5.21496        -0.229735     -0.023386      0.000000
      4.12507      4.12507      1.73832         0.059286      0.012673      0.000000
      4.12507      4.12507      5.21496         0.021143      0.289205      0.000000
      4.12507      6.87512      1.73832         0.077849      0.103317      0.000000
      4.12507      6.87512      5.21496         0.044265     -0.343465      0.000000
      6.87512      1.37502      1.73832        -0.256520     -0.219930      0.000000
      6.87512      1.37502      5.21496        -0.086513      0.043563      0.000000
      6.87512      4.12507      1.73832         0.325281     -0.037123      0.000000
      6.87512      4.12507      5.21496         0.249948      0.128069      0.000000
      6.87512      6.87512      1.73832        -0.007160      0.028935      0.000000
      6.87512      6.87512      5.21496         0.207718     -0.111792      0.000000
 -----------------------------------------------------------------------------------
    total drift:                               -0.000003     -0.000035     -0.000000


--------------------------------------------------------------------------------------------------------



  FREE ENERGIE OF THE ION-ELECTRON SYSTEM (eV)
  ---------------------------------------------------
  free  energy   TOTEN  =      -236.34077110 eV

  energy  without entropy=     -236.35044051  energy(sigma->0) =     -236.34399424
 


--------------------------------------------------------------------------------------------------------


    POTLOK:  cpu time    0.5792: real time    0.5791


--------------------------------------------------------------------------------------------------------


     LOOP+:  cpu time 1182.2196: real time 1192.4235
    4ORBIT:  cpu time    0.0000: real time    0.0000
 


 total charge     
 
# of ion       s       p       d       tot
------------------------------------------
    1        0.405   0.428   0.000   0.833
    2        0.404   0.428   0.000   0.833
    3        0.405   0.425   0.000   0.830
    4        0.405   0.426   0.000   0.831
    5        0.406   0.425   0.000   0.831
    6        0.405   0.425   0.000   0.831
    7        0.406   0.427   0.000   0.833
    8        0.406   0.426   0.000   0.832
    9        0.405   0.426   0.000   0.832
   10        0.405   0.427   0.000   0.833
   11        0.405   0.428   0.000   0.833
   12        0.405   0.427   0.000   0.833
   13        0.406   0.426   0.000   0.832
   14        0.405   0.426   0.000   0.831
   15        0.405   0.430   0.000   0.835
   16        0.405   0.430   0.000   0.834
   17        0.405   0.426   0.000   0.832
   18        0.405   0.426   0.000   0.831
   19        0.338   0.353   5.127   5.818
   20        0.334   0.352   5.139   5.825
   21        0.335   0.352   5.134   5.821
   22        0.333   0.352   5.142   5.827
   23        0.331   0.354   5.142   5.826
   24        0.333   0.357   5.124   5.814
   25        0.332   0.357   5.128   5.818
   26        0.330   0.356   5.141   5.827
   27        0.334   0.355   5.133   5.822
   28        0.338   0.356   5.120   5.813
   29        0.331   0.347   5.153   5.832
   30        0.336   0.356   5.131   5.823
   31        0.339   0.349   5.128   5.816
   32        0.336   0.360   5.119   5.815
   33        0.337   0.352   5.131   5.820
   34        0.337   0.355   5.124   5.817
   35        0.332   0.357   5.130   5.820
   36        0.335   0.356   5.124   5.815
--------------------------------------------------
tot         13.316  14.058  92.371 119.745
 


 magnetization (x)
 
# of ion       s       p       d       tot
------------------------------------------
    1       -0.002  -0.001   0.000  -0.003
    2       -0.002  -0.001   0.000  -0.003
    3       -0.009  -0.021   0.000  -0.030
    4       -0.009  -0.021   0.000  -0.030
    5       -0.007  -0.015   0.000  -0.022
    6       -0.007  -0.015   0.000  -0.023
    7        0.002   0.002   0.000   0.003
    8        0.002   0.002   0.000   0.003
    9       -0.004  -0.010   0.000  -0.014
   10       -0.004  -0.009   0.000  -0.013
   11        0.002   0.010   0.000   0.013
   12        0.002   0.010   0.000   0.012
   13        0.008   0.017   0.000   0.025
   14        0.008   0.017   0.000   0.025
   15        0.003   0.008   0.000   0.012
   16        0.004   0.009   0.000   0.012
   17        0.006   0.013   0.000   0.018
   18        0.006   0.012   0.000   0.018
   19        0.029   0.024   2.378   2.430
   20        0.021   0.008   2.342   2.371
   21        0.018   0.011   2.351   2.380
   22        0.016   0.017   2.223   2.256
   23       -0.023  -0.025  -2.184  -2.233
   24        0.013   0.023   2.349   2.385
   25       -0.009  -0.030  -2.193  -2.232
   26        0.033   0.036   2.097   2.166
   27       -0.030  -0.019  -2.334  -2.383
   28       -0.032  -0.017  -2.539  -2.588
   29       -0.010   0.005  -2.219  -2.224
   30       -0.023  -0.032  -2.148  -2.202
   31       -0.038  -0.015  -2.605  -2.658
   32       -0.041  -0.029  -2.377  -2.447
   33        0.032   0.017   2.379   2.428
   34        0.032   0.019   2.450   2.501
   35       -0.012  -0.021  -2.234  -2.267
   36        0.026   0.025   2.389   2.439
--------------------------------------------------
tot         -0.001   0.003   0.126   0.128
 

 total amount of memory used by VASP MPI-rank0   740218. kBytes
=======================================================================

   base      :      30000. kBytes
   nonl-proj :      34307. kBytes
   fftplans  :      21726. kBytes
   grid      :      14732. kBytes
   one-center:        279. kBytes
   wavefun   :     639174. kBytes
 
  
  
 General timing and accounting informations for this job:
 ========================================================
  
                  Total CPU time used (sec):     1208.366
                            User time (sec):     1186.395
                          System time (sec):       21.971
                         Elapsed time (sec):     1221.395
  
                   Maximum memory used (kb):      878428.
                   Average memory used (kb):           0.
  
                          Minor page faults:       540048
                          Major page faults:           17
                 Voluntary context switches:         4226
