 vasp.5.4.4.18Apr17-6-g9f103f2a35 (build Dec 20 2018 12:05:58) complex          
  
 executed on             LinuxIFC date 2019.06.20  19:37:17
 running on   32 total cores
 distrk:  each k-point on    8 cores,    4 groups
 distr:  one band on NCORES_PER_BAND=   4 cores,    2 groups


--------------------------------------------------------------------------------------------------------


 INCAR:
 POTCAR:    PAW_PBE Al 04Jan2001                  
 POTCAR:    PAW_PBE Mn 06Sep2000                  

 ----------------------------------------------------------------------------- 
|                                                                             |
|           W    W    AA    RRRRR   N    N  II  N    N   GGGG   !!!           |
|           W    W   A  A   R    R  NN   N  II  NN   N  G    G  !!!           |
|           W    W  A    A  R    R  N N  N  II  N N  N  G       !!!           |
|           W WW W  AAAAAA  RRRRR   N  N N  II  N  N N  G  GGG   !            |
|           WW  WW  A    A  R   R   N   NN  II  N   NN  G    G                |
|           W    W  A    A  R    R  N    N  II  N    N   GGGG   !!!           |
|                                                                             |
|      You have enabled k-point parallelism (KPAR>1).                         |
|      This developmental code was originally  written by Paul Kent at ORNL,  |
|      and carefully double checked in Vienna.                                |
|      GW as well as linear response parallelism added by Martijn Marsman     |
|      and Georg Kresse.                                                      |
|      Carefully verify results versus KPAR=1.                                |
|      Report problems to Paul Kent and Vienna.                               |
|                                                                             |
 ----------------------------------------------------------------------------- 

 POTCAR:    PAW_PBE Al 04Jan2001                  
   VRHFIN =Al: s2p1                                                             
   LEXCH  = PE                                                                  
   EATOM  =    53.5387 eV,    3.9350 Ry                                         
                                                                                
   TITEL  = PAW_PBE Al 04Jan2001                                                
   LULTRA =        F    use ultrasoft PP ?                                      
   IUNSCR =        1    unscreen: 0-lin 1-nonlin 2-no                           
   RPACOR =    1.500    partial core radius                                     
   POMASS =   26.981; ZVAL   =    3.000    mass and valenz                      
   RCORE  =    1.900    outmost cutoff radius                                   
   RWIGS  =    2.650; RWIGS  =    1.402    wigner-seitz radius (au A)           
   ENMAX  =  240.300; ENMIN  =  180.225 eV                                      
   ICORE  =        2    local potential                                         
   LCOR   =        T    correct aug charges                                     
   LPAW   =        T    paw PP                                                  
   EAUG   =  291.052                                                            
   DEXC   =    0.000                                                            
   RMAX   =    1.939    core radius for proj-oper                               
   RAUG   =    1.300    factor for augmentation sphere                          
   RDEP   =    1.966    radius for radial grids                                 
   RDEPT  =    1.856    core radius for aug-charge                              
                                                                                
   Atomic configuration                                                         
    6 entries                                                                   
     n  l   j            E        occ.                                          
     1  0  0.50     -1511.1048   2.0000                                         
     2  0  0.50      -108.1629   2.0000                                         
     2  1  1.50       -69.6402   6.0000                                         
     3  0  0.50        -7.7528   2.0000                                         
     3  1  1.50        -2.7121   1.0000                                         
     3  2  2.50        -2.7212   0.0000                                         
   Description                                                                  
     l       E           TYP  RCUT    TYP  RCUT                                 
     0     -7.7528455     23  1.900                                             
     0     -3.3096929     23  1.900                                             
     1     -2.7120682     23  1.900                                             
     1     13.6058260     23  1.900                                             
     2     -2.7211652      7  1.900                                             
  local pseudopotential read in
  partial core-charges read in
  partial kinetic energy density read in
  atomic valenz-charges read in
  non local Contribution for L=           0  read in
    real space projection operators read in
  non local Contribution for L=           0  read in
    real space projection operators read in
  non local Contribution for L=           1  read in
    real space projection operators read in
  non local Contribution for L=           1  read in
    real space projection operators read in
    PAW grid and wavefunctions read in
 
   number of l-projection  operators is LMAX  =           4
   number of lm-projection operators is LMMAX =           8
 
 POTCAR:    PAW_PBE Mn 06Sep2000                  
   VRHFIN =Mn: d6 s1                                                            
   LEXCH  = PE                                                                  
   EATOM  =   416.7541 eV,   30.6306 Ry                                         
                                                                                
   TITEL  = PAW_PBE Mn 06Sep2000                                                
   LULTRA =        F    use ultrasoft PP ?                                      
   IUNSCR =        1    unscreen: 0-lin 1-nonlin 2-no                           
   RPACOR =    2.000    partial core radius                                     
   POMASS =   54.938; ZVAL   =    7.000    mass and valenz                      
   RCORE  =    2.300    outmost cutoff radius                                   
   RWIGS  =    2.500; RWIGS  =    1.323    wigner-seitz radius (au A)           
   ENMAX  =  269.864; ENMIN  =  202.398 eV                                      
   RCLOC  =    1.725    cutoff for local pot                                    
   LCOR   =        T    correct aug charges                                     
   LPAW   =        T    paw PP                                                  
   EAUG   =  500.711                                                            
   DEXC   =    0.000                                                            
   RMAX   =    2.343    core radius for proj-oper                               
   RAUG   =    1.300    factor for augmentation sphere                          
   RDEP   =    2.338    radius for radial grids                                 
   RDEPT  =    1.911    core radius for aug-charge                              
                                                                                
   Atomic configuration                                                         
    9 entries                                                                   
     n  l   j            E        occ.                                          
     1  0  0.50     -6424.8288   2.0000                                         
     2  0  0.50      -739.1154   2.0000                                         
     2  1  1.50      -625.3949   6.0000                                         
     3  0  0.50       -81.6100   2.0000                                         
     3  1  1.50       -50.4667   6.0000                                         
     3  2  2.50        -3.3745   6.0000                                         
     4  0  0.50        -4.1331   1.0000                                         
     4  1  0.50        -4.0817   0.0000                                         
     4  3  2.50        -1.3606   0.0000                                         
   Description                                                                  
     l       E           TYP  RCUT    TYP  RCUT                                 
     2     -3.3744664     23  2.300                                             
     2     -4.7350490     23  2.300                                             
     0     -4.1331408     23  2.300                                             
     0      7.6656614     23  2.300                                             
     1     -2.7211652     23  2.300                                             
     1     20.4087390     23  2.300                                             
  local pseudopotential read in
  partial core-charges read in
  partial kinetic energy density read in
  atomic valenz-charges read in
  non local Contribution for L=           2  read in
    real space projection operators read in
  non local Contribution for L=           2  read in
    real space projection operators read in
  non local Contribution for L=           0  read in
    real space projection operators read in
  non local Contribution for L=           0  read in
    real space projection operators read in
  non local Contribution for L=           1  read in
    real space projection operators read in
  non local Contribution for L=           1  read in
    real space projection operators read in
    PAW grid and wavefunctions read in
 
   number of l-projection  operators is LMAX  =           6
   number of lm-projection operators is LMMAX =          18
 

 ----------------------------------------------------------------------------- 
|                                                                             |
|  ADVICE TO THIS USER RUNNING 'VASP/VAMP'   (HEAR YOUR MASTER'S VOICE ...):  |
|                                                                             |
|      You have a (more or less) 'large supercell' and for larger cells       |
|      it might be more efficient to use real space projection opertators     |
|      So try LREAL= Auto  in the INCAR   file.                               |
|      Mind:          For very  accurate calculation you might also keep the  |
|      reciprocal projection scheme          (i.e. LREAL=.FALSE.)             |
|                                                                             |
 ----------------------------------------------------------------------------- 

  PAW_PBE Al 04Jan2001                  :
 energy of atom  1       EATOM=  -53.5387
 kinetic energy error for atom=    0.0005 (will be added to EATOM!!)
  PAW_PBE Mn 06Sep2000                  :
 energy of atom  2       EATOM= -416.7541
 kinetic energy error for atom=    0.0080 (will be added to EATOM!!)
 
 
 POSCAR: NewRef: 27, @ ['Mn', array([1.37502469, 
  positions in cartesian coordinates
  velocities in cartesian coordinates
  No initial velocities read in
 exchange correlation table for  LEXCH =        8
   RHO(1)=    0.500       N(1)  =     2000
   RHO(2)=  100.500       N(2)  =     4000
 


--------------------------------------------------------------------------------------------------------


 ion  position               nearest neighbor table
   1  0.000  0.000  0.000-  28 2.61  30 2.61  34 2.61  36 2.61  46 2.61  48 2.61  52 2.61  54 2.61
                             4 2.75  10 2.75   7 2.75  19 2.75
   2  0.000  0.000  0.333-  28 2.61  34 2.61  46 2.61  52 2.61  29 2.61  47 2.61  35 2.61  53 2.61
                             5 2.75  11 2.75   8 2.75  20 2.75
   3  0.000  0.000  0.667-  29 2.61  35 2.61  47 2.61  53 2.61  30 2.61  48 2.61  36 2.61  54 2.61
                             6 2.75  12 2.75   9 2.75  21 2.75
   4  0.000  0.333  0.000-  28 2.61  30 2.61  46 2.61  48 2.61  31 2.61  33 2.61  49 2.61  51 2.61
                            13 2.75   1 2.75   7 2.75  22 2.75
   5  0.000  0.333  0.333-  28 2.61  46 2.61  31 2.61  49 2.61  47 2.61  29 2.61  32 2.61  50 2.61
                            14 2.75   2 2.75   8 2.75  23 2.75
   6  0.000  0.333  0.667-  29 2.61  47 2.61  32 2.61  50 2.61  48 2.61  30 2.61  33 2.61  51 2.61
                            15 2.75   3 2.75   9 2.75  24 2.75
   7  0.000  0.667  0.000-  31 2.61  33 2.61  49 2.61  51 2.61  34 2.61  36 2.61  52 2.61  54 2.61
                             4 2.75  16 2.75   1 2.75  25 2.75
   8  0.000  0.667  0.333-  31 2.61  49 2.61  34 2.61  52 2.61  50 2.61  32 2.61  35 2.61  53 2.61
                             5 2.75  17 2.75   2 2.75  26 2.75
   9  0.000  0.667  0.667-  32 2.61  50 2.61  35 2.61  53 2.61  51 2.61  33 2.61  36 2.61  54 2.61
                             6 2.75  18 2.75   3 2.75  27 2.75
  10  0.333  0.000  0.000-  28 2.61  30 2.61  34 2.61  36 2.61  37 2.61  39 2.61  43 2.61  45 2.61
                            19 2.75   1 2.75  13 2.75  16 2.75
  11  0.333  0.000  0.333-  28 2.61  34 2.61  37 2.61  43 2.61  29 2.61  35 2.61  38 2.61  44 2.61
                            20 2.75   2 2.75  14 2.75  17 2.75
  12  0.333  0.000  0.667-  29 2.61  35 2.61  38 2.61  44 2.61  30 2.61  36 2.61  39 2.61  45 2.61
                            21 2.75   3 2.75  15 2.75  18 2.75
  13  0.333  0.333  0.000-  28 2.61  30 2.61  31 2.61  33 2.61  37 2.61  39 2.61  40 2.61  42 2.61
                             4 2.75  10 2.75  16 2.75  22 2.75
  14  0.333  0.333  0.333-  28 2.61  31 2.61  37 2.61  29 2.61  40 2.61  38 2.61  32 2.61  41 2.61
                             5 2.75  11 2.75  17 2.75  23 2.75
  15  0.333  0.333  0.667-  29 2.61  32 2.61  38 2.61  30 2.61  41 2.61  39 2.61  33 2.61  42 2.61
                             6 2.75  12 2.75  18 2.75  24 2.75
  16  0.333  0.667  0.000-  31 2.61  33 2.61  34 2.61  36 2.61  40 2.61  42 2.61  43 2.61  45 2.61
                            25 2.75   7 2.75  13 2.75  10 2.75
  17  0.333  0.667  0.333-  31 2.61  34 2.61  40 2.61  32 2.61  43 2.61  41 2.61  35 2.61  44 2.61
                            26 2.75   8 2.75  14 2.75  11 2.75
  18  0.333  0.667  0.667-  32 2.61  35 2.61  41 2.61  33 2.61  44 2.61  42 2.61  36 2.61  45 2.61
                            27 2.75   9 2.75  15 2.75  12 2.75
  19  0.667  0.000  0.000-  37 2.61  39 2.61  43 2.61  45 2.61  46 2.61  48 2.61  52 2.61  54 2.61
                            10 2.75  22 2.75   1 2.75  25 2.75
  20  0.667  0.000  0.333-  37 2.61  43 2.61  46 2.61  52 2.61  38 2.61  44 2.61  47 2.61  53 2.61
                            11 2.75  23 2.75   2 2.75  26 2.75
  21  0.667  0.000  0.667-  38 2.61  44 2.61  47 2.61  53 2.61  39 2.61  45 2.61  48 2.61  54 2.61
                            12 2.75  24 2.75   3 2.75  27 2.75
  22  0.667  0.333  0.000-  37 2.61  39 2.61  40 2.61  42 2.61  46 2.61  48 2.61  49 2.61  51 2.61
                            25 2.75  13 2.75  19 2.75   4 2.75
  23  0.667  0.333  0.333-  37 2.61  40 2.61  46 2.61  38 2.61  49 2.61  47 2.61  41 2.61  50 2.61
                            26 2.75  14 2.75  20 2.75   5 2.75
  24  0.667  0.333  0.667-  38 2.61  41 2.61  47 2.61  39 2.61  50 2.61  48 2.61  42 2.61  51 2.61
                            27 2.75  15 2.75  21 2.75   6 2.75
  25  0.667  0.667  0.000-  40 2.61  42 2.61  43 2.61  45 2.61  49 2.61  51 2.61  52 2.61  54 2.61
                            16 2.75  22 2.75  19 2.75   7 2.75
  26  0.667  0.667  0.333-  40 2.61  43 2.61  49 2.61  41 2.61  52 2.61  50 2.61  44 2.61  53 2.61
                            17 2.75  23 2.75  20 2.75   8 2.75
  27  0.667  0.667  0.667-  41 2.61  44 2.61  50 2.61  42 2.61  53 2.61  51 2.61  45 2.61  54 2.61
                            18 2.75  24 2.75  21 2.75   9 2.75
  28  0.167  0.167  0.167-  14 2.61  11 2.61   5 2.61  13 2.61   2 2.61  10 2.61   4 2.61   1 2.61
                            31 2.75  37 2.75  34 2.75  46 2.75
  29  0.167  0.167  0.500-  15 2.61  12 2.61   6 2.61  14 2.61   3 2.61  11 2.61   5 2.61   2 2.61
                            32 2.75  38 2.75  35 2.75  47 2.75
  30  0.167  0.167  0.833-  13 2.61  15 2.61  10 2.61  12 2.61   4 2.61   6 2.61   1 2.61   3 2.61
                            33 2.75  39 2.75  36 2.75  48 2.75
  31  0.167  0.500  0.167-  17 2.61  14 2.61   8 2.61  16 2.61   5 2.61  13 2.61   7 2.61   4 2.61
                            28 2.75  34 2.75  40 2.75  49 2.75
  32  0.167  0.500  0.500-  18 2.61  15 2.61   9 2.61  17 2.61   6 2.61  14 2.61   8 2.61   5 2.61
                            29 2.75  35 2.75  41 2.75  50 2.75
  33  0.167  0.500  0.833-  16 2.61  18 2.61  13 2.61  15 2.61   7 2.61   9 2.61   4 2.61   6 2.61
                            30 2.75  36 2.75  42 2.75  51 2.75
  34  0.167  0.833  0.167-  11 2.61  17 2.61   2 2.61   8 2.61  16 2.61  10 2.61   7 2.61   1 2.61
                            31 2.75  43 2.75  28 2.75  52 2.75
  35  0.167  0.833  0.500-  12 2.61  18 2.61   3 2.61   9 2.61  17 2.61  11 2.61   8 2.61   2 2.61
                            32 2.75  44 2.75  29 2.75  53 2.75
  36  0.167  0.833  0.833-  10 2.61  12 2.61  16 2.61  18 2.61   1 2.61   3 2.61   7 2.61   9 2.61
                            33 2.75  45 2.75  30 2.75  54 2.75
  37  0.500  0.167  0.167-  23 2.61  20 2.61  14 2.61  22 2.61  11 2.61  19 2.61  13 2.61  10 2.61
                            28 2.75  40 2.75  46 2.75  43 2.75
  38  0.500  0.167  0.500-  24 2.61  21 2.61  15 2.61  23 2.61  12 2.61  20 2.61  14 2.61  11 2.61
                            29 2.75  41 2.75  47 2.75  44 2.75
  39  0.500  0.167  0.833-  22 2.61  24 2.61  19 2.61  21 2.61  13 2.61  15 2.61  10 2.61  12 2.61
                            30 2.75  42 2.75  48 2.75  45 2.75
  40  0.500  0.500  0.167-  26 2.61  23 2.61  17 2.61  25 2.61  14 2.61  22 2.61  16 2.61  13 2.61
                            31 2.75  37 2.75  43 2.75  49 2.75
  41  0.500  0.500  0.500-  27 2.61  24 2.61  18 2.61  26 2.61  15 2.61  23 2.61  17 2.61  14 2.61
                            32 2.75  38 2.75  44 2.75  50 2.75
  42  0.500  0.500  0.833-  25 2.61  27 2.61  22 2.61  24 2.61  16 2.61  18 2.61  13 2.61  15 2.61
                            33 2.75  39 2.75  45 2.75  51 2.75
  43  0.500  0.833  0.167-  20 2.61  26 2.61  11 2.61  17 2.61  25 2.61  19 2.61  16 2.61  10 2.61
                            34 2.75  40 2.75  52 2.75  37 2.75
  44  0.500  0.833  0.500-  21 2.61  27 2.61  12 2.61  18 2.61  26 2.61  20 2.61  17 2.61  11 2.61
                            35 2.75  41 2.75  53 2.75  38 2.75
  45  0.500  0.833  0.833-  19 2.61  21 2.61  25 2.61  27 2.61  10 2.61  12 2.61  16 2.61  18 2.61
                            36 2.75  42 2.75  54 2.75  39 2.75
  46  0.833  0.167  0.167-   5 2.61  23 2.61  20 2.61   2 2.61  22 2.61   4 2.61  19 2.61   1 2.61
                            37 2.75  49 2.75  28 2.75  52 2.75
  47  0.833  0.167  0.500-   6 2.61  24 2.61  21 2.61   3 2.61  23 2.61   5 2.61  20 2.61   2 2.61
                            38 2.75  50 2.75  29 2.75  53 2.75
  48  0.833  0.167  0.833-   4 2.61   6 2.61  22 2.61  24 2.61  19 2.61  21 2.61   1 2.61   3 2.61
                            39 2.75  51 2.75  30 2.75  54 2.75
  49  0.833  0.500  0.167-   8 2.61  26 2.61  23 2.61   5 2.61  25 2.61   7 2.61  22 2.61   4 2.61
                            40 2.75  46 2.75  52 2.75  31 2.75
  50  0.833  0.500  0.500-   9 2.61  27 2.61  24 2.61   6 2.61  26 2.61   8 2.61  23 2.61   5 2.61
                            41 2.75  47 2.75  53 2.75  32 2.75
  51  0.833  0.500  0.833-   7 2.61   9 2.61  25 2.61  27 2.61  22 2.61  24 2.61   4 2.61   6 2.61
                            42 2.75  48 2.75  54 2.75  33 2.75
  52  0.833  0.833  0.167-   2 2.61   8 2.61  20 2.61  26 2.61  19 2.61   7 2.61  25 2.61   1 2.61
                            43 2.75  49 2.75  46 2.75  34 2.75
  53  0.833  0.833  0.500-   3 2.61   9 2.61  21 2.61  27 2.61  20 2.61   8 2.61  26 2.61   2 2.61
                            44 2.75  50 2.75  47 2.75  35 2.75
  54  0.833  0.833  0.833-   1 2.61   3 2.61   7 2.61   9 2.61  19 2.61  21 2.61  25 2.61  27 2.61
                            45 2.75  51 2.75  48 2.75  36 2.75
 
  LATTYP: Found a simple tetragonal cell.
 ALAT       =     8.2501481662
 C/A-ratio  =     1.2642089792
  
  Lattice vectors:
  
 A1 = (   8.2501481662,   0.0000000000,   0.0000000000)
 A2 = (   0.0000000000,   8.2501481662,   0.0000000000)
 A3 = (   0.0000000000,   0.0000000000,  10.4299113916)


Analysis of symmetry for initial positions (statically):
=====================================================================
 Subroutine PRICEL returns following result:
 
  LATTYP: Found a simple tetragonal cell.
 ALAT       =     2.7500493888
 C/A-ratio  =     1.2642089792
  
  Lattice vectors:
  
 A1 = (   2.7500493888,   0.0000000000,   0.0000000000)
 A2 = (   0.0000000000,   2.7500493888,   0.0000000000)
 A3 = (   0.0000000000,   0.0000000000,   3.4766371306)
 
  27 primitive cells build up your supercell.
 

 Routine SETGRP: Setting up the symmetry group for a 
 simple tetragonal supercell.


 Subroutine GETGRP returns: Found 16 space group operations
 (whereof 16 operations were pure point group operations)
 out of a pool of 16 trial point group operations.


The static configuration has the point symmetry D_4h.


Analysis of symmetry for dynamics (positions and initial velocities):
=====================================================================
 Subroutine PRICEL returns following result:
 
  LATTYP: Found a simple tetragonal cell.
 ALAT       =     2.7500493888
 C/A-ratio  =     1.2642089792
  
  Lattice vectors:
  
 A1 = (   2.7500493888,   0.0000000000,   0.0000000000)
 A2 = (   0.0000000000,   2.7500493888,   0.0000000000)
 A3 = (   0.0000000000,   0.0000000000,   3.4766371306)
 
  27 primitive cells build up your supercell.
 

 Routine SETGRP: Setting up the symmetry group for a 
 simple tetragonal supercell.


 Subroutine GETGRP returns: Found 16 space group operations
 (whereof 16 operations were pure point group operations)
 out of a pool of 16 trial point group operations.


The dynamic configuration has the point symmetry D_4h.


Analysis of structural, dynamic, and magnetic symmetry:
=====================================================================
 Subroutine PRICEL returns:
 Original cell was already a primitive cell.
 

 Routine SETGRP: Setting up the symmetry group for a 
 simple tetragonal supercell.


 Subroutine GETGRP returns: Found  8 space group operations
 (whereof  4 operations were pure point group operations)
 out of a pool of 16 trial point group operations.


The magnetic configuration has the point symmetry C_2v.
 The point group associated with its full space group is D_2h.


 Subroutine INISYM returns: Found  8 space group operations
 (whereof  4 operations are pure point group operations),
 and found     1 'primitive' translations

 
 
 KPOINTS: automatic KPOINTS                       

Automatic generation of k-mesh.
 generate k-points for:    5    5    4
Space group operators:
 irot       det(A)        alpha          n_x          n_y          n_z        tau_x        tau_y        tau_z
    1     1.000000     0.000001     1.000000     0.000000     0.000000     0.000000     0.000000     0.000000
    2     1.000000   180.000000     0.000000     0.000000     1.000000     0.000000     0.000000     0.000000
    3    -1.000000   180.000000     0.707107     0.707107     0.000000     0.000000     0.000000     0.000000
    4    -1.000000   180.000000     0.707107    -0.707107     0.000000     0.000000     0.000000     0.000000
    5    -1.000000     0.000001     1.000000     0.000000     0.000000     0.000000     0.000000     0.666667
    6    -1.000000   180.000000     0.000000     0.000000     1.000000     0.000000     0.000000     0.666667
    7     1.000000   180.000000     0.707107     0.707107     0.000000     0.000000     0.000000     0.666667
    8     1.000000   180.000000     0.707107    -0.707107     0.000000     0.000000     0.000000     0.666667
 
 Subroutine IBZKPT returns following result:
 ===========================================
 
 Found     27 irreducible k-points:
 
 Following reciprocal coordinates:
            Coordinates               Weight
  0.000000  0.000000  0.000000      1.000000
  0.200000  0.000000  0.000000      4.000000
  0.400000  0.000000  0.000000      4.000000
  0.200000  0.200000  0.000000      2.000000
  0.400000  0.200000  0.000000      4.000000
 -0.400000  0.200000  0.000000      4.000000
 -0.200000  0.200000  0.000000      2.000000
  0.400000  0.400000  0.000000      2.000000
 -0.400000  0.400000  0.000000      2.000000
  0.000000  0.000000  0.250000      2.000000
  0.200000  0.000000  0.250000      8.000000
  0.400000  0.000000  0.250000      8.000000
  0.200000  0.200000  0.250000      4.000000
  0.400000  0.200000  0.250000      8.000000
 -0.400000  0.200000  0.250000      8.000000
 -0.200000  0.200000  0.250000      4.000000
  0.400000  0.400000  0.250000      4.000000
 -0.400000  0.400000  0.250000      4.000000
  0.000000  0.000000  0.500000      1.000000
  0.200000  0.000000  0.500000      4.000000
  0.400000  0.000000  0.500000      4.000000
  0.200000  0.200000  0.500000      2.000000
  0.400000  0.200000  0.500000      4.000000
 -0.400000  0.200000  0.500000      4.000000
 -0.200000  0.200000  0.500000      2.000000
  0.400000  0.400000  0.500000      2.000000
 -0.400000  0.400000  0.500000      2.000000
 
 Following cartesian coordinates:
            Coordinates               Weight
  0.000000  0.000000  0.000000      1.000000
  0.024242  0.000000  0.000000      4.000000
  0.048484  0.000000  0.000000      4.000000
  0.024242  0.024242  0.000000      2.000000
  0.048484  0.024242  0.000000      4.000000
 -0.048484  0.024242  0.000000      4.000000
 -0.024242  0.024242  0.000000      2.000000
  0.048484  0.048484  0.000000      2.000000
 -0.048484  0.048484  0.000000      2.000000
  0.000000  0.000000  0.023970      2.000000
  0.024242  0.000000  0.023970      8.000000
  0.048484  0.000000  0.023970      8.000000
  0.024242  0.024242  0.023970      4.000000
  0.048484  0.024242  0.023970      8.000000
 -0.048484  0.024242  0.023970      8.000000
 -0.024242  0.024242  0.023970      4.000000
  0.048484  0.048484  0.023970      4.000000
 -0.048484  0.048484  0.023970      4.000000
  0.000000  0.000000  0.047939      1.000000
  0.024242  0.000000  0.047939      4.000000
  0.048484  0.000000  0.047939      4.000000
  0.024242  0.024242  0.047939      2.000000
  0.048484  0.024242  0.047939      4.000000
 -0.048484  0.024242  0.047939      4.000000
 -0.024242  0.024242  0.047939      2.000000
  0.048484  0.048484  0.047939      2.000000
 -0.048484  0.048484  0.047939      2.000000
 


--------------------------------------------------------------------------------------------------------




 Dimension of arrays:
   k-points           NKPTS =     27   k-points in BZ     NKDIM =     27   number of bands    NBANDS=    184
   number of dos      NEDOS =    301   number of ions     NIONS =     54
   non local maximal  LDIM  =      6   non local SUM 2l+1 LMDIM =     18
   total plane-waves  NPLWV = 204120
   max r-space proj   IRMAX =      1   max aug-charges    IRDMAX=  89713
   dimension x,y,z NGX =    54 NGY =   54 NGZ =   70
   dimension x,y,z NGXF=   108 NGYF=  108 NGZF=  140
   support grid    NGXF=   216 NGYF=  216 NGZF=  280
   ions per type =              27  27
   NGX,Y,Z   is equivalent  to a cutoff of  10.88, 10.88, 11.16 a.u.
   NGXF,Y,Z  is equivalent  to a cutoff of  21.76, 21.76, 22.32 a.u.

 SYSTEM =  AlMn_pv                                 
 POSCAR =  NewRef: 27, @ ['Mn', array([1.37502469, 

 Startparameter for this run:
   NWRITE =      2    write-flag & timer
   PREC   = accura    normal or accurate (medium, high low for compatibility)
   ISTART =      0    job   : 0-new  1-cont  2-samecut
   ICHARG =      2    charge: 1-file 2-atom 10-const
   ISPIN  =      2    spin polarized calculation?
   LNONCOLLINEAR =      F non collinear calculations
   LSORBIT =      F    spin-orbit coupling
   INIWAV =      1    electr: 0-lowe 1-rand  2-diag
   LASPH  =      F    aspherical Exc in radial PAW
   METAGGA=      F    non-selfconsistent MetaGGA calc.

 Electronic Relaxation 1
   ENCUT  =  404.8 eV  29.75 Ry    5.45 a.u.  13.53 13.53 17.11*2*pi/ulx,y,z
   ENINI  =  404.8     initial cutoff
   ENAUG  =  500.7 eV  augmentation charge cutoff
   NELM   =    100;   NELMIN=  4; NELMDL= -8     # of ELM steps 
   EDIFF  = 0.1E-06   stopping-criterion for ELM
   LREAL  =      F    real-space projection
   NLSPLINE    = F    spline interpolate recip. space projectors
   LCOMPAT=      F    compatible to vasp.4.4
   GGA_COMPAT  = T    GGA compatible to vasp.4.4-vasp.4.6
   LMAXPAW     = -100 max onsite density
   LMAXMIX     =    2 max onsite mixed and CHGCAR
   VOSKOWN=      0    Vosko Wilk Nusair interpolation
   ROPT   =    0.00000   0.00000
 Ionic relaxation
   EDIFFG = 0.1E-05   stopping-criterion for IOM
   NSW    =      0    number of steps for IOM
   NBLOCK =      1;   KBLOCK =      1    inner block; outer block 
   IBRION =     -1    ionic relax: 0-MD 1-quasi-New 2-CG
   NFREE  =      0    steps in history (QN), initial steepest desc. (CG)
   ISIF   =      2    stress and relaxation
   IWAVPR =     10    prediction:  0-non 1-charg 2-wave 3-comb
   ISYM   =      2    0-nonsym 1-usesym 2-fastsym
   LCORR  =      T    Harris-Foulkes like correction to forces

   POTIM  = 0.2000    time-step for ionic-motion
   TEIN   =    0.0    initial temperature
   TEBEG  =    0.0;   TEEND  =   0.0 temperature during run
   SMASS  =  -3.00    Nose mass-parameter (am)
   estimated Nose-frequenzy (Omega)   =  0.10E-29 period in steps =****** mass=  -0.156E-26a.u.
   SCALEE = 1.0000    scale energy and forces
   NPACO  =    256;   APACO  = 16.0  distance and # of slots for P.C.
   PSTRESS=    0.0 pullay stress

  Mass of Ions in am
   POMASS =  26.98 54.94
  Ionic Valenz
   ZVAL   =   3.00  7.00
  Atomic Wigner-Seitz radii
   RWIGS  =  -1.00 -1.00
  virtual crystal weights 
   VCA    =   1.00  1.00
   NELECT =     270.0000    total number of electrons
   NUPDOWN=      -1.0000    fix difference up-down

 DOS related values:
   EMIN   =  10.00;   EMAX   =-10.00  energy-range for DOS
   EFERMI =   0.00
   ISMEAR =     1;   SIGMA  =   0.20  broadening in eV -4-tet -1-fermi 0-gaus

 Electronic relaxation 2 (details)
   IALGO  =     58    algorithm
   LDIAG  =      T    sub-space diagonalisation (order eigenvalues)
   LSUBROT=      F    optimize rotation matrix (better conditioning)
   TURBO    =      0    0=normal 1=particle mesh
   IRESTART =      0    0=no restart 2=restart with 2 vectors
   NREBOOT  =      0    no. of reboots
   NMIN     =      0    reboot dimension
   EREF     =   0.00    reference energy to select bands
   IMIX   =      4    mixing-type and parameters
     AMIX     =   0.40;   BMIX     =  1.00
     AMIX_MAG =   1.60;   BMIX_MAG =  1.00
     AMIN     =   0.10
     WC   =   100.;   INIMIX=   1;  MIXPRE=   1;  MAXMIX= -45

 Intra band minimization:
   WEIMIN = 0.0000     energy-eigenvalue tresh-hold
   EBREAK =  0.14E-09  absolut break condition
   DEPER  =   0.30     relativ break condition  

   TIME   =   0.40     timestep for ELM

  volume/ion in A,a.u.               =      13.15        88.72
  Fermi-wavevector in a.u.,A,eV,Ry     =   1.186118  2.241439 19.141722  1.406877
  Thomas-Fermi vector in A             =   2.322298
 
 Write flags
   LWAVE        =      F    write WAVECAR
   LDOWNSAMPLE  =      F    k-point downsampling of WAVECAR
   LCHARG       =      F    write CHGCAR
   LVTOT        =      F    write LOCPOT, total local potential
   LVHAR        =      F    write LOCPOT, Hartree potential only
   LELF         =      F    write electronic localiz. function (ELF)
   LORBIT       =     10    0 simple, 1 ext, 2 COOP (PROOUT), +10 PAW based schemes


 Dipole corrections
   LMONO  =      F    monopole corrections only (constant potential shift)
   LDIPOL =      F    correct potential (dipole corrections)
   IDIPOL =      0    1-x, 2-y, 3-z, 4-all directions 
   EPSILON=  1.0000000 bulk dielectric constant

 Exchange correlation treatment:
   GGA     =    --    GGA type
   LEXCH   =     8    internal setting for exchange type
   VOSKOWN=      0    Vosko Wilk Nusair interpolation
   LHFCALC =     F    Hartree Fock is set to
   LHFONE  =     F    Hartree Fock one center treatment
   AEXX    =    0.0000 exact exchange contribution

 Linear response parameters
   LEPSILON=     F    determine dielectric tensor
   LRPA    =     F    only Hartree local field effects (RPA)
   LNABLA  =     F    use nabla operator in PAW spheres
   LVEL    =     F    velocity operator in full k-point grid
   LINTERFAST=   F  fast interpolation
   KINTER  =     0    interpolate to denser k-point grid
   CSHIFT  =0.1000    complex shift for real part using Kramers Kronig
   OMEGAMAX=  -1.0    maximum frequency
   DEG_THRESHOLD= 0.2000000E-02 threshold for treating states as degnerate
   RTIME   =   -0.100 relaxation time in fs
  (WPLASMAI=    0.000 imaginary part of plasma frequency in eV, 0.658/RTIME)
   DFIELD  = 0.0000000 0.0000000 0.0000000 field for delta impulse in time
 
 Orbital magnetization related:
   ORBITALMAG=     F  switch on orbital magnetization
   LCHIMAG   =     F  perturbation theory with respect to B field
   DQ        =  0.001000  dq finite difference perturbation B field
   LLRAUG    =     F  two centre corrections for induced B field



--------------------------------------------------------------------------------------------------------


 Static calculation
 charge density and potential will be updated during run
 spin polarized calculation
 Conjugate gradient for all bands (Freysoldt, et al. PRB 79, 241103 (2009))
 preconditioned conjugated gradient                                        
 perform sub-space diagonalisation
    before iterative eigenvector-optimisation
 modified Broyden-mixing scheme, WC =      100.0
 initial mixing is a Kerker type mixing with AMIX =  0.4000 and BMIX =      1.0000
 Hartree-type preconditioning will be used
 using additional bands           49
 reciprocal scheme for non local part
 use partial core corrections
 no Harris-corrections to forces 
 use gradient corrections 
 use of overlap-Matrix (Vanderbilt PP)
 Methfessel and Paxton  Order N= 1 SIGMA  =   0.20


--------------------------------------------------------------------------------------------------------


  energy-cutoff  :      404.80
  volume of cell :      709.91
      direct lattice vectors                 reciprocal lattice vectors
     8.250148166  0.000000000  0.000000000     0.121209944  0.000000000  0.000000000
     0.000000000  8.250148166  0.000000000     0.000000000  0.121209944  0.000000000
     0.000000000  0.000000000 10.429911392     0.000000000  0.000000000  0.095878092

  length of vectors
     8.250148166  8.250148166 10.429911392     0.121209944  0.121209944  0.095878092


 
 k-points in units of 2pi/SCALE and weight: automatic KPOINTS                       
   0.00000000  0.00000000  0.00000000       0.010
   0.02424199  0.00000000  0.00000000       0.040
   0.04848398  0.00000000  0.00000000       0.040
   0.02424199  0.02424199  0.00000000       0.020
   0.04848398  0.02424199  0.00000000       0.040
  -0.04848398  0.02424199  0.00000000       0.040
  -0.02424199  0.02424199  0.00000000       0.020
   0.04848398  0.04848398  0.00000000       0.020
  -0.04848398  0.04848398  0.00000000       0.020
   0.00000000  0.00000000  0.02396952       0.020
   0.02424199  0.00000000  0.02396952       0.080
   0.04848398  0.00000000  0.02396952       0.080
   0.02424199  0.02424199  0.02396952       0.040
   0.04848398  0.02424199  0.02396952       0.080
  -0.04848398  0.02424199  0.02396952       0.080
  -0.02424199  0.02424199  0.02396952       0.040
   0.04848398  0.04848398  0.02396952       0.040
  -0.04848398  0.04848398  0.02396952       0.040
   0.00000000  0.00000000  0.04793905       0.010
   0.02424199  0.00000000  0.04793905       0.040
   0.04848398  0.00000000  0.04793905       0.040
   0.02424199  0.02424199  0.04793905       0.020
   0.04848398  0.02424199  0.04793905       0.040
  -0.04848398  0.02424199  0.04793905       0.040
  -0.02424199  0.02424199  0.04793905       0.020
   0.04848398  0.04848398  0.04793905       0.020
  -0.04848398  0.04848398  0.04793905       0.020
 
 k-points in reciprocal lattice and weights: automatic KPOINTS                       
   0.00000000  0.00000000  0.00000000       0.010
   0.20000000  0.00000000  0.00000000       0.040
   0.40000000  0.00000000  0.00000000       0.040
   0.20000000  0.20000000  0.00000000       0.020
   0.40000000  0.20000000  0.00000000       0.040
  -0.40000000  0.20000000  0.00000000       0.040
  -0.20000000  0.20000000  0.00000000       0.020
   0.40000000  0.40000000  0.00000000       0.020
  -0.40000000  0.40000000  0.00000000       0.020
   0.00000000  0.00000000  0.25000000       0.020
   0.20000000  0.00000000  0.25000000       0.080
   0.40000000  0.00000000  0.25000000       0.080
   0.20000000  0.20000000  0.25000000       0.040
   0.40000000  0.20000000  0.25000000       0.080
  -0.40000000  0.20000000  0.25000000       0.080
  -0.20000000  0.20000000  0.25000000       0.040
   0.40000000  0.40000000  0.25000000       0.040
  -0.40000000  0.40000000  0.25000000       0.040
   0.00000000  0.00000000  0.50000000       0.010
   0.20000000  0.00000000  0.50000000       0.040
   0.40000000  0.00000000  0.50000000       0.040
   0.20000000  0.20000000  0.50000000       0.020
   0.40000000  0.20000000  0.50000000       0.040
  -0.40000000  0.20000000  0.50000000       0.040
  -0.20000000  0.20000000  0.50000000       0.020
   0.40000000  0.40000000  0.50000000       0.020
  -0.40000000  0.40000000  0.50000000       0.020
 
 position of ions in fractional coordinates (direct lattice) 
   0.00000000  0.00000000  0.00000000
   0.00000000  0.00000000  0.33333333
   0.00000000  0.00000000  0.66666667
   0.00000000  0.33333333  0.00000000
   0.00000000  0.33333333  0.33333333
   0.00000000  0.33333333  0.66666667
   0.00000000  0.66666667  0.00000000
   0.00000000  0.66666667  0.33333333
   0.00000000  0.66666667  0.66666667
   0.33333333  0.00000000  0.00000000
   0.33333333  0.00000000  0.33333333
   0.33333333  0.00000000  0.66666667
   0.33333333  0.33333333  0.00000000
   0.33333333  0.33333333  0.33333333
   0.33333333  0.33333333  0.66666667
   0.33333333  0.66666667  0.00000000
   0.33333333  0.66666667  0.33333333
   0.33333333  0.66666667  0.66666667
   0.66666667  0.00000000  0.00000000
   0.66666667  0.00000000  0.33333333
   0.66666667  0.00000000  0.66666667
   0.66666667  0.33333333  0.00000000
   0.66666667  0.33333333  0.33333333
   0.66666667  0.33333333  0.66666667
   0.66666667  0.66666667  0.00000000
   0.66666667  0.66666667  0.33333333
   0.66666667  0.66666667  0.66666667
   0.16666667  0.16666667  0.16666667
   0.16666667  0.16666667  0.50000000
   0.16666667  0.16666667  0.83333333
   0.16666667  0.50000000  0.16666667
   0.16666667  0.50000000  0.50000000
   0.16666667  0.50000000  0.83333333
   0.16666667  0.83333333  0.16666667
   0.16666667  0.83333333  0.50000000
   0.16666667  0.83333333  0.83333333
   0.50000000  0.16666667  0.16666667
   0.50000000  0.16666667  0.50000000
   0.50000000  0.16666667  0.83333333
   0.50000000  0.50000000  0.16666667
   0.50000000  0.50000000  0.50000000
   0.50000000  0.50000000  0.83333333
   0.50000000  0.83333333  0.16666667
   0.50000000  0.83333333  0.50000000
   0.50000000  0.83333333  0.83333333
   0.83333333  0.16666667  0.16666667
   0.83333333  0.16666667  0.50000000
   0.83333333  0.16666667  0.83333333
   0.83333333  0.50000000  0.16666667
   0.83333333  0.50000000  0.50000000
   0.83333333  0.50000000  0.83333333
   0.83333333  0.83333333  0.16666667
   0.83333333  0.83333333  0.50000000
   0.83333333  0.83333333  0.83333333
 
 position of ions in cartesian coordinates  (Angst):
   0.00000000  0.00000000  0.00000000
   0.00000000  0.00000000  3.47663713
   0.00000000  0.00000000  6.95327426
   0.00000000  2.75004939  0.00000000
   0.00000000  2.75004939  3.47663713
   0.00000000  2.75004939  6.95327426
   0.00000000  5.50009878  0.00000000
   0.00000000  5.50009878  3.47663713
   0.00000000  5.50009878  6.95327426
   2.75004939  0.00000000  0.00000000
   2.75004939  0.00000000  3.47663713
   2.75004939  0.00000000  6.95327426
   2.75004939  2.75004939  0.00000000
   2.75004939  2.75004939  3.47663713
   2.75004939  2.75004939  6.95327426
   2.75004939  5.50009878  0.00000000
   2.75004939  5.50009878  3.47663713
   2.75004939  5.50009878  6.95327426
   5.50009878  0.00000000  0.00000000
   5.50009878  0.00000000  3.47663713
   5.50009878  0.00000000  6.95327426
   5.50009878  2.75004939  0.00000000
   5.50009878  2.75004939  3.47663713
   5.50009878  2.75004939  6.95327426
   5.50009878  5.50009878  0.00000000
   5.50009878  5.50009878  3.47663713
   5.50009878  5.50009878  6.95327426
   1.37502469  1.37502469  1.73831857
   1.37502469  1.37502469  5.21495570
   1.37502469  1.37502469  8.69159283
   1.37502469  4.12507408  1.73831857
   1.37502469  4.12507408  5.21495570
   1.37502469  4.12507408  8.69159283
   1.37502469  6.87512347  1.73831857
   1.37502469  6.87512347  5.21495570
   1.37502469  6.87512347  8.69159283
   4.12507408  1.37502469  1.73831857
   4.12507408  1.37502469  5.21495570
   4.12507408  1.37502469  8.69159283
   4.12507408  4.12507408  1.73831857
   4.12507408  4.12507408  5.21495570
   4.12507408  4.12507408  8.69159283
   4.12507408  6.87512347  1.73831857
   4.12507408  6.87512347  5.21495570
   4.12507408  6.87512347  8.69159283
   6.87512347  1.37502469  1.73831857
   6.87512347  1.37502469  5.21495570
   6.87512347  1.37502469  8.69159283
   6.87512347  4.12507408  1.73831857
   6.87512347  4.12507408  5.21495570
   6.87512347  4.12507408  8.69159283
   6.87512347  6.87512347  1.73831857
   6.87512347  6.87512347  5.21495570
   6.87512347  6.87512347  8.69159283
 


--------------------------------------------------------------------------------------------------------


 k-point  1 :   0.0000 0.0000 0.0000  plane waves:   13099
 k-point  2 :   0.2000 0.0000 0.0000  plane waves:   13101
 k-point  3 :   0.4000 0.0000 0.0000  plane waves:   13111
 k-point  4 :   0.2000 0.2000 0.0000  plane waves:   13137
 k-point  5 :   0.4000 0.2000 0.0000  plane waves:   13119
 k-point  6 :  -0.4000 0.2000 0.0000  plane waves:   13119
 k-point  7 :  -0.2000 0.2000 0.0000  plane waves:   13137
 k-point  8 :   0.4000 0.4000 0.0000  plane waves:   13129
 k-point  9 :  -0.4000 0.4000 0.0000  plane waves:   13129
 k-point 10 :   0.0000 0.0000 0.2500  plane waves:   13134
 k-point 11 :   0.2000 0.0000 0.2500  plane waves:   13149
 k-point 12 :   0.4000 0.0000 0.2500  plane waves:   13119
 k-point 13 :   0.2000 0.2000 0.2500  plane waves:   13145
 k-point 14 :   0.4000 0.2000 0.2500  plane waves:   13134
 k-point 15 :  -0.4000 0.2000 0.2500  plane waves:   13134
 k-point 16 :  -0.2000 0.2000 0.2500  plane waves:   13145
 k-point 17 :   0.4000 0.4000 0.2500  plane waves:   13108
 k-point 18 :  -0.4000 0.4000 0.2500  plane waves:   13108
 k-point 19 :   0.0000 0.0000 0.5000  plane waves:   13186
 k-point 20 :   0.2000 0.0000 0.5000  plane waves:   13124
 k-point 21 :   0.4000 0.0000 0.5000  plane waves:   13152
 k-point 22 :   0.2000 0.2000 0.5000  plane waves:   13136
 k-point 23 :   0.4000 0.2000 0.5000  plane waves:   13128
 k-point 24 :  -0.4000 0.2000 0.5000  plane waves:   13128
 k-point 25 :  -0.2000 0.2000 0.5000  plane waves:   13136
 k-point 26 :   0.4000 0.4000 0.5000  plane waves:   13112
 k-point 27 :  -0.4000 0.4000 0.5000  plane waves:   13112

 maximum and minimum number of plane-waves per node :      3304     3246

 maximum number of plane-waves:     13186
 maximum index in each direction: 
   IXMAX=   13   IYMAX=   13   IZMAX=   17
   IXMIN=  -13   IYMIN=  -13   IZMIN=  -17


 parallel 3D FFT for wavefunctions:
    minimum data exchange during FFTs selected (reduces bandwidth)
 parallel 3D FFT for charge:
    minimum data exchange during FFTs selected (reduces bandwidth)


 total amount of memory used by VASP MPI-rank0   941748. kBytes
=======================================================================

   base      :      30000. kBytes
   nonl-proj :      28494. kBytes
   fftplans  :      31580. kBytes
   grid      :      21385. kBytes
   one-center:        435. kBytes
   wavefun   :     829854. kBytes
 
     INWAV:  cpu time    0.0000: real time    0.0000
 Broyden mixing: mesh for mixing (old mesh)
   NGX = 27   NGY = 27   NGZ = 35
  (NGX  =108   NGY  =108   NGZ  =140)
  gives a total of  25515 points

 initial charge density was supplied:
 charge density of overlapping atoms calculated
 number of electron     270.0000000 magnetization      39.0000000
 keeping initial charge density in first step


--------------------------------------------------------------------------------------------------------


 Maximum index for augmentation-charges        10967 (set IRDMAX)


--------------------------------------------------------------------------------------------------------


 First call to EWALD:  gamma=   0.199
 Maximum number of real-space cells 3x 3x 2
 Maximum number of reciprocal cells 3x 3x 3

    FEWALD:  cpu time    0.0119: real time    0.0122


--------------------------------------- Iteration      1(   1)  ---------------------------------------


    POTLOK:  cpu time    0.3954: real time    0.3958
    SETDIJ:  cpu time    0.4892: real time    0.5172
    TRIAL :  cpu time   32.3855: real time   32.6677
    CORREC:  cpu time    0.0058: real time    0.0068
    --------------------------------------------
      LOOP:  cpu time   33.5384: real time   33.8807

 eigenvalue-minimisations  : 19872
 total energy-change (2. order) : 0.2019158E+04  (-0.8981886E+04)
 number of electron     270.0000000 magnetization      39.0000000
 augmentation part      270.0000000 magnetization      39.0000000

 Free energy of the ion-electron system (eV)
  ---------------------------------------------------
  alpha Z        PSCENC =       798.38614055
  Ewald energy   TEWEN  =    -12901.57693327
  -Hartree energ DENC   =     -2855.60785864
  -exchange      EXHF   =         0.00000000
  -V(xc)+E(xc)   XCENC  =      -996.06422260
  PAW double counting   =     12741.82587617   -11476.22345381
  entropy T*S    EENTRO =         0.00603666
  eigenvalues    EBANDS =      4010.73802970
  atomic energy  EATOM  =     12697.67401269
  ---------------------------------------------------
  free energy    TOTEN  =      2019.15762744 eV

  energy without entropy =     2019.15159078  energy(sigma->0) =     2019.15561522


--------------------------------------------------------------------------------------------------------




--------------------------------------- Iteration      1(   2)  ---------------------------------------


    TRIAL :  cpu time   33.2268: real time   33.6354
    CORREC:  cpu time    0.0073: real time    0.0082
    --------------------------------------------
      LOOP:  cpu time   33.2351: real time   33.6466

 eigenvalue-minimisations  : 19872
 total energy-change (2. order) :-0.2138324E+04  (-0.2063061E+04)
 number of electron     270.0000000 magnetization      39.0000000
 augmentation part      270.0000000 magnetization      39.0000000

 Free energy of the ion-electron system (eV)
  ---------------------------------------------------
  alpha Z        PSCENC =       798.38614055
  Ewald energy   TEWEN  =    -12901.57693327
  -Hartree energ DENC   =     -2855.60785864
  -exchange      EXHF   =         0.00000000
  -V(xc)+E(xc)   XCENC  =      -996.06422260
  PAW double counting   =     12741.82587617   -11476.22345381
  entropy T*S    EENTRO =         0.00422946
  eigenvalues    EBANDS =      1872.41595395
  atomic energy  EATOM  =     12697.67401269
  ---------------------------------------------------
  free energy    TOTEN  =      -119.16625552 eV

  energy without entropy =     -119.17048498  energy(sigma->0) =     -119.16766534


--------------------------------------------------------------------------------------------------------




--------------------------------------- Iteration      1(   3)  ---------------------------------------


    TRIAL :  cpu time   45.6249: real time   46.1039
    CORREC:  cpu time    0.0080: real time    0.0088
    --------------------------------------------
      LOOP:  cpu time   45.6341: real time   46.1163

 eigenvalue-minimisations  : 29744
 total energy-change (2. order) :-0.2454714E+03  (-0.2110056E+03)
 number of electron     270.0000000 magnetization      39.0000000
 augmentation part      270.0000000 magnetization      39.0000000

 Free energy of the ion-electron system (eV)
  ---------------------------------------------------
  alpha Z        PSCENC =       798.38614055
  Ewald energy   TEWEN  =    -12901.57693327
  -Hartree energ DENC   =     -2855.60785864
  -exchange      EXHF   =         0.00000000
  -V(xc)+E(xc)   XCENC  =      -996.06422260
  PAW double counting   =     12741.82587617   -11476.22345381
  entropy T*S    EENTRO =         0.00614612
  eigenvalues    EBANDS =      1626.94264239
  atomic energy  EATOM  =     12697.67401269
  ---------------------------------------------------
  free energy    TOTEN  =      -364.63765042 eV

  energy without entropy =     -364.64379654  energy(sigma->0) =     -364.63969912


--------------------------------------------------------------------------------------------------------




--------------------------------------- Iteration      1(   4)  ---------------------------------------


    TRIAL :  cpu time   47.8251: real time   48.2075
    CORREC:  cpu time    0.0089: real time    0.0090
    --------------------------------------------
      LOOP:  cpu time   47.8356: real time   48.2205

 eigenvalue-minimisations  : 32184
 total energy-change (2. order) :-0.3636023E+02  (-0.3166185E+02)
 number of electron     270.0000000 magnetization      39.0000000
 augmentation part      270.0000000 magnetization      39.0000000

 Free energy of the ion-electron system (eV)
  ---------------------------------------------------
  alpha Z        PSCENC =       798.38614055
  Ewald energy   TEWEN  =    -12901.57693327
  -Hartree energ DENC   =     -2855.60785864
  -exchange      EXHF   =         0.00000000
  -V(xc)+E(xc)   XCENC  =      -996.06422260
  PAW double counting   =     12741.82587617   -11476.22345381
  entropy T*S    EENTRO =         0.01496217
  eigenvalues    EBANDS =      1590.57359781
  atomic energy  EATOM  =     12697.67401269
  ---------------------------------------------------
  free energy    TOTEN  =      -400.99787895 eV

  energy without entropy =     -401.01284112  energy(sigma->0) =     -401.00286634


--------------------------------------------------------------------------------------------------------




--------------------------------------- Iteration      1(   5)  ---------------------------------------


    TRIAL :  cpu time   48.4675: real time   48.8230
    CORREC:  cpu time    0.0086: real time    0.0095
    --------------------------------------------
      LOOP:  cpu time   48.4771: real time   48.8361

 eigenvalue-minimisations  : 32176
 total energy-change (2. order) :-0.3048974E+01  (-0.2919403E+01)
 number of electron     270.0000000 magnetization      39.0000000
 augmentation part      270.0000000 magnetization      39.0000000

 Free energy of the ion-electron system (eV)
  ---------------------------------------------------
  alpha Z        PSCENC =       798.38614055
  Ewald energy   TEWEN  =    -12901.57693327
  -Hartree energ DENC   =     -2855.60785864
  -exchange      EXHF   =         0.00000000
  -V(xc)+E(xc)   XCENC  =      -996.06422260
  PAW double counting   =     12741.82587617   -11476.22345381
  entropy T*S    EENTRO =         0.01213274
  eigenvalues    EBANDS =      1587.52745293
  atomic energy  EATOM  =     12697.67401269
  ---------------------------------------------------
  free energy    TOTEN  =      -404.04685325 eV

  energy without entropy =     -404.05898599  energy(sigma->0) =     -404.05089750


--------------------------------------------------------------------------------------------------------




--------------------------------------- Iteration      1(   6)  ---------------------------------------


    TRIAL :  cpu time   48.5130: real time   48.9606
    CORREC:  cpu time    0.0086: real time    0.0095
    --------------------------------------------
      LOOP:  cpu time   48.5225: real time   48.9742

 eigenvalue-minimisations  : 32192
 total energy-change (2. order) :-0.2405687E+00  (-0.2367847E+00)
 number of electron     270.0000000 magnetization      39.0000000
 augmentation part      270.0000000 magnetization      39.0000000

 Free energy of the ion-electron system (eV)
  ---------------------------------------------------
  alpha Z        PSCENC =       798.38614055
  Ewald energy   TEWEN  =    -12901.57693327
  -Hartree energ DENC   =     -2855.60785864
  -exchange      EXHF   =         0.00000000
  -V(xc)+E(xc)   XCENC  =      -996.06422260
  PAW double counting   =     12741.82587617   -11476.22345381
  entropy T*S    EENTRO =         0.01204640
  eigenvalues    EBANDS =      1587.28697054
  atomic energy  EATOM  =     12697.67401269
  ---------------------------------------------------
  free energy    TOTEN  =      -404.28742199 eV

  energy without entropy =     -404.29946838  energy(sigma->0) =     -404.29143745


--------------------------------------------------------------------------------------------------------




--------------------------------------- Iteration      1(   7)  ---------------------------------------


    TRIAL :  cpu time   48.7270: real time   49.3425
    CORREC:  cpu time    0.0087: real time    0.0096
    --------------------------------------------
      LOOP:  cpu time   48.7371: real time   49.3560

 eigenvalue-minimisations  : 32624
 total energy-change (2. order) :-0.2442476E-01  (-0.2424406E-01)
 number of electron     270.0000000 magnetization      39.0000000
 augmentation part      270.0000000 magnetization      39.0000000

 Free energy of the ion-electron system (eV)
  ---------------------------------------------------
  alpha Z        PSCENC =       798.38614055
  Ewald energy   TEWEN  =    -12901.57693327
  -Hartree energ DENC   =     -2855.60785864
  -exchange      EXHF   =         0.00000000
  -V(xc)+E(xc)   XCENC  =      -996.06422260
  PAW double counting   =     12741.82587617   -11476.22345381
  entropy T*S    EENTRO =         0.01200270
  eigenvalues    EBANDS =      1587.26258948
  atomic energy  EATOM  =     12697.67401269
  ---------------------------------------------------
  free energy    TOTEN  =      -404.31184674 eV

  energy without entropy =     -404.32384945  energy(sigma->0) =     -404.31584764


--------------------------------------------------------------------------------------------------------




--------------------------------------- Iteration      1(   8)  ---------------------------------------


    TRIAL :  cpu time   48.0912: real time   48.5645
    CORREC:  cpu time    0.0090: real time    0.0098
    CHARGE:  cpu time    1.5955: real time    1.5958
    --------------------------------------------
      LOOP:  cpu time   49.6967: real time   50.1741

 eigenvalue-minimisations  : 31856
 total energy-change (2. order) :-0.2236388E-02  (-0.2227573E-02)
 number of electron     269.9999995 magnetization      28.4792234
 augmentation part       64.2174795 magnetization      16.3727696

 Free energy of the ion-electron system (eV)
  ---------------------------------------------------
  alpha Z        PSCENC =       798.38614055
  Ewald energy   TEWEN  =    -12901.57693327
  -Hartree energ DENC   =     -2855.60785864
  -exchange      EXHF   =         0.00000000
  -V(xc)+E(xc)   XCENC  =      -996.06422260
  PAW double counting   =     12741.82587617   -11476.22345381
  entropy T*S    EENTRO =         0.01200049
  eigenvalues    EBANDS =      1587.26035531
  atomic energy  EATOM  =     12697.67401269
  ---------------------------------------------------
  free energy    TOTEN  =      -404.31408313 eV

  energy without entropy =     -404.32608362  energy(sigma->0) =     -404.31808329


--------------------------------------------------------------------------------------------------------




--------------------------------------- Iteration      1(   9)  ---------------------------------------


    POTLOK:  cpu time    0.3975: real time    0.3975
    SETDIJ:  cpu time    0.5051: real time    0.5052
    TRIAL :  cpu time   16.6790: real time   16.7984
    CORREC:  cpu time    5.2392: real time    5.2943
    CHARGE:  cpu time    1.5537: real time    1.6137
    --------------------------------------------
      LOOP:  cpu time   24.3800: real time   24.6165

 eigenvalue-minimisations  :     0
 total energy-change (2. order) : 0.3000266E+03  (-0.2133322E+03)
 number of electron     269.9999993 magnetization      30.1427993
 augmentation part       82.3185345 magnetization      19.7428429

 Free energy of the ion-electron system (eV)
  ---------------------------------------------------
  alpha Z        PSCENC =       798.38614055
  Ewald energy   TEWEN  =    -12901.57693327
  -Hartree energ DENC   =     -1274.42974130
  -exchange      EXHF   =         0.00000000
  -V(xc)+E(xc)   XCENC  =     -1041.48070554
  PAW double counting   =     19171.74857293   -17752.35938260
  entropy T*S    EENTRO =        -0.01983810
  eigenvalues    EBANDS =       197.73857679
  atomic energy  EATOM  =     12697.67401269
  ---------------------------------------------------
  free energy    TOTEN  =      -104.28745927 eV

  energy without entropy =     -104.26762117  energy(sigma->0) =     -104.28084657


--------------------------------------------------------------------------------------------------------




--------------------------------------- Iteration      1(  10)  ---------------------------------------


    POTLOK:  cpu time    0.3911: real time    0.3911
    SETDIJ:  cpu time    0.4768: real time    0.4770
    TRIAL :  cpu time   16.6656: real time   16.8832
    CORREC:  cpu time    6.1869: real time    6.2518
    CHARGE:  cpu time    1.6303: real time    1.6401
    --------------------------------------------
      LOOP:  cpu time   25.3521: real time   25.6458

 eigenvalue-minimisations  :     0
 total energy-change (2. order) :-0.2136503E+03  (-0.1322612E+02)
 number of electron     269.9999993 magnetization      30.9344788
 augmentation part       86.7048379 magnetization      20.8859594

 Free energy of the ion-electron system (eV)
  ---------------------------------------------------
  alpha Z        PSCENC =       798.38614055
  Ewald energy   TEWEN  =    -12901.57693327
  -Hartree energ DENC   =     -2099.01541632
  -exchange      EXHF   =         0.00000000
  -V(xc)+E(xc)   XCENC  =     -1012.60448508
  PAW double counting   =     20648.02593158   -19408.41788561
  entropy T*S    EENTRO =        -0.02150843
  eigenvalues    EBANDS =       959.61067163
  atomic energy  EATOM  =     12697.67401269
  ---------------------------------------------------
  free energy    TOTEN  =      -317.93780194 eV

  energy without entropy =     -317.91629350  energy(sigma->0) =     -317.93063246


--------------------------------------------------------------------------------------------------------




--------------------------------------- Iteration      1(  11)  ---------------------------------------


    POTLOK:  cpu time    0.3915: real time    0.3918
    SETDIJ:  cpu time    0.4565: real time    0.4571
    TRIAL :  cpu time   17.2718: real time   17.4293
    CORREC:  cpu time    5.3168: real time    5.3287
    CHARGE:  cpu time    1.6293: real time    1.6293
    --------------------------------------------
      LOOP:  cpu time   25.0724: real time   25.2454

 eigenvalue-minimisations  :     0
 total energy-change (2. order) :-0.1274200E+02  (-0.9011455E+01)
 number of electron     269.9999992 magnetization      31.0820843
 augmentation part       88.6897870 magnetization      21.2424688

 Free energy of the ion-electron system (eV)
  ---------------------------------------------------
  alpha Z        PSCENC =       798.38614055
  Ewald energy   TEWEN  =    -12901.57693327
  -Hartree energ DENC   =     -2360.17026736
  -exchange      EXHF   =         0.00000000
  -V(xc)+E(xc)   XCENC  =     -1003.05181864
  PAW double counting   =     21661.09368759   -20465.06308397
  entropy T*S    EENTRO =        -0.02215454
  eigenvalues    EBANDS =      1242.04997005
  atomic energy  EATOM  =     12697.67401269
  ---------------------------------------------------
  free energy    TOTEN  =      -330.67980080 eV

  energy without entropy =     -330.65764626  energy(sigma->0) =     -330.67241595


--------------------------------------------------------------------------------------------------------




--------------------------------------- Iteration      1(  12)  ---------------------------------------


    POTLOK:  cpu time    0.3914: real time    0.3920
    SETDIJ:  cpu time    0.4786: real time    0.4786
    TRIAL :  cpu time   16.6796: real time   16.8463
    CORREC:  cpu time    5.2646: real time    5.3786
    CHARGE:  cpu time    1.5785: real time    1.5789
    --------------------------------------------
      LOOP:  cpu time   24.4020: real time   24.6852

 eigenvalue-minimisations  :     0
 total energy-change (2. order) :-0.9507806E+01  (-0.1291045E+02)
 number of electron     269.9999993 magnetization      31.1990071
 augmentation part       86.9561738 magnetization      21.4464279

 Free energy of the ion-electron system (eV)
  ---------------------------------------------------
  alpha Z        PSCENC =       798.38614055
  Ewald energy   TEWEN  =    -12901.57693327
  -Hartree energ DENC   =     -2523.41762518
  -exchange      EXHF   =         0.00000000
  -V(xc)+E(xc)   XCENC  =      -997.60883241
  PAW double counting   =     21811.10254538   -20623.69816444
  entropy T*S    EENTRO =        -0.03893977
  eigenvalues    EBANDS =      1398.97340481
  atomic energy  EATOM  =     12697.67401269
  ---------------------------------------------------
  free energy    TOTEN  =      -340.18760640 eV

  energy without entropy =     -340.14866664  energy(sigma->0) =     -340.17462648


--------------------------------------------------------------------------------------------------------




--------------------------------------- Iteration      1(  13)  ---------------------------------------


    POTLOK:  cpu time    0.3934: real time    0.3934
    SETDIJ:  cpu time    0.4835: real time    0.4834
    TRIAL :  cpu time   17.4958: real time   17.6834
    CORREC:  cpu time    5.3068: real time    5.3827
    CHARGE:  cpu time    1.5908: real time    1.5911
    --------------------------------------------
      LOOP:  cpu time   25.2862: real time   25.5511

 eigenvalue-minimisations  :     0
 total energy-change (2. order) :-0.1274929E+02  (-0.8770523E+00)
 number of electron     269.9999992 magnetization      31.2782955
 augmentation part       86.4457856 magnetization      21.4438845

 Free energy of the ion-electron system (eV)
  ---------------------------------------------------
  alpha Z        PSCENC =       798.38614055
  Ewald energy   TEWEN  =    -12901.57693327
  -Hartree energ DENC   =     -2531.98229803
  -exchange      EXHF   =         0.00000000
  -V(xc)+E(xc)   XCENC  =      -998.36859308
  PAW double counting   =     21191.40407183   -19955.14389223
  entropy T*S    EENTRO =        -0.04661603
  eigenvalues    EBANDS =      1346.70953986
  atomic energy  EATOM  =     12697.67401269
  ---------------------------------------------------
  free energy    TOTEN  =      -352.93689144 eV

  energy without entropy =     -352.89027541  energy(sigma->0) =     -352.92135276


--------------------------------------------------------------------------------------------------------




--------------------------------------- Iteration      1(  14)  ---------------------------------------


    POTLOK:  cpu time    0.3913: real time    0.3914
    SETDIJ:  cpu time    0.4667: real time    0.4667
    TRIAL :  cpu time   16.6940: real time   16.7866
    CORREC:  cpu time    5.2796: real time    5.3448
    CHARGE:  cpu time    1.5917: real time    1.5918
    --------------------------------------------
      LOOP:  cpu time   24.4286: real time   24.5876

 eigenvalue-minimisations  :     0
 total energy-change (2. order) :-0.8558277E+00  (-0.1012922E+01)
 number of electron     269.9999992 magnetization      31.2512929
 augmentation part       85.9207371 magnetization      21.2582377

 Free energy of the ion-electron system (eV)
  ---------------------------------------------------
  alpha Z        PSCENC =       798.38614055
  Ewald energy   TEWEN  =    -12901.57693327
  -Hartree energ DENC   =     -2506.29462387
  -exchange      EXHF   =         0.00000000
  -V(xc)+E(xc)   XCENC  =      -999.30033545
  PAW double counting   =     20945.71956618   -19700.96968471
  entropy T*S    EENTRO =        -0.04603231
  eigenvalues    EBANDS =      1312.61575476
  atomic energy  EATOM  =     12697.67401269
  ---------------------------------------------------
  free energy    TOTEN  =      -353.79271914 eV

  energy without entropy =     -353.74668684  energy(sigma->0) =     -353.77737504


--------------------------------------------------------------------------------------------------------




--------------------------------------- Iteration      1(  15)  ---------------------------------------


    POTLOK:  cpu time    0.3931: real time    0.3937
    SETDIJ:  cpu time    0.4773: real time    0.4773
    TRIAL :  cpu time   17.5054: real time   17.6931
    CORREC:  cpu time    5.9514: real time    6.0156
    CHARGE:  cpu time    1.5852: real time    1.5986
    --------------------------------------------
      LOOP:  cpu time   25.9460: real time   26.2132

 eigenvalue-minimisations  :     0
 total energy-change (2. order) :-0.1011318E+01  (-0.8521558E+00)
 number of electron     269.9999992 magnetization      31.2630953
 augmentation part       86.3560104 magnetization      21.2317902

 Free energy of the ion-electron system (eV)
  ---------------------------------------------------
  alpha Z        PSCENC =       798.38614055
  Ewald energy   TEWEN  =    -12901.57693327
  -Hartree energ DENC   =     -2469.27550802
  -exchange      EXHF   =         0.00000000
  -V(xc)+E(xc)   XCENC  =     -1000.57132959
  PAW double counting   =     20334.96972163   -19079.86270879
  entropy T*S    EENTRO =        -0.04761354
  eigenvalues    EBANDS =      1265.49860010
  atomic energy  EATOM  =     12697.67401269
  ---------------------------------------------------
  free energy    TOTEN  =      -354.80403700 eV

  energy without entropy =     -354.75642346  energy(sigma->0) =     -354.78816582


--------------------------------------------------------------------------------------------------------




--------------------------------------- Iteration      1(  16)  ---------------------------------------


    POTLOK:  cpu time    0.3911: real time    0.3911
    SETDIJ:  cpu time    0.4580: real time    0.4582
    TRIAL :  cpu time   16.7041: real time   16.8363
    CORREC:  cpu time    5.3070: real time    5.3233
    CHARGE:  cpu time    1.5708: real time    1.5872
    --------------------------------------------
      LOOP:  cpu time   24.4365: real time   24.6039

 eigenvalue-minimisations  :     0
 total energy-change (2. order) :-0.8490109E+00  (-0.3440113E+00)
 number of electron     269.9999992 magnetization      31.3108278
 augmentation part       86.9866424 magnetization      21.3242913

 Free energy of the ion-electron system (eV)
  ---------------------------------------------------
  alpha Z        PSCENC =       798.38614055
  Ewald energy   TEWEN  =    -12901.57693327
  -Hartree energ DENC   =     -2477.93794134
  -exchange      EXHF   =         0.00000000
  -V(xc)+E(xc)   XCENC  =     -1000.04396482
  PAW double counting   =     19817.08343838   -18563.18439030
  entropy T*S    EENTRO =        -0.04957513
  eigenvalues    EBANDS =      1273.99420377
  atomic energy  EATOM  =     12697.67401269
  ---------------------------------------------------
  free energy    TOTEN  =      -355.65304787 eV

  energy without entropy =     -355.60347274  energy(sigma->0) =     -355.63652283


--------------------------------------------------------------------------------------------------------




--------------------------------------- Iteration      1(  17)  ---------------------------------------


    POTLOK:  cpu time    0.3917: real time    0.3917
    SETDIJ:  cpu time    0.4782: real time    0.4784
    TRIAL :  cpu time   16.6640: real time   16.8811
    CORREC:  cpu time    5.2748: real time    5.3388
    CHARGE:  cpu time    2.4781: real time    2.5108
    --------------------------------------------
      LOOP:  cpu time   25.3254: real time   25.6409

 eigenvalue-minimisations  :     0
 total energy-change (2. order) :-0.3448035E+00  (-0.1278618E+00)
 number of electron     269.9999992 magnetization      31.2432779
 augmentation part       87.2089589 magnetization      21.3490771

 Free energy of the ion-electron system (eV)
  ---------------------------------------------------
  alpha Z        PSCENC =       798.38614055
  Ewald energy   TEWEN  =    -12901.57693327
  -Hartree energ DENC   =     -2504.05079623
  -exchange      EXHF   =         0.00000000
  -V(xc)+E(xc)   XCENC  =      -998.89391382
  PAW double counting   =     19649.59395170   -18401.56566560
  entropy T*S    EENTRO =        -0.04861486
  eigenvalues    EBANDS =      1304.48492771
  atomic energy  EATOM  =     12697.67401269
  ---------------------------------------------------
  free energy    TOTEN  =      -355.99785140 eV

  energy without entropy =     -355.94923654  energy(sigma->0) =     -355.98164644


--------------------------------------------------------------------------------------------------------




--------------------------------------- Iteration      1(  18)  ---------------------------------------


    POTLOK:  cpu time    0.3898: real time    0.3899
    SETDIJ:  cpu time    0.5094: real time    0.5169
    TRIAL :  cpu time   17.3440: real time   17.4990
    CORREC:  cpu time    5.3134: real time    5.3485
    CHARGE:  cpu time    1.5698: real time    1.5777
    --------------------------------------------
      LOOP:  cpu time   25.1344: real time   25.3411

 eigenvalue-minimisations  :     0
 total energy-change (2. order) :-0.1289510E+00  (-0.2300191E+00)
 number of electron     269.9999992 magnetization      31.1415665
 augmentation part       87.2209026 magnetization      21.4826380

 Free energy of the ion-electron system (eV)
  ---------------------------------------------------
  alpha Z        PSCENC =       798.38614055
  Ewald energy   TEWEN  =    -12901.57693327
  -Hartree energ DENC   =     -2513.36639379
  -exchange      EXHF   =         0.00000000
  -V(xc)+E(xc)   XCENC  =      -998.42510303
  PAW double counting   =     19602.57676395   -18356.75541524
  entropy T*S    EENTRO =        -0.05024030
  eigenvalues    EBANDS =      1315.40874066
  atomic energy  EATOM  =     12697.67401269
  ---------------------------------------------------
  free energy    TOTEN  =      -356.12680236 eV

  energy without entropy =     -356.07656205  energy(sigma->0) =     -356.11005559


--------------------------------------------------------------------------------------------------------




--------------------------------------- Iteration      1(  19)  ---------------------------------------


    POTLOK:  cpu time    0.3924: real time    0.3924
    SETDIJ:  cpu time    0.4781: real time    0.4781
    TRIAL :  cpu time   16.6519: real time   16.8121
    CORREC:  cpu time    5.3246: real time    5.3630
    CHARGE:  cpu time    1.5832: real time    1.5834
    --------------------------------------------
      LOOP:  cpu time   24.4576: real time   24.6565

 eigenvalue-minimisations  :     0
 total energy-change (2. order) :-0.2299886E+00  (-0.8061903E-01)
 number of electron     269.9999992 magnetization      31.2191084
 augmentation part       87.0473185 magnetization      21.5701933

 Free energy of the ion-electron system (eV)
  ---------------------------------------------------
  alpha Z        PSCENC =       798.38614055
  Ewald energy   TEWEN  =    -12901.57693327
  -Hartree energ DENC   =     -2510.54076318
  -exchange      EXHF   =         0.00000000
  -V(xc)+E(xc)   XCENC  =      -998.12096569
  PAW double counting   =     19531.80825481   -18286.14695801
  entropy T*S    EENTRO =        -0.04872593
  eigenvalues    EBANDS =      1312.21066151
  atomic energy  EATOM  =     12697.67401269
  ---------------------------------------------------
  free energy    TOTEN  =      -356.35679091 eV

  energy without entropy =     -356.30806498  energy(sigma->0) =     -356.34054893


--------------------------------------------------------------------------------------------------------




--------------------------------------- Iteration      1(  20)  ---------------------------------------


    POTLOK:  cpu time    0.3929: real time    0.3929
    SETDIJ:  cpu time    0.4558: real time    0.5336
    TRIAL :  cpu time   18.2572: real time   18.4680
    CORREC:  cpu time    5.2632: real time    5.2813
    CHARGE:  cpu time    1.5767: real time    1.6350
    --------------------------------------------
      LOOP:  cpu time   25.9583: real time   26.3256

 eigenvalue-minimisations  :     0
 total energy-change (2. order) :-0.8022456E-01  (-0.3543684E-01)
 number of electron     269.9999992 magnetization      31.2056760
 augmentation part       86.9317946 magnetization      21.5953408

 Free energy of the ion-electron system (eV)
  ---------------------------------------------------
  alpha Z        PSCENC =       798.38614055
  Ewald energy   TEWEN  =    -12901.57693327
  -Hartree energ DENC   =     -2501.01663939
  -exchange      EXHF   =         0.00000000
  -V(xc)+E(xc)   XCENC  =      -998.26918419
  PAW double counting   =     19507.45533046   -18260.02840316
  entropy T*S    EENTRO =        -0.04706751
  eigenvalues    EBANDS =      1300.98738678
  atomic energy  EATOM  =     12697.67401269
  ---------------------------------------------------
  free energy    TOTEN  =      -356.43701547 eV

  energy without entropy =     -356.38994796  energy(sigma->0) =     -356.42132630


--------------------------------------------------------------------------------------------------------




--------------------------------------- Iteration      1(  21)  ---------------------------------------


    POTLOK:  cpu time    0.3916: real time    0.3916
    SETDIJ:  cpu time    0.4624: real time    0.4624
    TRIAL :  cpu time   16.7481: real time   16.8467
    CORREC:  cpu time    5.2787: real time    5.3299
    CHARGE:  cpu time    1.5707: real time    1.5837
    --------------------------------------------
      LOOP:  cpu time   24.4815: real time   24.6452

 eigenvalue-minimisations  :     0
 total energy-change (2. order) :-0.3541505E-01  (-0.4878366E-01)
 number of electron     269.9999992 magnetization      31.1965240
 augmentation part       86.8271364 magnetization      21.6632601

 Free energy of the ion-electron system (eV)
  ---------------------------------------------------
  alpha Z        PSCENC =       798.38614055
  Ewald energy   TEWEN  =    -12901.57693327
  -Hartree energ DENC   =     -2495.85834925
  -exchange      EXHF   =         0.00000000
  -V(xc)+E(xc)   XCENC  =      -998.35792667
  PAW double counting   =     19500.54462707   -18252.04077305
  entropy T*S    EENTRO =        -0.04711491
  eigenvalues    EBANDS =      1294.80383893
  atomic energy  EATOM  =     12697.67401269
  ---------------------------------------------------
  free energy    TOTEN  =      -356.47243052 eV

  energy without entropy =     -356.42531561  energy(sigma->0) =     -356.45672555


--------------------------------------------------------------------------------------------------------




--------------------------------------- Iteration      1(  22)  ---------------------------------------


    POTLOK:  cpu time    0.3910: real time    0.3916
    SETDIJ:  cpu time    0.4609: real time    0.4613
    TRIAL :  cpu time   17.5453: real time   17.7622
    CORREC:  cpu time    5.3128: real time    5.3887
    CHARGE:  cpu time    1.6186: real time    1.6484
    --------------------------------------------
      LOOP:  cpu time   25.3466: real time   25.6720

 eigenvalue-minimisations  :     0
 total energy-change (2. order) :-0.4867065E-01  (-0.3889213E-01)
 number of electron     269.9999992 magnetization      31.2420457
 augmentation part       86.9459100 magnetization      21.7346951

 Free energy of the ion-electron system (eV)
  ---------------------------------------------------
  alpha Z        PSCENC =       798.38614055
  Ewald energy   TEWEN  =    -12901.57693327
  -Hartree energ DENC   =     -2492.41680962
  -exchange      EXHF   =         0.00000000
  -V(xc)+E(xc)   XCENC  =      -998.31831410
  PAW double counting   =     19502.67544394   -18253.50029397
  entropy T*S    EENTRO =        -0.04566495
  eigenvalues    EBANDS =      1290.60276752
  atomic energy  EATOM  =     12697.67401269
  ---------------------------------------------------
  free energy    TOTEN  =      -356.52110117 eV

  energy without entropy =     -356.47543622  energy(sigma->0) =     -356.50587952


--------------------------------------------------------------------------------------------------------




--------------------------------------- Iteration      1(  23)  ---------------------------------------


    POTLOK:  cpu time    0.3924: real time    0.3924
    SETDIJ:  cpu time    1.2140: real time    1.2141
    TRIAL :  cpu time   16.6479: real time   16.7750
    CORREC:  cpu time    5.3356: real time    5.3372
    CHARGE:  cpu time    1.5772: real time    1.5980
    --------------------------------------------
      LOOP:  cpu time   25.5045: real time   25.6565

 eigenvalue-minimisations  :     0
 total energy-change (2. order) :-0.3889608E-01  (-0.1024553E-01)
 number of electron     269.9999992 magnetization      31.2148360
 augmentation part       86.9865898 magnetization      21.7313932

 Free energy of the ion-electron system (eV)
  ---------------------------------------------------
  alpha Z        PSCENC =       798.38614055
  Ewald energy   TEWEN  =    -12901.57693327
  -Hartree energ DENC   =     -2500.89546805
  -exchange      EXHF   =         0.00000000
  -V(xc)+E(xc)   XCENC  =      -997.86179318
  PAW double counting   =     19524.21724539   -18276.84993680
  entropy T*S    EENTRO =        -0.04489981
  eigenvalues    EBANDS =      1300.39240037
  atomic energy  EATOM  =     12697.67401269
  ---------------------------------------------------
  free energy    TOTEN  =      -356.55999725 eV

  energy without entropy =     -356.51509744  energy(sigma->0) =     -356.54503064


--------------------------------------------------------------------------------------------------------




--------------------------------------- Iteration      1(  24)  ---------------------------------------


    POTLOK:  cpu time    0.3920: real time    0.3922
[...]
   45       -0.019  -0.018  -2.334  -2.370
   46        0.021   0.013   2.357   2.390
   47        0.021   0.013   2.354   2.387
   48        0.031   0.031   2.033   2.095
   49        0.018   0.022   2.373   2.413
   50        0.018   0.022   2.376   2.416
   51       -0.018  -0.016  -2.348  -2.382
   52        0.016   0.026   2.357   2.398
   53        0.015   0.026   2.356   2.397
   54       -0.027  -0.028  -2.412  -2.468
--------------------------------------------------
tot         -0.021  -0.173  30.338  30.144
 
    FORLOC:  cpu time    0.0589: real time    0.0589
    FORNL :  cpu time   25.6497: real time   25.8595
    STRESS:  cpu time   35.1973: real time   35.6854
    FORCOR:  cpu time    0.4414: real time    0.4414
    OFIELD:  cpu time    0.0023: real time    0.0023

  FORCE on cell =-STRESS in cart. coord.  units (eV):
  Direction    XX          YY          ZZ          XY          YZ          ZX
  --------------------------------------------------------------------------------------
  Alpha Z   798.38614   798.38614   798.38614
  Ewald   -4053.61603 -4053.61603 -4794.40593    -0.00000    -0.00000    -0.00000
  Hartree  1083.39663  1083.39663   334.87944     0.12385    -0.00000    -0.00000
  E(xc)   -1141.62724 -1141.62724 -1140.37479    -0.02560     0.00000     0.00000
  Local     371.14843   371.14843  1900.90778    -0.36755     0.00000    -0.00000
  n-local  -172.05899  -168.11151  -176.54365     0.25397    -0.14729    -0.06250
  augment   783.93756   783.93756   769.14321     0.06556     0.00001     0.00001
  Kinetic  2328.56214  2340.06973  2311.70246     0.52490    -1.30536    -0.70616
  Fock        0.00000     0.00000     0.00000     0.00000     0.00000     0.00000
  -------------------------------------------------------------------------------------
  Total       5.85619     5.85619     3.69467     0.57962     0.00000     0.00000
  in kB      13.21666    13.21666     8.33839     1.30813     0.00000     0.00000
  external pressure =       11.59 kB  Pullay stress =        0.00 kB


 VOLUME and BASIS-vectors are now :
 -----------------------------------------------------------------------------
  energy-cutoff  :      404.80
  volume of cell :      709.91
      direct lattice vectors                 reciprocal lattice vectors
     8.250148166  0.000000000  0.000000000     0.121209944  0.000000000  0.000000000
     0.000000000  8.250148166  0.000000000     0.000000000  0.121209944  0.000000000
     0.000000000  0.000000000 10.429911392     0.000000000  0.000000000  0.095878092

  length of vectors
     8.250148166  8.250148166 10.429911392     0.121209944  0.121209944  0.095878092


 FORCES acting on ions:
    Electron-Ion                     Ewald-Force                    Non-Local-Force
 -----------------------------------------------------------------------------------------------
   0.123E-09 0.123E-09 0.202E-01   -.239E-08 -.239E-08 -.210E-08   0.000E+00 0.000E+00 0.320E-01
   -.254E-10 -.253E-10 0.483E-06   -.239E-08 -.239E-08 0.171E-08   0.000E+00 0.000E+00 0.212E-21
   -.174E-09 -.174E-09 -.202E-01   -.239E-08 -.239E-08 0.861E-08   0.000E+00 0.000E+00 -.320E-01
   0.108E+00 0.906E-01 -.812E-01   -.239E-08 -.802E-09 -.210E-08   -.914E-01 -.905E-01 0.572E-01
   0.276E-01 0.334E-01 0.482E-06   -.239E-08 -.802E-09 0.171E-08   0.392E-03 -.865E-02 0.000E+00
   0.108E+00 0.906E-01 0.812E-01   -.239E-08 -.802E-09 0.861E-08   -.914E-01 -.905E-01 -.572E-01
   -.108E+00 -.906E-01 -.812E-01   -.239E-08 0.631E-08 -.210E-08   0.914E-01 0.905E-01 0.572E-01
   -.276E-01 -.334E-01 0.482E-06   -.239E-08 0.631E-08 0.171E-08   -.392E-03 0.865E-02 0.000E+00
   -.108E+00 -.906E-01 0.812E-01   -.239E-08 0.631E-08 0.861E-08   0.914E-01 0.905E-01 -.572E-01
   0.906E-01 0.108E+00 -.812E-01   -.802E-09 -.239E-08 -.210E-08   -.905E-01 -.914E-01 0.572E-01
   0.334E-01 0.276E-01 0.482E-06   -.802E-09 -.239E-08 0.171E-08   -.865E-02 0.392E-03 0.000E+00
   0.906E-01 0.108E+00 0.812E-01   -.803E-09 -.239E-08 0.861E-08   -.905E-01 -.914E-01 -.572E-01
   -.156E-01 -.156E-01 -.116E+00   -.802E-09 -.802E-09 -.210E-08   0.221E-03 0.221E-03 0.495E-01
   -.146E-01 -.146E-01 0.480E-06   -.802E-09 -.802E-09 0.171E-08   -.412E-02 -.412E-02 0.000E+00
   -.156E-01 -.156E-01 0.116E+00   -.803E-09 -.802E-09 0.861E-08   0.221E-03 0.221E-03 -.495E-01
   0.822E-01 -.822E-01 -.114E+00   -.802E-09 0.631E-08 -.210E-08   -.867E-01 0.867E-01 0.328E-01
   0.467E-02 -.467E-02 0.481E-06   -.802E-09 0.631E-08 0.171E-08   0.440E-02 -.440E-02 0.000E+00
   0.822E-01 -.822E-01 0.114E+00   -.803E-09 0.631E-08 0.861E-08   -.867E-01 0.867E-01 -.328E-01
   -.906E-01 -.108E+00 -.812E-01   0.631E-08 -.239E-08 -.210E-08   0.905E-01 0.914E-01 0.572E-01
   -.334E-01 -.276E-01 0.482E-06   0.631E-08 -.239E-08 0.171E-08   0.865E-02 -.392E-03 0.000E+00
   -.906E-01 -.108E+00 0.812E-01   0.631E-08 -.239E-08 0.861E-08   0.905E-01 0.914E-01 -.572E-01
   -.822E-01 0.822E-01 -.114E+00   0.631E-08 -.802E-09 -.210E-08   0.867E-01 -.867E-01 0.328E-01
   -.467E-02 0.467E-02 0.481E-06   0.631E-08 -.802E-09 0.171E-08   -.440E-02 0.440E-02 0.000E+00
   -.822E-01 0.822E-01 0.114E+00   0.631E-08 -.802E-09 0.861E-08   0.867E-01 -.867E-01 -.328E-01
   0.156E-01 0.156E-01 -.116E+00   0.631E-08 0.631E-08 -.210E-08   -.221E-03 -.221E-03 0.495E-01
   0.146E-01 0.146E-01 0.480E-06   0.631E-08 0.631E-08 0.171E-08   0.412E-02 0.412E-02 0.000E+00
   0.156E-01 0.156E-01 0.116E+00   0.631E-08 0.631E-08 0.861E-08   -.221E-03 -.221E-03 -.495E-01
   0.535E-01 0.535E-01 -.725E-02   -.169E-07 -.169E-07 -.180E-07   -.334E-01 -.334E-01 0.600E-01
   0.535E-01 0.535E-01 0.725E-02   -.169E-07 -.169E-07 -.170E-08   -.334E-01 -.334E-01 -.600E-01
   0.386E+00 0.386E+00 -.256E-05   -.169E-07 -.169E-07 0.115E-07   -.191E+00 -.191E+00 0.000E+00
   -.496E-01 -.848E-01 0.144E-01   -.169E-07 0.802E-09 -.180E-07   0.335E-01 0.553E-01 -.312E-01
   -.496E-01 -.848E-01 -.144E-01   -.169E-07 0.802E-09 -.170E-08   0.335E-01 0.553E-01 0.312E-01
   -.768E-01 -.397E+00 -.252E-05   -.169E-07 0.802E-09 0.115E-07   0.918E-01 0.280E+00 0.159E-18
   -.250E-01 0.250E-01 -.132E+00   -.169E-07 0.130E-07 -.180E-07   0.501E-02 -.501E-02 0.667E-01
   -.250E-01 0.250E-01 0.132E+00   -.169E-07 0.130E-07 -.170E-08   0.501E-02 -.501E-02 -.667E-01
   -.609E-01 0.609E-01 -.261E-05   -.169E-07 0.130E-07 0.115E-07   -.364E-02 0.364E-02 0.000E+00
   -.848E-01 -.496E-01 0.144E-01   0.802E-09 -.169E-07 -.180E-07   0.553E-01 0.335E-01 -.312E-01
   -.848E-01 -.496E-01 -.144E-01   0.802E-09 -.169E-07 -.170E-08   0.553E-01 0.335E-01 0.312E-01
   -.397E+00 -.768E-01 -.252E-05   0.802E-09 -.169E-07 0.115E-07   0.280E+00 0.918E-01 0.000E+00
   0.864E-13 -.628E-12 0.153E-01   0.802E-09 0.802E-09 -.180E-07   0.000E+00 0.000E+00 -.117E+00
   0.177E-10 0.184E-10 -.153E-01   0.802E-09 0.802E-09 -.170E-08   0.000E+00 0.000E+00 0.117E+00
   0.898E-11 0.101E-10 -.247E-05   0.802E-09 0.802E-09 0.115E-07   0.000E+00 0.000E+00 0.424E-21
   0.848E-01 0.496E-01 0.144E-01   0.802E-09 0.130E-07 -.180E-07   -.553E-01 -.335E-01 -.312E-01
   0.848E-01 0.496E-01 -.144E-01   0.802E-09 0.130E-07 -.170E-08   -.553E-01 -.335E-01 0.312E-01
   0.397E+00 0.768E-01 -.252E-05   0.802E-09 0.130E-07 0.115E-07   -.280E+00 -.918E-01 0.000E+00
   0.250E-01 -.250E-01 -.132E+00   0.130E-07 -.169E-07 -.180E-07   -.501E-02 0.501E-02 0.667E-01
   0.250E-01 -.250E-01 0.132E+00   0.130E-07 -.169E-07 -.170E-08   -.501E-02 0.501E-02 -.667E-01
   0.609E-01 -.609E-01 -.261E-05   0.130E-07 -.169E-07 0.115E-07   0.364E-02 -.364E-02 0.000E+00
   0.496E-01 0.848E-01 0.144E-01   0.130E-07 0.802E-09 -.180E-07   -.335E-01 -.553E-01 -.312E-01
   0.496E-01 0.848E-01 -.144E-01   0.130E-07 0.802E-09 -.170E-08   -.335E-01 -.553E-01 0.312E-01
   0.768E-01 0.397E+00 -.252E-05   0.130E-07 0.802E-09 0.115E-07   -.918E-01 -.280E+00 0.159E-18
   -.535E-01 -.535E-01 -.725E-02   0.130E-07 0.130E-07 -.180E-07   0.334E-01 0.334E-01 0.600E-01
   -.535E-01 -.535E-01 0.725E-02   0.130E-07 0.130E-07 -.170E-08   0.334E-01 0.334E-01 -.600E-01
   -.386E+00 -.386E+00 -.256E-05   0.130E-07 0.130E-07 0.115E-07   0.191E+00 0.191E+00 0.000E+00
 -----------------------------------------------------------------------------------------------
   -.449E-07 -.449E-07 -.216E-04   -.614E-13 -.142E-13 0.128E-13   -.833E-16 0.278E-16 0.486E-16
 
 
 POSITION                                       TOTAL-FORCE (eV/Angst)
 -----------------------------------------------------------------------------------
      0.00000      0.00000      0.00000        -0.000000     -0.000000      0.047185
      0.00000      0.00000      3.47664        -0.000000     -0.000000     -0.000000
      0.00000      0.00000      6.95327        -0.000000     -0.000000     -0.047185
      0.00000      2.75005      0.00000         0.025101      0.007636     -0.030500
      0.00000      2.75005      3.47664         0.028792      0.025975     -0.000000
      0.00000      2.75005      6.95327         0.025101      0.007636      0.030500
      0.00000      5.50010      0.00000        -0.025101     -0.007636     -0.030500
      0.00000      5.50010      3.47664        -0.028792     -0.025975     -0.000000
      0.00000      5.50010      6.95327        -0.025101     -0.007636      0.030500
      2.75005      0.00000      0.00000         0.007636      0.025101     -0.030500
      2.75005      0.00000      3.47664         0.025975      0.028792     -0.000000
      2.75005      0.00000      6.95327         0.007636      0.025101      0.030500
      2.75005      2.75005      0.00000        -0.015796     -0.015796     -0.071007
      2.75005      2.75005      3.47664        -0.018784     -0.018784     -0.000000
      2.75005      2.75005      6.95327        -0.015796     -0.015796      0.071007
      2.75005      5.50010      0.00000         0.002620     -0.002620     -0.086414
      2.75005      5.50010      3.47664         0.009054     -0.009054     -0.000000
      2.75005      5.50010      6.95327         0.002620     -0.002620      0.086414
      5.50010      0.00000      0.00000        -0.007636     -0.025101     -0.030500
      5.50010      0.00000      3.47664        -0.025975     -0.028792     -0.000000
      5.50010      0.00000      6.95327        -0.007636     -0.025101      0.030500
      5.50010      2.75005      0.00000        -0.002620      0.002620     -0.086414
      5.50010      2.75005      3.47664        -0.009054      0.009054     -0.000000
      5.50010      2.75005      6.95327        -0.002620      0.002620      0.086414
      5.50010      5.50010      0.00000         0.015796      0.015796     -0.071007
      5.50010      5.50010      3.47664         0.018784      0.018784     -0.000000
      5.50010      5.50010      6.95327         0.015796      0.015796      0.071007
      1.37502      1.37502      1.73832         0.020597      0.020597      0.058823
      1.37502      1.37502      5.21496         0.020597      0.020597     -0.058823
      1.37502      1.37502      8.69159         0.198594      0.198594     -0.000000
      1.37502      4.12507      1.73832        -0.016243     -0.030018     -0.009402
      1.37502      4.12507      5.21496        -0.016243     -0.030018      0.009402
      1.37502      4.12507      8.69159         0.014143     -0.122194     -0.000000
      1.37502      6.87512      1.73832        -0.020003      0.020003     -0.058638
      1.37502      6.87512      5.21496        -0.020003      0.020003      0.058638
      1.37502      6.87512      8.69159        -0.067009      0.067009     -0.000000
      4.12507      1.37502      1.73832        -0.030018     -0.016243     -0.009402
      4.12507      1.37502      5.21496        -0.030018     -0.016243      0.009402
      4.12507      1.37502      8.69159        -0.122194      0.014143     -0.000000
      4.12507      4.12507      1.73832        -0.000000     -0.000000     -0.092488
      4.12507      4.12507      5.21496        -0.000000     -0.000000      0.092488
      4.12507      4.12507      8.69159        -0.000000     -0.000000     -0.000000
      4.12507      6.87512      1.73832         0.030018      0.016243     -0.009402
      4.12507      6.87512      5.21496         0.030018      0.016243      0.009402
      4.12507      6.87512      8.69159         0.122194     -0.014143     -0.000000
      6.87512      1.37502      1.73832         0.020003     -0.020003     -0.058638
      6.87512      1.37502      5.21496         0.020003     -0.020003      0.058638
      6.87512      1.37502      8.69159         0.067009     -0.067009     -0.000000
      6.87512      4.12507      1.73832         0.016243      0.030018     -0.009402
      6.87512      4.12507      5.21496         0.016243      0.030018      0.009402
      6.87512      4.12507      8.69159        -0.014143      0.122194     -0.000000
      6.87512      6.87512      1.73832        -0.020597     -0.020597      0.058823
      6.87512      6.87512      5.21496        -0.020597     -0.020597     -0.058823
      6.87512      6.87512      8.69159        -0.198594     -0.198594     -0.000000
 -----------------------------------------------------------------------------------
    total drift:                               -0.000000     -0.000000     -0.000022


--------------------------------------------------------------------------------------------------------



  FREE ENERGIE OF THE ION-ELECTRON SYSTEM (eV)
  ---------------------------------------------------
  free  energy   TOTEN  =      -356.61090473 eV

  energy  without entropy=     -356.57826804  energy(sigma->0) =     -356.60002583
 


--------------------------------------------------------------------------------------------------------


    POTLOK:  cpu time    1.7637: real time    1.7640


--------------------------------------------------------------------------------------------------------


     LOOP+:  cpu time 2247.7622: real time 2271.3967
    4ORBIT:  cpu time    0.0000: real time    0.0000
 


 total charge     
 
# of ion       s       p       d       tot
------------------------------------------
    1        0.405   0.429   0.000   0.834
    2        0.405   0.428   0.000   0.833
    3        0.405   0.429   0.000   0.834
    4        0.405   0.428   0.000   0.833
    5        0.404   0.429   0.000   0.833
    6        0.405   0.428   0.000   0.832
    7        0.405   0.428   0.000   0.832
    8        0.404   0.429   0.000   0.833
    9        0.405   0.428   0.000   0.833
   10        0.405   0.428   0.000   0.833
   11        0.404   0.429   0.000   0.833
   12        0.405   0.427   0.000   0.833
   13        0.405   0.426   0.000   0.831
   14        0.403   0.430   0.000   0.833
   15        0.405   0.426   0.000   0.831
   16        0.405   0.428   0.000   0.833
   17        0.405   0.430   0.000   0.834
   18        0.405   0.428   0.000   0.833
   19        0.405   0.427   0.000   0.833
   20        0.404   0.429   0.000   0.833
   21        0.405   0.428   0.000   0.833
   22        0.405   0.428   0.000   0.833
   23        0.405   0.430   0.000   0.834
   24        0.405   0.428   0.000   0.833
   25        0.405   0.426   0.000   0.831
   26        0.403   0.430   0.000   0.833
   27        0.405   0.426   0.000   0.831
   28        0.332   0.354   5.135   5.821
   29        0.332   0.353   5.130   5.815
   30        0.337   0.357   5.120   5.814
   31        0.333   0.351   5.137   5.821
   32        0.333   0.352   5.141   5.825
   33        0.334   0.357   5.107   5.798
   34        0.333   0.346   5.149   5.827
   35        0.333   0.346   5.145   5.824
   36        0.335   0.355   5.135   5.825
   37        0.333   0.352   5.131   5.816
   38        0.333   0.352   5.132   5.817
   39        0.335   0.353   5.150   5.838
   40        0.333   0.349   5.139   5.822
   41        0.333   0.349   5.139   5.822
   42        0.333   0.353   5.137   5.823
   43        0.333   0.352   5.132   5.817
   44        0.333   0.352   5.131   5.816
   45        0.335   0.353   5.150   5.838
   46        0.333   0.346   5.145   5.824
   47        0.333   0.346   5.149   5.827
   48        0.335   0.355   5.135   5.825
   49        0.333   0.352   5.141   5.825
   50        0.333   0.351   5.137   5.821
   51        0.334   0.357   5.107   5.798
   52        0.332   0.353   5.130   5.815
   53        0.332   0.354   5.135   5.821
   54        0.337   0.357   5.120   5.814
--------------------------------------------------
tot         19.931  21.067 138.639 179.637
 


 magnetization (x)
 
# of ion       s       p       d       tot
------------------------------------------
    1       -0.008  -0.015   0.000  -0.024
    2       -0.022  -0.041   0.000  -0.063
    3       -0.008  -0.015   0.000  -0.024
    4       -0.005  -0.009   0.000  -0.014
    5       -0.022  -0.038   0.000  -0.060
    6       -0.005  -0.008   0.000  -0.013
    7       -0.005  -0.008   0.000  -0.013
    8       -0.022  -0.038   0.000  -0.060
    9       -0.005  -0.009   0.000  -0.014
   10       -0.005  -0.008   0.000  -0.013
   11       -0.022  -0.038   0.000  -0.060
   12       -0.005  -0.008   0.000  -0.012
   13       -0.001  -0.002   0.000  -0.003
   14       -0.023  -0.035   0.000  -0.058
   15       -0.002  -0.002   0.000  -0.003
   16       -0.003  -0.006   0.000  -0.010
   17       -0.022  -0.041   0.000  -0.063
   18       -0.003  -0.006   0.000  -0.010
   19       -0.005  -0.008   0.000  -0.012
   20       -0.022  -0.038   0.000  -0.060
   21       -0.005  -0.008   0.000  -0.013
   22       -0.003  -0.006   0.000  -0.010
   23       -0.022  -0.041   0.000  -0.063
   24       -0.003  -0.006   0.000  -0.010
   25       -0.002  -0.002   0.000  -0.003
   26       -0.023  -0.035   0.000  -0.058
   27       -0.001  -0.002   0.000  -0.003
   28        0.015   0.026   2.356   2.397
   29        0.016   0.026   2.357   2.398
   30       -0.027  -0.028  -2.412  -2.468
   31        0.018   0.022   2.376   2.416
   32        0.018   0.022   2.373   2.413
   33       -0.018  -0.016  -2.348  -2.382
   34        0.021   0.013   2.354   2.387
   35        0.021   0.013   2.357   2.390
   36        0.031   0.031   2.033   2.095
   37        0.018   0.023   2.382   2.423
   38        0.018   0.022   2.382   2.422
   39       -0.019  -0.018  -2.334  -2.370
   40        0.019   0.018   2.401   2.438
   41        0.019   0.018   2.401   2.438
   42       -0.007  -0.006  -2.214  -2.227
   43        0.018   0.022   2.382   2.422
   44        0.018   0.023   2.382   2.423
   45       -0.019  -0.018  -2.334  -2.370
   46        0.021   0.013   2.357   2.390
   47        0.021   0.013   2.354   2.387
   48        0.031   0.031   2.033   2.095
   49        0.018   0.022   2.373   2.413
   50        0.018   0.022   2.376   2.416
   51       -0.018  -0.016  -2.348  -2.382
   52        0.016   0.026   2.357   2.398
   53        0.015   0.026   2.356   2.397
   54       -0.027  -0.028  -2.412  -2.468
--------------------------------------------------
tot         -0.021  -0.173  30.338  30.144
 

 total amount of memory used by VASP MPI-rank0   941748. kBytes
=======================================================================

   base      :      30000. kBytes
   nonl-proj :      28494. kBytes
   fftplans  :      31580. kBytes
   grid      :      21385. kBytes
   one-center:        435. kBytes
   wavefun   :     829854. kBytes
 
  
  
 General timing and accounting informations for this job:
 ========================================================
  
                  Total CPU time used (sec):     2283.122
                            User time (sec):     2253.557
                          System time (sec):       29.565
                         Elapsed time (sec):     2309.338
  
                   Maximum memory used (kb):     1112764.
                   Average memory used (kb):           0.
  
                          Minor page faults:       743474
                          Major page faults:           17
                 Voluntary context switches:         3125
