 vasp.5.4.4.18Apr17-6-g9f103f2a35 (build Dec 13 2018 10:28:32) complex          
  
 executed on             LinuxIFC date 2019.05.16  10:22:58
 running on   48 total cores
 distrk:  each k-point on   48 cores,    1 groups
 distr:  one band on NCORES_PER_BAND=  24 cores,    2 groups


--------------------------------------------------------------------------------------------------------


 INCAR:
 POTCAR:   PAW_PBE F 08Apr2002                    
 POTCAR:   PAW_PBE Ni 06Sep2000                   
 POTCAR:   PAW_PBE Cs_sv 08Apr2002                

 ----------------------------------------------------------------------------- 
|                                                                             |
|           W    W    AA    RRRRR   N    N  II  N    N   GGGG   !!!           |
|           W    W   A  A   R    R  NN   N  II  NN   N  G    G  !!!           |
|           W    W  A    A  R    R  N N  N  II  N N  N  G       !!!           |
|           W WW W  AAAAAA  RRRRR   N  N N  II  N  N N  G  GGG   !            |
|           WW  WW  A    A  R   R   N   NN  II  N   NN  G    G                |
|           W    W  A    A  R    R  N    N  II  N    N   GGGG   !!!           |
|                                                                             |
|      For optimal performance we recommend to set                            |
|        NCORE= 4 - approx SQRT( number of cores)                             |
|      NCORE specifies how many cores store one orbital (NPAR=cpu/NCORE).     |
|      This setting can  greatly improve the performance of VASP for DFT.     |
|      The default,   NCORE=1            might be grossly inefficient         |
|      on modern multi-core architectures or massively parallel machines.     |
|      Do your own testing !!!!                                               |
|      Unfortunately you need to use the default for GW and RPA calculations. |
|      (for HF NCORE is supported but not extensively tested yet)             |
|                                                                             |
 ----------------------------------------------------------------------------- 

 POTCAR:   PAW_PBE F 08Apr2002                    
   VRHFIN =F: s2p5                                                              
   LEXCH  = PE                                                                  
   EATOM  =   659.4942 eV,   48.4715 Ry                                         
                                                                                
   TITEL  = PAW_PBE F 08Apr2002                                                 
   LULTRA =        F    use ultrasoft PP ?                                      
   IUNSCR =        0    unscreen: 0-lin 1-nonlin 2-no                           
   RPACOR =     .000    partial core radius                                     
   POMASS =   18.998; ZVAL   =    7.000    mass and valenz                      
   RCORE  =    1.520    outmost cutoff radius                                   
   RWIGS  =    1.500; RWIGS  =     .794    wigner-seitz radius (au A)           
   ENMAX  =  400.000; ENMIN  =  300.000 eV                                      
   ICORE  =        2    local potential                                         
   LCOR   =        T    correct aug charges                                     
   LPAW   =        T    paw PP                                                  
   EAUG   =  613.614                                                            
   DEXC   =     .000                                                            
   RMAX   =    2.254    core radius for proj-oper                               
   RAUG   =    1.300    factor for augmentation sphere                          
   RDEP   =    1.539    radius for radial grids                                 
   QCUT   =   -5.545; QGAM   =   11.091    optimization parameters              
                                                                                
   Description                                                                  
     l     E      TYP  RCUT    TYP  RCUT                                        
     0   .000     23  1.200                                                     
     0  -.700     23  1.200                                                     
     1   .000     23  1.520                                                     
     1   .100     23  1.520                                                     
     2   .000      7  1.500                                                     
  local pseudopotential read in
  atomic valenz-charges read in
  non local Contribution for L=           0  read in
    real space projection operators read in
  non local Contribution for L=           0  read in
    real space projection operators read in
  non local Contribution for L=           1  read in
    real space projection operators read in
  non local Contribution for L=           1  read in
    real space projection operators read in
    PAW grid and wavefunctions read in
 
   number of l-projection  operators is LMAX  =           4
   number of lm-projection operators is LMMAX =           8
 
 POTCAR:   PAW_PBE Ni 06Sep2000                   
   VRHFIN =Ni:                                                                  
   LEXCH  = PE                                                                  
   EATOM  =  1077.9025 eV,   79.2236 Ry                                         
                                                                                
   TITEL  = PAW_PBE Ni 06Sep2000                                                
   LULTRA =        F    use ultrasoft PP ?                                      
   IUNSCR =        1    unscreen: 0-lin 1-nonlin 2-no                           
   RPACOR =    2.000    partial core radius                                     
   POMASS =   58.690; ZVAL   =   10.000    mass and valenz                      
   RCORE  =    2.300    outmost cutoff radius                                   
   RWIGS  =    2.430; RWIGS  =    1.286    wigner-seitz radius (au A)           
   ENMAX  =  269.533; ENMIN  =  202.150 eV                                      
   RCLOC  =    1.681    cutoff for local pot                                    
   LCOR   =        T    correct aug charges                                     
   LPAW   =        T    paw PP                                                  
   EAUG   =  544.565                                                            
   DEXC   =    -.009                                                            
   RMAX   =    2.808    core radius for proj-oper                               
   RAUG   =    1.300    factor for augmentation sphere                          
   RDEP   =    2.390    radius for radial grids                                 
   QCUT   =   -4.451; QGAM   =    8.902    optimization parameters              
                                                                                
   Description                                                                  
     l     E      TYP  RCUT    TYP  RCUT                                        
     2   .000     23  2.300                                                     
     2   .000     23  2.300                                                     
     0   .000     23  2.300                                                     
     0   .000     23  2.300                                                     
     1  -.200     23  2.300                                                     
     1   .000     23  2.300                                                     
     3   .000      7   .000                                                     
  local pseudopotential read in
  partial core-charges read in
  atomic valenz-charges read in
  non local Contribution for L=           2  read in
    real space projection operators read in
  non local Contribution for L=           2  read in
    real space projection operators read in
  non local Contribution for L=           0  read in
    real space projection operators read in
  non local Contribution for L=           0  read in
    real space projection operators read in
  non local Contribution for L=           1  read in
    real space projection operators read in
  non local Contribution for L=           1  read in
    real space projection operators read in
    PAW grid and wavefunctions read in
 
   number of l-projection  operators is LMAX  =           6
   number of lm-projection operators is LMMAX =          18
 
 POTCAR:   PAW_PBE Cs_sv 08Apr2002                
   VRHFIN =Cs: 5s5p6s                                                           
   LEXCH  = PE                                                                  
   EATOM  =   555.6835 eV,   40.8416 Ry                                         
                                                                                
   TITEL  = PAW_PBE Cs_sv 08Apr2002                                             
   LULTRA =        F    use ultrasoft PP ?                                      
   IUNSCR =        1    unscreen: 0-lin 1-nonlin 2-no                           
   RPACOR =    2.200    partial core radius                                     
   POMASS =  132.900; ZVAL   =    9.000    mass and valenz                      
   RCORE  =    2.500    outmost cutoff radius                                   
   RWIGS  =    2.500; RWIGS  =    1.323    wigner-seitz radius (au A)           
   ENMAX  =  220.318; ENMIN  =  165.238 eV                                      
   RCLOC  =    2.207    cutoff for local pot                                    
   LCOR   =        T    correct aug charges                                     
   LPAW   =        T    paw PP                                                  
   EAUG   =  407.933                                                            
   DEXC   =    -.004                                                            
   RMAX   =    3.106    core radius for proj-oper                               
   RAUG   =    1.300    factor for augmentation sphere                          
   RDEP   =    2.590    radius for radial grids                                 
   QCUT   =   -4.024; QGAM   =    8.048    optimization parameters              
                                                                                
   Description                                                                  
     l     E      TYP  RCUT    TYP  RCUT                                        
     0   .000     23  1.900                                                     
     0   .000     23  1.900                                                     
     0   .000     23  1.900                                                     
     0   .000     23  1.900                                                     
     1   .000     23  2.500                                                     
     1  -.200     23  2.500                                                     
     2   .000     23  2.500                                                     
  local pseudopotential read in
  partial core-charges read in
  atomic valenz-charges read in
  non local Contribution for L=           0  read in
    real space projection operators read in
  non local Contribution for L=           0  read in
    real space projection operators read in
  non local Contribution for L=           1  read in
    real space projection operators read in
  non local Contribution for L=           1  read in
    real space projection operators read in
  non local Contribution for L=           2  read in
    real space projection operators read in
    PAW grid and wavefunctions read in
 
   number of l-projection  operators is LMAX  =           5
   number of lm-projection operators is LMMAX =          13
 
 PAW_PBE F 08Apr2002                    :
 energy of atom  1       EATOM= -659.4942
 kinetic energy error for atom=    0.0323 (will be added to EATOM!!)
 PAW_PBE Ni 06Sep2000                   :
 energy of atom  2       EATOM=-1077.9025
 kinetic energy error for atom=    0.0030 (will be added to EATOM!!)
 PAW_PBE Cs_sv 08Apr2002                :
 energy of atom  3       EATOM= -555.6835
 kinetic energy error for atom=    0.0016 (will be added to EATOM!!)
 
 
 POSCAR: For VASP. System= small                 
  positions in cartesian coordinates
  velocities in cartesian coordinates
  No initial velocities read in
 exchange correlation table for  LEXCH =        8
   RHO(1)=    0.500       N(1)  =     2000
   RHO(2)=  100.500       N(2)  =     4000
 


--------------------------------------------------------------------------------------------------------


 ion  position               nearest neighbor table
   1  0.570  0.640  0.250-  32 2.04  28 2.04
   2  0.070  0.640  0.250-  31 2.04  27 2.04
   3  0.570  0.140  0.250-  30 2.04  26 2.04
   4  0.070  0.140  0.250-  29 2.04  25 2.04
   5  0.860  0.930  0.250-  29 2.04  25 2.04
   6  0.360  0.930  0.250-  30 2.04  26 2.04
   7  0.860  0.430  0.250-  31 2.04  27 2.04
   8  0.360  0.430  0.250-  32 2.04  28 2.04
   9  0.570  0.930  0.250-  30 2.04  26 2.04
  10  0.070  0.930  0.250-  29 2.04  25 2.04
  11  0.570  0.430  0.250-  32 2.04  28 2.04
  12  0.070  0.430  0.250-  31 2.04  27 2.04
  13  0.930  0.860  0.750-  25 2.04  29 2.04
  14  0.430  0.860  0.750-  26 2.04  30 2.04
  15  0.930  0.360  0.750-  27 2.04  31 2.04
  16  0.430  0.360  0.750-  28 2.04  32 2.04
  17  0.640  0.570  0.750-  28 2.04  32 2.04
  18  0.140  0.570  0.750-  27 2.04  31 2.04
  19  0.640  0.070  0.750-  26 2.04  30 2.04
  20  0.140  0.070  0.750-  25 2.04  29 2.04
  21  0.930  0.570  0.750-  27 2.04  31 2.04
  22  0.430  0.570  0.750-  28 2.04  32 2.04
  23  0.930  0.070  0.750-  25 2.04  29 2.04
  24  0.430  0.070  0.750-  26 2.04  30 2.04
  25  0.000  0.000  0.000-  20 2.04   5 2.04   4 2.04  13 2.04  23 2.04  10 2.04  29 2.66  29 2.66

  26  0.500  0.000  0.000-  19 2.04   6 2.04   3 2.04  14 2.04  24 2.04   9 2.04  30 2.66  30 2.66

  27  1.000  0.500  0.000-  18 2.04   7 2.04  15 2.04   2 2.04  21 2.04  12 2.04  31 2.66  31 2.66

  28  0.500  0.500  0.000-  17 2.04   8 2.04  16 2.04   1 2.04  22 2.04  11 2.04  32 2.66  32 2.66

  29  0.000  0.000  0.500-   5 2.04  20 2.04   4 2.04  13 2.04  10 2.04  23 2.04  25 2.66  25 2.66

  30  0.500  0.000  0.500-   6 2.04  19 2.04   3 2.04  14 2.04   9 2.04  24 2.04  26 2.66  26 2.66

  31  1.000  0.500  0.500-   7 2.04  18 2.04   2 2.04  15 2.04  12 2.04  21 2.04  27 2.66  27 2.66

  32  0.500  0.500  0.500-   8 2.04  17 2.04   1 2.04  16 2.04  11 2.04  22 2.04  28 2.66  28 2.66

  33  0.667  0.833  0.750-
  34  0.167  0.833  0.750-
  35  0.667  0.333  0.750-
  36  0.167  0.333  0.750-
  37  0.833  0.667  0.250-
  38  0.333  0.667  0.250-
  39  0.833  0.167  0.250-
  40  0.333  0.167  0.250-
 
  LATTYP: Found a hexagonal cell.
 ALAT       =    12.7752670119
 C/A-ratio  =     0.4167528495
  
  Lattice vectors:
  
 A1 = (   6.3876227840,  11.0637119627,   0.0000000000)
 A2 = (   6.3876227840, -11.0637119627,   0.0000000000)
 A3 = (   0.0000000000,   0.0000000000,  -5.3241289298)


Analysis of symmetry for initial positions (statically):
=====================================================================
 Subroutine PRICEL returns following result:
 
  LATTYP: Found a hexagonal cell.
 ALAT       =     6.3876335059
 C/A-ratio  =     0.8335056989
  
  Lattice vectors:
  
 A1 = (   3.1938113920,   5.5318559813,   0.0000000000)
 A2 = (   3.1938113920,  -5.5318559813,   0.0000000000)
 A3 = (   0.0000000000,   0.0000000000,  -5.3241289298)
 
   4 primitive cells build up your supercell.
 

 Routine SETGRP: Setting up the symmetry group for a 
 hexagonal supercell.


 Subroutine GETGRP returns: Found  8 space group operations
 (whereof  4 operations were pure point group operations)
 out of a pool of 24 trial point group operations.


The static configuration has the point symmetry C_2h.
 The point group associated with its full space group is D_2h.


Analysis of symmetry for dynamics (positions and initial velocities):
=====================================================================
 Subroutine PRICEL returns following result:
 
  LATTYP: Found a hexagonal cell.
 ALAT       =     6.3876335059
 C/A-ratio  =     0.8335056989
  
  Lattice vectors:
  
 A1 = (   3.1938113920,   5.5318559813,   0.0000000000)
 A2 = (   3.1938113920,  -5.5318559813,   0.0000000000)
 A3 = (   0.0000000000,   0.0000000000,  -5.3241289298)
 
   4 primitive cells build up your supercell.
 

 Routine SETGRP: Setting up the symmetry group for a 
 hexagonal supercell.


 Subroutine GETGRP returns: Found  8 space group operations
 (whereof  4 operations were pure point group operations)
 out of a pool of 24 trial point group operations.


The dynamic configuration has the point symmetry C_2h.
 The point group associated with its full space group is D_2h.


Analysis of structural, dynamic, and magnetic symmetry:
=====================================================================
 Subroutine PRICEL returns:
 Original cell was already a primitive cell.
 

 Routine SETGRP: Setting up the symmetry group for a 
 hexagonal supercell.


 Subroutine GETGRP returns: Found  4 space group operations
 (whereof  4 operations were pure point group operations)
 out of a pool of 24 trial point group operations.


The magnetic configuration has the point symmetry C_2h.


 Subroutine INISYM returns: Found  4 space group operations
 (whereof  4 operations are pure point group operations),
 and found     1 'primitive' translations

 
 
 KPOINTS: Automatic mesh                          

Automatic generation of k-mesh.
Space group operators:
 irot       det(A)        alpha          n_x          n_y          n_z        tau_x        tau_y        tau_z
    1     1.000000     0.000000     1.000000     0.000000     0.000000     0.000000     0.000000     0.000000
    2    -1.000000     0.000000     1.000000     0.000000     0.000000     0.000000     0.000000     0.000000
    3     1.000000   180.000000    -0.500001    -0.866025     0.000000     0.000000     0.000000     0.000000
    4    -1.000000   180.000000    -0.500001    -0.866025     0.000000     0.000000     0.000000     0.000000
 
 Subroutine IBZKPT returns following result:
 ===========================================
 
 Found      9 irreducible k-points:
 
 Following reciprocal coordinates:
            Coordinates               Weight
  0.000000  0.000000  0.000000      1.000000
  0.500000  0.000000  0.000000      2.000000
  0.500000  0.500000  0.000000      1.000000
  0.000000  0.000000  0.250000      2.000000
  0.500000  0.000000  0.250000      4.000000
  0.500000  0.500000  0.250000      2.000000
  0.000000  0.000000  0.500000      1.000000
  0.500000  0.000000  0.500000      2.000000
  0.500000  0.500000  0.500000      1.000000
 
 Following cartesian coordinates:
            Coordinates               Weight
  0.000000  0.000000  0.000000      1.000000
  0.039138  0.022596  0.000000      2.000000
  0.039138  0.067789  0.000000      1.000000
  0.000000  0.000000  0.046956      2.000000
  0.039138  0.022596  0.046956      4.000000
  0.039138  0.067789  0.046956      2.000000
  0.000000  0.000000  0.093912      1.000000
  0.039138  0.022596  0.093912      2.000000
  0.039138  0.067789  0.093912      1.000000
 
 TETIRR: Found     24 inequivalent tetrahedra from       96


--------------------------------------------------------------------------------------------------------




 Dimension of arrays:
   k-points           NKPTS =      9   k-points in BZ     NKDIM =      9   number of bands    NBANDS=    192
   number of dos      NEDOS =    301   number of ions     NIONS =     40
   non local maximal  LDIM  =      6   non local SUM 2l+1 LMDIM =     18
   total plane-waves  NPLWV = 368640
   max r-space proj   IRMAX =   9164   max aug-charges    IRDMAX=   9965
   dimension x,y,z NGX =    96 NGY =   96 NGZ =   40
   dimension x,y,z NGXF=   140 NGYF=  140 NGZF=   60
   support grid    NGXF=   140 NGYF=  140 NGZF=   60
   ions per type =              24   8   8
   NGX,Y,Z   is equivalent  to a cutoff of  12.49, 12.49, 12.49 a.u.
   NGXF,Y,Z  is equivalent  to a cutoff of  18.22, 18.22, 18.74 a.u.

 SYSTEM =  CsNiF3 AF without U                     
 POSCAR =  For VASP. System= small                 

 Startparameter for this run:
   NWRITE =      2    write-flag & timer
   PREC   = high      normal or accurate (medium, high low for compatibility)
   ISTART =      0    job   : 0-new  1-cont  2-samecut
   ICHARG =      2    charge: 1-file 2-atom 10-const
   ISPIN  =      2    spin polarized calculation?
   LNONCOLLINEAR =      F non collinear calculations
   LSORBIT =      F    spin-orbit coupling
   INIWAV =      1    electr: 0-lowe 1-rand  2-diag
   LASPH  =      F    aspherical Exc in radial PAW
   METAGGA=      F    non-selfconsistent MetaGGA calc.

 Electronic Relaxation 1
   ENCUT  =  520.0 eV  38.22 Ry    6.18 a.u.  23.75 23.75  9.90*2*pi/ulx,y,z
   ENINI  =  520.0     initial cutoff
   ENAUG  =  613.6 eV  augmentation charge cutoff
   NELM   =    100;   NELMIN=  2; NELMDL= -5     # of ELM steps 
   EDIFF  = 0.1E-06   stopping-criterion for ELM
   LREAL  =      T    real-space projection
   NLSPLINE    = F    spline interpolate recip. space projectors
   LCOMPAT=      F    compatible to vasp.4.4
   GGA_COMPAT  = T    GGA compatible to vasp.4.4-vasp.4.6
   LMAXPAW     = -100 max onsite density
   LMAXMIX     =    2 max onsite mixed and CHGCAR
   VOSKOWN=      0    Vosko Wilk Nusair interpolation
   ROPT   =    0.00000   0.00000   0.00000
 Ionic relaxation
   EDIFFG = 0.1E-05   stopping-criterion for IOM
   NSW    =      0    number of steps for IOM
   NBLOCK =      1;   KBLOCK =      1    inner block; outer block 
   IBRION =     -1    ionic relax: 0-MD 1-quasi-New 2-CG
   NFREE  =      0    steps in history (QN), initial steepest desc. (CG)
   ISIF   =      2    stress and relaxation
   IWAVPR =     10    prediction:  0-non 1-charg 2-wave 3-comb
   ISYM   =      2    0-nonsym 1-usesym 2-fastsym
   LCORR  =      T    Harris-Foulkes like correction to forces

   POTIM  = 0.5000    time-step for ionic-motion
   TEIN   =    0.0    initial temperature
   TEBEG  =    0.0;   TEEND  =   0.0 temperature during run
   SMASS  =  -3.00    Nose mass-parameter (am)
   estimated Nose-frequenzy (Omega)   =  0.10E-29 period in steps =****** mass=  -0.373E-26a.u.
   SCALEE = 1.0000    scale energy and forces
   NPACO  =    256;   APACO  = 16.0  distance and # of slots for P.C.
   PSTRESS=    0.0 pullay stress

  Mass of Ions in am
   POMASS =  19.00 58.69132.90
  Ionic Valenz
   ZVAL   =   7.00 10.00  9.00
  Atomic Wigner-Seitz radii
   RWIGS  =  -1.00 -1.00 -1.00
  virtual crystal weights 
   VCA    =   1.00  1.00  1.00
   NELECT =     320.0000    total number of electrons
   NUPDOWN=      -1.0000    fix difference up-down

 DOS related values:
   EMIN   =  10.00;   EMAX   =-10.00  energy-range for DOS
   EFERMI =   0.00
   ISMEAR =    -5;   SIGMA  =   0.20  broadening in eV -4-tet -1-fermi 0-gaus

 Electronic relaxation 2 (details)
   IALGO  =     38    algorithm
   LDIAG  =      T    sub-space diagonalisation (order eigenvalues)
   LSUBROT=      F    optimize rotation matrix (better conditioning)
   TURBO    =      0    0=normal 1=particle mesh
   IRESTART =      0    0=no restart 2=restart with 2 vectors
   NREBOOT  =      0    no. of reboots
   NMIN     =      0    reboot dimension
   EREF     =   0.00    reference energy to select bands
   IMIX   =      4    mixing-type and parameters
     AMIX     =   0.40;   BMIX     =  1.00
     AMIX_MAG =   1.60;   BMIX_MAG =  1.00
     AMIN     =   0.10
     WC   =   100.;   INIMIX=   1;  MIXPRE=   1;  MAXMIX= -45

 Intra band minimization:
   WEIMIN = 0.0000     energy-eigenvalue tresh-hold
   EBREAK =  0.13E-09  absolut break condition
   DEPER  =   0.30     relativ break condition  

   TIME   =   0.40     timestep for ELM

  volume/ion in A,a.u.               =      18.81       126.96
  Fermi-wavevector in a.u.,A,eV,Ry     =   1.231077  2.326398 20.620322  1.515551
  Thomas-Fermi vector in A             =   2.365901
 
 Write flags
   LWAVE        =      F    write WAVECAR
   LDOWNSAMPLE  =      F    k-point downsampling of WAVECAR
   LCHARG       =      F    write CHGCAR
   LVTOT        =      F    write LOCPOT, total local potential
   LVHAR        =      F    write LOCPOT, Hartree potential only
   LELF         =      F    write electronic localiz. function (ELF)
   LORBIT       =     11    0 simple, 1 ext, 2 COOP (PROOUT), +10 PAW based schemes


 Dipole corrections
   LMONO  =      F    monopole corrections only (constant potential shift)
   LDIPOL =      F    correct potential (dipole corrections)
   IDIPOL =      0    1-x, 2-y, 3-z, 4-all directions 
   EPSILON=  1.0000000 bulk dielectric constant

 Exchange correlation treatment:
   GGA     =    --    GGA type
   LEXCH   =     8    internal setting for exchange type
   VOSKOWN=      0    Vosko Wilk Nusair interpolation
   LHFCALC =     F    Hartree Fock is set to
   LHFONE  =     F    Hartree Fock one center treatment
   AEXX    =    0.0000 exact exchange contribution

 Linear response parameters
   LEPSILON=     F    determine dielectric tensor
   LRPA    =     F    only Hartree local field effects (RPA)
   LNABLA  =     F    use nabla operator in PAW spheres
   LVEL    =     F    velocity operator in full k-point grid
   LINTERFAST=   F  fast interpolation
   KINTER  =     0    interpolate to denser k-point grid
   CSHIFT  =0.1000    complex shift for real part using Kramers Kronig
   OMEGAMAX=  -1.0    maximum frequency
   DEG_THRESHOLD= 0.2000000E-02 threshold for treating states as degnerate
   RTIME   =   -0.100 relaxation time in fs
  (WPLASMAI=    0.000 imaginary part of plasma frequency in eV, 0.658/RTIME)
   DFIELD  = 0.0000000 0.0000000 0.0000000 field for delta impulse in time
 
 Orbital magnetization related:
   ORBITALMAG=     F  switch on orbital magnetization
   LCHIMAG   =     F  perturbation theory with respect to B field
   DQ        =  0.001000  dq finite difference perturbation B field
   LLRAUG    =     F  two centre corrections for induced B field



--------------------------------------------------------------------------------------------------------


 Static calculation
 charge density and potential will be updated during run
 spin polarized calculation
 Variant of blocked Davidson
 Davidson routine will perform the subspace rotation
 perform sub-space diagonalisation
    after iterative eigenvector-optimisation
 modified Broyden-mixing scheme, WC =      100.0
 initial mixing is a Kerker type mixing with AMIX =  0.4000 and BMIX =      1.0000
 Hartree-type preconditioning will be used
 using additional bands           32
 real space projection scheme for non local part
 use partial core corrections
 calculate Harris-corrections to forces 
   (improved forces if not selfconsistent)
 use gradient corrections 
 use of overlap-Matrix (Vanderbilt PP)
 Fermi weights with tetrahedron method with Bloechl corrections


--------------------------------------------------------------------------------------------------------


  energy-cutoff  :      520.00
  volume of cell :      752.52
      direct lattice vectors                 reciprocal lattice vectors
    12.775245568  0.000000000  0.000000000     0.078276382  0.045192789  0.000000000
    -6.387622784 11.063711963  0.000000000     0.000000000  0.090385578  0.000000000
     0.000000000  0.000000000  5.324128930     0.000000000  0.000000000  0.187824152

  length of vectors
    12.775245568 12.775267012  5.324128930     0.090385730  0.090385578  0.187824152


 
 k-points in units of 2pi/SCALE and weight: Automatic mesh                          
   0.00000000  0.00000000  0.00000000       0.062
   0.03913819  0.02259639  0.00000000       0.125
   0.03913819  0.06778918  0.00000000       0.062
   0.00000000  0.00000000  0.04695604       0.125
   0.03913819  0.02259639  0.04695604       0.250
   0.03913819  0.06778918  0.04695604       0.125
   0.00000000  0.00000000  0.09391208       0.062
   0.03913819  0.02259639  0.09391208       0.125
   0.03913819  0.06778918  0.09391208       0.062
 
 k-points in reciprocal lattice and weights: Automatic mesh                          
   0.00000000  0.00000000  0.00000000       0.062
   0.50000000  0.00000000  0.00000000       0.125
   0.50000000  0.50000000  0.00000000       0.062
   0.00000000  0.00000000  0.25000000       0.125
   0.50000000  0.00000000  0.25000000       0.250
   0.50000000  0.50000000  0.25000000       0.125
   0.00000000  0.00000000  0.50000000       0.062
   0.50000000  0.00000000  0.50000000       0.125
   0.50000000  0.50000000  0.50000000       0.062
 
 position of ions in fractional coordinates (direct lattice) 
   0.57007855  0.64016376  0.25000000
   0.07007855  0.64016376  0.25000000
   0.57007855  0.14016376  0.25000000
   0.07007855  0.14016376  0.25000000
   0.85983624  0.92992145  0.25000000
   0.35983624  0.92992145  0.25000000
   0.85983624  0.42992145  0.25000000
   0.35983624  0.42992145  0.25000000
   0.57008349  0.92991651  0.25000000
   0.07008349  0.92991651  0.25000000
   0.57008349  0.42991651  0.25000000
   0.07008349  0.42991651  0.25000000
   0.92992145  0.85983624  0.75000000
   0.42992145  0.85983624  0.75000000
   0.92992145  0.35983624  0.75000000
   0.42992145  0.35983624  0.75000000
   0.64016376  0.57007855  0.75000000
   0.14016376  0.57007855  0.75000000
   0.64016376  0.07007855  0.75000000
   0.14016376  0.07007855  0.75000000
   0.92991651  0.57008349  0.75000000
   0.42991651  0.57008349  0.75000000
   0.92991651  0.07008349  0.75000000
   0.42991651  0.07008349  0.75000000
   0.00000000  0.00000000  0.00000000
   0.50000000  0.00000000  0.00000000
   1.00000000  0.50000000  0.00000000
   0.50000000  0.50000000  0.00000000
   0.00000000  0.00000000  0.50000000
   0.50000000  0.00000000  0.50000000
   1.00000000  0.50000000  0.50000000
   0.50000000  0.50000000  0.50000000
   0.66666713  0.83333287  0.75000000
   0.16666713  0.83333287  0.75000000
   0.66666713  0.33333287  0.75000000
   0.16666713  0.33333287  0.75000000
   0.83333287  0.66666713  0.25000000
   0.33333287  0.66666713  0.25000000
   0.83333287  0.16666713  0.25000000
   0.33333287  0.16666713  0.25000000
 
 position of ions in cartesian coordinates  (Angst):
   3.19376888  7.08258743  1.33103223
  -3.19385391  7.08258743  1.33103223
   6.38758027  1.55073145  1.33103223
  -0.00004252  1.55073145  1.33103223
   5.04463170 10.28838306  1.33103223
  -1.34299108 10.28838306  1.33103223
   8.23844310  4.75652708  1.33103223
   1.85082031  4.75652708  1.33103223
   1.34300064 10.28832845  1.33103223
  -5.04462215 10.28832845  1.33103223
   4.53681203  4.75647247  1.33103223
  -1.85081076  4.75647247  1.33103223
   6.38766530  9.51298052  3.99309670
   0.00004252  9.51298052  3.99309670
   9.58147669  3.98112454  3.99309670
   3.19385391  3.98112454  3.99309670
   4.53680247  6.30718488  3.99309670
  -1.85082031  6.30718488  3.99309670
   7.73061386  0.77532890  3.99309670
   1.34299108  0.77532890  3.99309670
   8.23843354  6.30723949  3.99309670
   1.85081076  6.30723949  3.99309670
  11.43224493  0.77538351  3.99309670
   5.04462215  0.77538351  3.99309670
   0.00000000  0.00000000  0.00000000
   6.38762278  0.00000000  0.00000000
   9.58143418  5.53185598  0.00000000
   3.19381139  5.53185598  0.00000000
   0.00000000  0.00000000  2.66206446
   6.38762278  0.00000000  2.66206446
   9.58143418  5.53185598  2.66206446
   3.19381139  5.53185598  2.66206446
   3.19382031  9.21975482  3.99309670
  -3.19380247  9.21975482  3.99309670
   6.38763170  3.68789884  3.99309670
   0.00000892  3.68789884  3.99309670
   6.38761387  7.37581312  1.33103223
  -0.00000892  7.37581312  1.33103223
   9.58142526  1.84395714  1.33103223
   3.19380247  1.84395714  1.33103223
 


--------------------------------------------------------------------------------------------------------


 k-point  1 :   0.0000 0.0000 0.0000  plane waves:   20197
 k-point  2 :   0.5000 0.0000 0.0000  plane waves:   20226
 k-point  3 :   0.5000 0.5000 0.0000  plane waves:   20226
 k-point  4 :   0.0000 0.0000 0.2500  plane waves:   20294
 k-point  5 :   0.5000 0.0000 0.2500  plane waves:   20258
 k-point  6 :   0.5000 0.5000 0.2500  plane waves:   20258
 k-point  7 :   0.0000 0.0000 0.5000  plane waves:   20240
 k-point  8 :   0.5000 0.0000 0.5000  plane waves:   20320
 k-point  9 :   0.5000 0.5000 0.5000  plane waves:   20320

 maximum and minimum number of plane-waves per node :       882      806

 maximum number of plane-waves:     20320
 maximum index in each direction: 
   IXMAX=   23   IYMAX=   23   IZMAX=    9
   IXMIN=  -24   IYMIN=  -24   IZMIN=  -10


 real space projection operators:
  total allocation   :      19689.81 KBytes
  max/ min on nodes  :        844.06        757.81


 parallel 3D FFT for wavefunctions:
    minimum data exchange during FFTs selected (reduces bandwidth)
 parallel 3D FFT for charge:
    minimum data exchange during FFTs selected (reduces bandwidth)


 total amount of memory used by VASP MPI-rank0    66568. kBytes
=======================================================================

   base      :      30000. kBytes
   nonlr-proj:       7318. kBytes
   fftplans  :       1395. kBytes
   grid      :       3519. kBytes
   one-center:         62. kBytes
   wavefun   :      24274. kBytes
 
     INWAV:  cpu time    0.0000: real time    0.0000
 Broyden mixing: mesh for mixing (old mesh)
   NGX = 47   NGY = 47   NGZ = 19
  (NGX  =140   NGY  =140   NGZ  = 60)
  gives a total of  41971 points

 initial charge density was supplied:
 charge density of overlapping atoms calculated
 number of electron     320.0000000 magnetization      -0.0000000
 keeping initial charge density in first step


--------------------------------------------------------------------------------------------------------


 Maximum index for non-local projection operator          385
 Maximum index for augmentation-charges          493 (set IRDMAX)


--------------------------------------------------------------------------------------------------------


 First call to EWALD:  gamma=   0.195
 Maximum number of real-space cells 2x 2x 4
 Maximum number of reciprocal cells 4x 4x 2

    FEWALD:  cpu time    0.0021: real time    0.0021


--------------------------------------- Iteration      1(   1)  ---------------------------------------


    POTLOK:  cpu time    0.0499: real time    0.0518
    SETDIJ:  cpu time    0.0075: real time    0.0075
     EDDAV:  cpu time    8.0406: real time    8.0499
 BZINTS: Fermi energy: 20.058272;320.000000 electrons
         Band energy:1696.057905;  BLOECHL correction: -0.051920
       DOS:  cpu time    0.0123: real time    0.0123
    --------------------------------------------
      LOOP:  cpu time    8.1103: real time    8.1215

 eigenvalue-minimisations  :  6912
 total energy-change (2. order) : 0.3969056E+04  (-0.1462811E+05)
 number of electron     320.0000000 magnetization      -0.0000000
 augmentation part      320.0000000 magnetization      -0.0000000

 Free energy of the ion-electron system (eV)
  ---------------------------------------------------
  alpha Z        PSCENC =      1278.33848294
  Ewald energy   TEWEN  =    -16011.11606870
  -Hartree energ DENC   =    -12510.24273293
  -exchange      EXHF   =         0.00000000
  -V(xc)+E(xc)   XCENC  =      1221.37238670
  PAW double counting   =     19640.54138542   -20241.63226317
  entropy T*S    EENTRO =         0.00000000
  eigenvalues    EBANDS =      1696.05790484
  atomic energy  EATOM  =     28895.73697308
  Solvation  Ediel_sol  =         0.00000000
  ---------------------------------------------------
  free energy    TOTEN  =      3969.05606818 eV

  energy without entropy =     3969.05606818  energy(sigma->0) =     3969.05606818


--------------------------------------------------------------------------------------------------------




--------------------------------------- Iteration      1(   2)  ---------------------------------------


     EDDAV:  cpu time    8.3289: real time    8.3984
 BZINTS: Fermi energy:  5.593153;320.000000 electrons
         Band energy:***********;  BLOECHL correction: -0.085594
       DOS:  cpu time    0.0123: real time    0.0123
    --------------------------------------------
      LOOP:  cpu time    8.3412: real time    8.4108

 eigenvalue-minimisations  :  7448
 total energy-change (2. order) :-0.3479790E+04  (-0.3223403E+04)
 number of electron     320.0000000 magnetization      -0.0000000
 augmentation part      320.0000000 magnetization      -0.0000000

 Free energy of the ion-electron system (eV)
  ---------------------------------------------------
  alpha Z        PSCENC =      1278.33848294
  Ewald energy   TEWEN  =    -16011.11606870
  -Hartree energ DENC   =    -12510.24273293
  -exchange      EXHF   =         0.00000000
  -V(xc)+E(xc)   XCENC  =      1221.37238670
  PAW double counting   =     19640.54138542   -20241.63226317
  entropy T*S    EENTRO =         0.00000000
  eigenvalues    EBANDS =     -1783.73249644
  atomic energy  EATOM  =     28895.73697308
  Solvation  Ediel_sol  =         0.00000000
  ---------------------------------------------------
  free energy    TOTEN  =       489.26566690 eV

  energy without entropy =      489.26566690  energy(sigma->0) =      489.26566690


--------------------------------------------------------------------------------------------------------




--------------------------------------- Iteration      1(   3)  ---------------------------------------


     EDDAV:  cpu time    8.3469: real time    8.3753
 BZINTS: Fermi energy:  3.567611;320.000000 electrons
         Band energy:***********;  BLOECHL correction:  0.000000
       DOS:  cpu time    0.0024: real time    0.0024
    --------------------------------------------
      LOOP:  cpu time    8.3492: real time    8.3777

 eigenvalue-minimisations  :  7496
 total energy-change (2. order) :-0.6597164E+03  (-0.6400485E+03)
 number of electron     320.0000000 magnetization      -0.0000000
 augmentation part      320.0000000 magnetization      -0.0000000

 Free energy of the ion-electron system (eV)
  ---------------------------------------------------
  alpha Z        PSCENC =      1278.33848294
  Ewald energy   TEWEN  =    -16011.11606870
  -Hartree energ DENC   =    -12510.24273293
  -exchange      EXHF   =         0.00000000
  -V(xc)+E(xc)   XCENC  =      1221.37238670
  PAW double counting   =     19640.54138542   -20241.63226317
  entropy T*S    EENTRO =         0.00000000
  eigenvalues    EBANDS =     -2443.44886108
  atomic energy  EATOM  =     28895.73697308
  Solvation  Ediel_sol  =         0.00000000
  ---------------------------------------------------
  free energy    TOTEN  =      -170.45069774 eV

  energy without entropy =     -170.45069774  energy(sigma->0) =     -170.45069774


--------------------------------------------------------------------------------------------------------




--------------------------------------- Iteration      1(   4)  ---------------------------------------


     EDDAV:  cpu time    8.8326: real time    8.8716
 BZINTS: Fermi energy:  3.153088;320.000000 electrons
         Band energy:***********;  BLOECHL correction:  0.000000
       DOS:  cpu time    0.0021: real time    0.0021
    --------------------------------------------
      LOOP:  cpu time    8.8347: real time    8.8737

 eigenvalue-minimisations  :  7984
 total energy-change (2. order) :-0.3834587E+02  (-0.3748857E+02)
 number of electron     320.0000000 magnetization      -0.0000000
 augmentation part      320.0000000 magnetization      -0.0000000

 Free energy of the ion-electron system (eV)
  ---------------------------------------------------
  alpha Z        PSCENC =      1278.33848294
  Ewald energy   TEWEN  =    -16011.11606870
  -Hartree energ DENC   =    -12510.24273293
  -exchange      EXHF   =         0.00000000
  -V(xc)+E(xc)   XCENC  =      1221.37238670
  PAW double counting   =     19640.54138542   -20241.63226317
  entropy T*S    EENTRO =         0.00000000
  eigenvalues    EBANDS =     -2481.79473187
  atomic energy  EATOM  =     28895.73697308
  Solvation  Ediel_sol  =         0.00000000
  ---------------------------------------------------
  free energy    TOTEN  =      -208.79656853 eV

  energy without entropy =     -208.79656853  energy(sigma->0) =     -208.79656853


--------------------------------------------------------------------------------------------------------




--------------------------------------- Iteration      1(   5)  ---------------------------------------


     EDDAV:  cpu time    9.2664: real time    9.2829
 BZINTS: Fermi energy:  3.166946;320.000000 electrons
         Band energy:***********;  BLOECHL correction:  0.000000
       DOS:  cpu time    0.0027: real time    0.0027
    CHARGE:  cpu time    0.4041: real time    0.4100
    MIXING:  cpu time    0.0012: real time    0.0012
    --------------------------------------------
      LOOP:  cpu time    9.6744: real time    9.6969

 eigenvalue-minimisations  :  8520
 total energy-change (2. order) :-0.1496181E+01  (-0.1488232E+01)
 number of electron     320.0000870 magnetization       0.0000000
 augmentation part       64.6357356 magnetization       0.0011472

 Broyden mixing:
  rms(total) = 0.37583E+01    rms(broyden)= 0.37541E+01
  rms(prec ) = 0.46478E+01
  weight for this iteration     100.00

 Free energy of the ion-electron system (eV)
  ---------------------------------------------------
  alpha Z        PSCENC =      1278.33848294
  Ewald energy   TEWEN  =    -16011.11606870
  -Hartree energ DENC   =    -12510.24273293
  -exchange      EXHF   =         0.00000000
  -V(xc)+E(xc)   XCENC  =      1221.37238670
  PAW double counting   =     19640.54138542   -20241.63226317
  entropy T*S    EENTRO =         0.00000000
  eigenvalues    EBANDS =     -2483.29091276
  atomic energy  EATOM  =     28895.73697308
  Solvation  Ediel_sol  =         0.00000000
  ---------------------------------------------------
  free energy    TOTEN  =      -210.29274942 eV

  energy without entropy =     -210.29274942  energy(sigma->0) =     -210.29274942


--------------------------------------------------------------------------------------------------------




--------------------------------------- Iteration      1(   6)  ---------------------------------------


    POTLOK:  cpu time    0.0476: real time    0.0498
    SETDIJ:  cpu time    0.0070: real time    0.0070
     EDDAV:  cpu time   10.2082: real time   10.2318
 BZINTS: Fermi energy: -0.946066;320.000000 electrons
         Band energy:***********;  BLOECHL correction:  0.000000
       DOS:  cpu time    0.0025: real time    0.0025
    CHARGE:  cpu time    0.3698: real time    0.3698
    MIXING:  cpu time    0.0012: real time    0.0012
    --------------------------------------------
      LOOP:  cpu time   10.6363: real time   10.6622

 eigenvalue-minimisations  :  9632
 total energy-change (2. order) : 0.2763997E+02  (-0.2077903E+02)
 number of electron     320.0000824 magnetization       0.0000000
 augmentation part       66.2402690 magnetization       0.0016198

 Broyden mixing:
  rms(total) = 0.19103E+01    rms(broyden)= 0.19086E+01
  rms(prec ) = 0.20551E+01
  weight for this iteration     100.00

 eigenvalues of (default mixing * dielectric matrix)
  average eigenvalue GAMMA=   0.6242
  0.6242

 Free energy of the ion-electron system (eV)
  ---------------------------------------------------
  alpha Z        PSCENC =      1278.33848294
  Ewald energy   TEWEN  =    -16011.11606870
  -Hartree energ DENC   =    -12664.08126189
  -exchange      EXHF   =         0.00000000
  -V(xc)+E(xc)   XCENC  =      1242.61259394
  PAW double counting   =     20159.47048323   -20732.67454773
  entropy T*S    EENTRO =         0.00000000
  eigenvalues    EBANDS =     -2350.93943839
  atomic energy  EATOM  =     28895.73697308
  Solvation  Ediel_sol  =         0.00000000
  ---------------------------------------------------
  free energy    TOTEN  =      -182.65278352 eV

  energy without entropy =     -182.65278352  energy(sigma->0) =     -182.65278352


--------------------------------------------------------------------------------------------------------




--------------------------------------- Iteration      1(   7)  ---------------------------------------


    POTLOK:  cpu time    0.0478: real time    0.0495
    SETDIJ:  cpu time    0.0076: real time    0.0076
     EDDAV:  cpu time   10.3514: real time   10.3713
 BZINTS: Fermi energy:  0.197880;320.000000 electrons
         Band energy:***********;  BLOECHL correction:  0.000000
       DOS:  cpu time    0.0026: real time    0.0026
    CHARGE:  cpu time    0.3691: real time    0.3692
    MIXING:  cpu time    0.0011: real time    0.0011
    --------------------------------------------
      LOOP:  cpu time   10.7797: real time   10.8014

 eigenvalue-minimisations  :  9720
 total energy-change (2. order) :-0.3652272E-01  (-0.2913735E+01)
 number of electron     320.0000823 magnetization       0.0000000
 augmentation part       64.3183213 magnetization      -0.0002754

 Broyden mixing:
  rms(total) = 0.84387E+00    rms(broyden)= 0.84371E+00
  rms(prec ) = 0.91713E+00
  weight for this iteration     100.00

 eigenvalues of (default mixing * dielectric matrix)
  average eigenvalue GAMMA=   0.6617
  0.6617  0.6617

 Free energy of the ion-electron system (eV)
  ---------------------------------------------------
  alpha Z        PSCENC =      1278.33848294
  Ewald energy   TEWEN  =    -16011.11606870
  -Hartree energ DENC   =    -12691.17621865
  -exchange      EXHF   =         0.00000000
  -V(xc)+E(xc)   XCENC  =      1238.84265858
  PAW double counting   =     20309.97273546   -20914.02518239
  entropy T*S    EENTRO =         0.00000000
  eigenvalues    EBANDS =     -2289.26268657
  atomic energy  EATOM  =     28895.73697308
  Solvation  Ediel_sol  =         0.00000000
  ---------------------------------------------------
  free energy    TOTEN  =      -182.68930625 eV

  energy without entropy =     -182.68930625  energy(sigma->0) =     -182.68930625


--------------------------------------------------------------------------------------------------------




--------------------------------------- Iteration      1(   8)  ---------------------------------------


    POTLOK:  cpu time    0.0469: real time    0.0485
    SETDIJ:  cpu time    0.0070: real time    0.0070
     EDDAV:  cpu time    9.3025: real time    9.3753
 BZINTS: Fermi energy:  0.235126;320.000000 electrons
         Band energy:***********;  BLOECHL correction:  0.000000
       DOS:  cpu time    0.0023: real time    0.0023
    CHARGE:  cpu time    0.3899: real time    0.3899
    MIXING:  cpu time    0.0011: real time    0.0011
    --------------------------------------------
      LOOP:  cpu time    9.7496: real time    9.8241

 eigenvalue-minimisations  :  8624
 total energy-change (2. order) :-0.3263701E+00  (-0.3968186E+00)
 number of electron     320.0000828 magnetization       0.0000000
 augmentation part       64.4114779 magnetization       0.0000924

 Broyden mixing:
  rms(total) = 0.45524E+00    rms(broyden)= 0.45514E+00
  rms(prec ) = 0.53160E+00
  weight for this iteration     100.00

 eigenvalues of (default mixing * dielectric matrix)
  average eigenvalue GAMMA=   1.0794
  1.8538  0.6921  0.6921

 Free energy of the ion-electron system (eV)
  ---------------------------------------------------
  alpha Z        PSCENC =      1278.33848294
  Ewald energy   TEWEN  =    -16011.11606870
  -Hartree energ DENC   =    -12677.12112087
  -exchange      EXHF   =         0.00000000
  -V(xc)+E(xc)   XCENC  =      1238.47892756
  PAW double counting   =     20358.33097083   -20968.60209772
  entropy T*S    EENTRO =         0.00000000
  eigenvalues    EBANDS =     -2297.06174342
  atomic energy  EATOM  =     28895.73697308
  Solvation  Ediel_sol  =         0.00000000
  ---------------------------------------------------
  free energy    TOTEN  =      -183.01567630 eV

  energy without entropy =     -183.01567630  energy(sigma->0) =     -183.01567630


--------------------------------------------------------------------------------------------------------




--------------------------------------- Iteration      1(   9)  ---------------------------------------


    POTLOK:  cpu time    0.0491: real time    0.0505
    SETDIJ:  cpu time    0.0069: real time    0.0069
     EDDAV:  cpu time    9.7352: real time    9.7617
 BZINTS: Fermi energy:  0.082127;320.000000 electrons
         Band energy:***********;  BLOECHL correction:  0.000000
       DOS:  cpu time    0.0022: real time    0.0022
    CHARGE:  cpu time    0.3908: real time    0.3910
    MIXING:  cpu time    0.0012: real time    0.0012
    --------------------------------------------
      LOOP:  cpu time   10.1855: real time   10.2136

 eigenvalue-minimisations  :  9128
 total energy-change (2. order) : 0.1094504E+00  (-0.6003263E-01)
 number of electron     320.0000824 magnetization       0.0000000
 augmentation part       64.5994544 magnetization       0.0007017

 Broyden mixing:
  rms(total) = 0.19532E+00    rms(broyden)= 0.19527E+00
  rms(prec ) = 0.21303E+00
  weight for this iteration     100.00

 eigenvalues of (default mixing * dielectric matrix)
  average eigenvalue GAMMA=   1.1146
  2.4660  0.7763  0.6081  0.6081

 Free energy of the ion-electron system (eV)
  ---------------------------------------------------
  alpha Z        PSCENC =      1278.33848294
  Ewald energy   TEWEN  =    -16011.11606870
  -Hartree energ DENC   =    -12686.35667402
  -exchange      EXHF   =         0.00000000
  -V(xc)+E(xc)   XCENC  =      1239.93478428
  PAW double counting   =     20534.37709654   -21156.78198303
  entropy T*S    EENTRO =         0.00000000
  eigenvalues    EBANDS =     -2277.03883697
  atomic energy  EATOM  =     28895.73697308
  Solvation  Ediel_sol  =         0.00000000
  ---------------------------------------------------
  free energy    TOTEN  =      -182.90622587 eV

  energy without entropy =     -182.90622587  energy(sigma->0) =     -182.90622587


--------------------------------------------------------------------------------------------------------




--------------------------------------- Iteration      1(  10)  ---------------------------------------


    POTLOK:  cpu time    0.0490: real time    0.0529
    SETDIJ:  cpu time    0.0069: real time    0.0069
     EDDAV:  cpu time    9.7258: real time    9.7623
 BZINTS: Fermi energy:  0.144090;320.000000 electrons
         Band energy:***********;  BLOECHL correction:  0.000000
       DOS:  cpu time    0.0023: real time    0.0023
    CHARGE:  cpu time    0.3911: real time    0.3911
    MIXING:  cpu time    0.0046: real time    0.0046
    --------------------------------------------
      LOOP:  cpu time   10.1798: real time   10.2201

 eigenvalue-minimisations  :  9136
 total energy-change (2. order) :-0.2006862E-01  (-0.2330647E-01)
 number of electron     320.0000826 magnetization       0.0000000
 augmentation part       64.4889716 magnetization       0.0001103

 Broyden mixing:
  rms(total) = 0.63428E-01    rms(broyden)= 0.63407E-01
  rms(prec ) = 0.77363E-01
  weight for this iteration     100.00

 eigenvalues of (default mixing * dielectric matrix)
  average eigenvalue GAMMA=   1.1053
  2.4492  1.0987  0.6611  0.6611  0.6563

 Free energy of the ion-electron system (eV)
  ---------------------------------------------------
  alpha Z        PSCENC =      1278.33848294
  Ewald energy   TEWEN  =    -16011.11606870
  -Hartree energ DENC   =    -12692.19559960
  -exchange      EXHF   =         0.00000000
  -V(xc)+E(xc)   XCENC  =      1239.99607475
  PAW double counting   =     20558.41816125   -21184.29514398
  entropy T*S    EENTRO =         0.00000000
  eigenvalues    EBANDS =     -2267.80917423
  atomic energy  EATOM  =     28895.73697308
  Solvation  Ediel_sol  =         0.00000000
  ---------------------------------------------------
  free energy    TOTEN  =      -182.92629449 eV

  energy without entropy =     -182.92629449  energy(sigma->0) =     -182.92629449


--------------------------------------------------------------------------------------------------------




--------------------------------------- Iteration      1(  11)  ---------------------------------------


    POTLOK:  cpu time    0.0478: real time    0.0505
    SETDIJ:  cpu time    0.0070: real time    0.0070
     EDDAV:  cpu time   10.3890: real time   10.4143
 BZINTS: Fermi energy:  0.166651;320.000000 electrons
         Band energy:***********;  BLOECHL correction:  0.000000
       DOS:  cpu time    0.0020: real time    0.0020
    CHARGE:  cpu time    0.3684: real time    0.3685
    MIXING:  cpu time    0.0014: real time    0.0014
    --------------------------------------------
      LOOP:  cpu time   10.8155: real time   10.8436

 eigenvalue-minimisations  :  9896
 total energy-change (2. order) :-0.1783073E-02  (-0.3632493E-02)
 number of electron     320.0000827 magnetization       0.0000000
 augmentation part       64.4639242 magnetization      -0.0000618

 Broyden mixing:
  rms(total) = 0.23546E-01    rms(broyden)= 0.23479E-01
  rms(prec ) = 0.27842E-01
  weight for this iteration     100.00

 eigenvalues of (default mixing * dielectric matrix)
  average eigenvalue GAMMA=   1.1239
  2.4422  1.4026  0.9279  0.6619  0.6619  0.6469

 Free energy of the ion-electron system (eV)
  ---------------------------------------------------
  alpha Z        PSCENC =      1278.33848294
  Ewald energy   TEWEN  =    -16011.11606870
  -Hartree energ DENC   =    -12693.69096225
  -exchange      EXHF   =         0.00000000
  -V(xc)+E(xc)   XCENC  =      1239.87213178
  PAW double counting   =     20555.12095883   -21181.45828316
  entropy T*S    EENTRO =         0.00000000
  eigenvalues    EBANDS =     -2265.73131010
  atomic energy  EATOM  =     28895.73697308
  Solvation  Ediel_sol  =         0.00000000
  ---------------------------------------------------
  free energy    TOTEN  =      -182.92807757 eV

  energy without entropy =     -182.92807757  energy(sigma->0) =     -182.92807757


--------------------------------------------------------------------------------------------------------




--------------------------------------- Iteration      1(  12)  ---------------------------------------


    POTLOK:  cpu time    0.0484: real time    0.0506
    SETDIJ:  cpu time    0.0069: real time    0.0069
     EDDAV:  cpu time    8.2875: real time    8.3056
 BZINTS: Fermi energy:  0.168270;320.000000 electrons
         Band energy:***********;  BLOECHL correction:  0.000000
       DOS:  cpu time    0.0020: real time    0.0020
    CHARGE:  cpu time    0.3648: real time    0.3649
    MIXING:  cpu time    0.0013: real time    0.0013
    --------------------------------------------
      LOOP:  cpu time    8.7109: real time    8.7314

 eigenvalue-minimisations  :  7440
 total energy-change (2. order) :-0.3390681E-02  (-0.1226651E-02)
 number of electron     320.0000827 magnetization      -0.0000000
 augmentation part       64.4747709 magnetization       0.0000138

 Broyden mixing:
  rms(total) = 0.10693E-01    rms(broyden)= 0.10686E-01
  rms(prec ) = 0.12880E-01
  weight for this iteration     100.00

 eigenvalues of (default mixing * dielectric matrix)
  average eigenvalue GAMMA=   1.2055
  2.4574  2.0889  1.0461  0.6685  0.6685  0.8610  0.6481

 Free energy of the ion-electron system (eV)
  ---------------------------------------------------
  alpha Z        PSCENC =      1278.33848294
  Ewald energy   TEWEN  =    -16011.11606870
  -Hartree energ DENC   =    -12696.16146023
  -exchange      EXHF   =         0.00000000
  -V(xc)+E(xc)   XCENC  =      1240.04515092
  PAW double counting   =     20555.16423827   -21181.35976415
  entropy T*S    EENTRO =         0.00000000
  eigenvalues    EBANDS =     -2263.57902037
  atomic energy  EATOM  =     28895.73697308
  Solvation  Ediel_sol  =         0.00000000
  ---------------------------------------------------
  free energy    TOTEN  =      -182.93146825 eV

  energy without entropy =     -182.93146825  energy(sigma->0) =     -182.93146825


--------------------------------------------------------------------------------------------------------




--------------------------------------- Iteration      1(  13)  ---------------------------------------


    POTLOK:  cpu time    0.0472: real time    0.0489
    SETDIJ:  cpu time    0.0069: real time    0.0069
     EDDAV:  cpu time    9.4357: real time    9.4546
 BZINTS: Fermi energy:  0.251804;320.000000 electrons
         Band energy:***********;  BLOECHL correction:  0.000000
       DOS:  cpu time    0.0024: real time    0.0024
    CHARGE:  cpu time    0.3643: real time    0.3644
    MIXING:  cpu time    0.0014: real time    0.0014
    --------------------------------------------
      LOOP:  cpu time    9.8578: real time    9.8786

 eigenvalue-minimisations  :  8752
 total energy-change (2. order) :-0.7722894E-03  (-0.1672167E-03)
 number of electron     320.0000827 magnetization      -0.0000000
 augmentation part       64.4700344 magnetization      -0.0000429

 Broyden mixing:
  rms(total) = 0.41716E-02    rms(broyden)= 0.41682E-02
  rms(prec ) = 0.47422E-02
  weight for this iteration     100.00

 eigenvalues of (default mixing * dielectric matrix)
  average eigenvalue GAMMA=   1.2353
  2.7601  2.3580  1.0375  1.0375  0.6678  0.6678  0.6492  0.7048

 Free energy of the ion-electron system (eV)
  ---------------------------------------------------
  alpha Z        PSCENC =      1278.33848294
  Ewald energy   TEWEN  =    -16011.11606870
  -Hartree energ DENC   =    -12698.19542186
  -exchange      EXHF   =         0.00000000
  -V(xc)+E(xc)   XCENC  =      1240.13563449
  PAW double counting   =     20556.23454862   -21182.43400458
  entropy T*S    EENTRO =         0.00000000
  eigenvalues    EBANDS =     -2261.63238453
  atomic energy  EATOM  =     28895.73697308
  Solvation  Ediel_sol  =         0.00000000
  ---------------------------------------------------
  free energy    TOTEN  =      -182.93224054 eV

  energy without entropy =     -182.93224054  energy(sigma->0) =     -182.93224054


--------------------------------------------------------------------------------------------------------




--------------------------------------- Iteration      1(  14)  ---------------------------------------


    POTLOK:  cpu time    0.0483: real time    0.0501
    SETDIJ:  cpu time    0.0069: real time    0.0069
     EDDAV:  cpu time    9.5037: real time    9.5754
 BZINTS: Fermi energy:  0.242722;320.000000 electrons
         Band energy:***********;  BLOECHL correction:  0.000000
       DOS:  cpu time    0.0023: real time    0.0023
    CHARGE:  cpu time    0.3638: real time    0.3640
    MIXING:  cpu time    0.0015: real time    0.0015
    --------------------------------------------
      LOOP:  cpu time    9.9264: real time   10.0002

 eigenvalue-minimisations  :  8768
 total energy-change (2. order) :-0.5547085E-04  (-0.1311795E-04)
 number of electron     320.0000827 magnetization      -0.0000000
 augmentation part       64.4693762 magnetization      -0.0000276

 Broyden mixing:
  rms(total) = 0.20324E-02    rms(broyden)= 0.20319E-02
  rms(prec ) = 0.23300E-02
  weight for this iteration     100.00

 eigenvalues of (default mixing * dielectric matrix)
  average eigenvalue GAMMA=   1.2308
  2.7777  2.4156  1.1663  1.1663  0.8838  0.6692  0.6692  0.6777  0.6510

 Free energy of the ion-electron system (eV)
  ---------------------------------------------------
  alpha Z        PSCENC =      1278.33848294
  Ewald energy   TEWEN  =    -16011.11606870
  -Hartree energ DENC   =    -12698.19843223
  -exchange      EXHF   =         0.00000000
  -V(xc)+E(xc)   XCENC  =      1240.13215882
  PAW double counting   =     20555.73631232   -21181.93471234
  entropy T*S    EENTRO =         0.00000000
  eigenvalues    EBANDS =     -2261.62700991
  atomic energy  EATOM  =     28895.73697308
  Solvation  Ediel_sol  =         0.00000000
  ---------------------------------------------------
  free energy    TOTEN  =      -182.93229601 eV

  energy without entropy =     -182.93229601  energy(sigma->0) =     -182.93229601


--------------------------------------------------------------------------------------------------------




--------------------------------------- Iteration      1(  15)  ---------------------------------------


    POTLOK:  cpu time    0.0477: real time    0.0498
    SETDIJ:  cpu time    0.0069: real time    0.0069
     EDDAV:  cpu time    9.2707: real time    9.2992
 BZINTS: Fermi energy:  0.232355;320.000000 electrons
         Band energy:***********;  BLOECHL correction:  0.000000
       DOS:  cpu time    0.0023: real time    0.0023
    CHARGE:  cpu time    0.3668: real time    0.3670
    MIXING:  cpu time    0.0018: real time    0.0018
    --------------------------------------------
      LOOP:  cpu time    9.6960: real time    9.7269

 eigenvalue-minimisations  :  8552
 total energy-change (2. order) :-0.1951484E-04  (-0.3854363E-05)
 number of electron     320.0000827 magnetization      -0.0000000
 augmentation part       64.4709465 magnetization       0.0000132

 Broyden mixing:
  rms(total) = 0.10350E-02    rms(broyden)= 0.10330E-02
  rms(prec ) = 0.12214E-02
  weight for this iteration     100.00

 eigenvalues of (default mixing * dielectric matrix)
  average eigenvalue GAMMA=   1.2548
  2.8932  2.3956  1.5445  1.1548  1.1548  0.6697  0.6697  0.6436  0.7108  0.7108

 Free energy of the ion-electron system (eV)
  ---------------------------------------------------
  alpha Z        PSCENC =      1278.33848294
  Ewald energy   TEWEN  =    -16011.11606870
  -Hartree energ DENC   =    -12698.12536538
  -exchange      EXHF   =         0.00000000
  -V(xc)+E(xc)   XCENC  =      1240.13022916
  PAW double counting   =     20555.33893797   -21181.52304228
  entropy T*S    EENTRO =         0.00000000
  eigenvalues    EBANDS =     -2261.71246231
  atomic energy  EATOM  =     28895.73697308
  Solvation  Ediel_sol  =         0.00000000
  ---------------------------------------------------
  free energy    TOTEN  =      -182.93231552 eV

  energy without entropy =     -182.93231552  energy(sigma->0) =     -182.93231552


--------------------------------------------------------------------------------------------------------




--------------------------------------- Iteration      1(  16)  ---------------------------------------


    POTLOK:  cpu time    0.0488: real time    0.0508
    SETDIJ:  cpu time    0.0069: real time    0.0069
     EDDAV:  cpu time    9.4528: real time    9.4895
 BZINTS: Fermi energy:  0.222704;320.000000 electrons
         Band energy:***********;  BLOECHL correction:  0.000000
       DOS:  cpu time    0.0024: real time    0.0024
    CHARGE:  cpu time    0.3663: real time    0.3665
    MIXING:  cpu time    0.0019: real time    0.0019
    --------------------------------------------
      LOOP:  cpu time    9.8790: real time    9.9179

 eigenvalue-minimisations  :  8752
 total energy-change (2. order) :-0.6420094E-05  (-0.9781944E-06)
 number of electron     320.0000827 magnetization      -0.0000000
 augmentation part       64.4714030 magnetization       0.0000063

 Broyden mixing:
  rms(total) = 0.45878E-03    rms(broyden)= 0.45855E-03
  rms(prec ) = 0.51388E-03
  weight for this iteration     100.00

 eigenvalues of (default mixing * dielectric matrix)
  average eigenvalue GAMMA=   1.2561
  2.9936  2.3976  1.9873  1.0984  1.0984  0.6704  0.6704  0.7938  0.7938  0.6385
  0.6748

 Free energy of the ion-electron system (eV)
  ---------------------------------------------------
  alpha Z        PSCENC =      1278.33848294
  Ewald energy   TEWEN  =    -16011.11606870
  -Hartree energ DENC   =    -12698.19832228
  -exchange      EXHF   =         0.00000000
  -V(xc)+E(xc)   XCENC  =      1240.13739522
  PAW double counting   =     20555.33655098   -21181.51963125
  entropy T*S    EENTRO =         0.00000000
  eigenvalues    EBANDS =     -2261.64770193
  atomic energy  EATOM  =     28895.73697308
  Solvation  Ediel_sol  =         0.00000000
  ---------------------------------------------------
  free energy    TOTEN  =      -182.93232194 eV

  energy without entropy =     -182.93232194  energy(sigma->0) =     -182.93232194


--------------------------------------------------------------------------------------------------------




--------------------------------------- Iteration      1(  17)  ---------------------------------------


    POTLOK:  cpu time    0.0578: real time    0.0582
    SETDIJ:  cpu time    0.0193: real time    0.0193
     EDDAV:  cpu time    9.0306: real time    9.0537
 BZINTS: Fermi energy:  0.212846;320.000000 electrons
         Band energy:***********;  BLOECHL correction:  0.000000
       DOS:  cpu time    0.0022: real time    0.0022
    CHARGE:  cpu time    0.4030: real time    0.4030
    MIXING:  cpu time    0.0019: real time    0.0019
    --------------------------------------------
      LOOP:  cpu time    9.5149: real time    9.5383

 eigenvalue-minimisations  :  8176
 total energy-change (2. order) :-0.1281303E-05  (-0.2518752E-06)
 number of electron     320.0000827 magnetization      -0.0000000
 augmentation part       64.4710053 magnetization       0.0000029

 Broyden mixing:
  rms(total) = 0.16559E-03    rms(broyden)= 0.16533E-03
  rms(prec ) = 0.18183E-03
  weight for this iteration     100.00

 eigenvalues of (default mixing * dielectric matrix)
  average eigenvalue GAMMA=   1.2519
  3.0003  2.4743  2.0440  1.1448  1.1448  1.0532  0.6698  0.6698  0.7654  0.7654
  0.6561  0.6351

 Free energy of the ion-electron system (eV)
  ---------------------------------------------------
  alpha Z        PSCENC =      1278.33848294
  Ewald energy   TEWEN  =    -16011.11606870
  -Hartree energ DENC   =    -12698.23876381
  -exchange      EXHF   =         0.00000000
  -V(xc)+E(xc)   XCENC  =      1240.14015799
  PAW double counting   =     20555.34662783   -21181.53507156
  entropy T*S    EENTRO =         0.00000000
  eigenvalues    EBANDS =     -2261.60466099
  atomic energy  EATOM  =     28895.73697308
  Solvation  Ediel_sol  =         0.00000000
  ---------------------------------------------------
  free energy    TOTEN  =      -182.93232322 eV

  energy without entropy =     -182.93232322  energy(sigma->0) =     -182.93232322


--------------------------------------------------------------------------------------------------------




--------------------------------------- Iteration      1(  18)  ---------------------------------------


    POTLOK:  cpu time    0.0498: real time    0.0532
    SETDIJ:  cpu time    0.0069: real time    0.0069
     EDDAV:  cpu time    6.2023: real time    6.2062
 BZINTS: Fermi energy:  0.206154;320.000000 electrons
         Band energy:***********;  BLOECHL correction:  0.000000
       DOS:  cpu time    0.0022: real time    0.0022
    CHARGE:  cpu time    0.3754: real time    0.3830
    MIXING:  cpu time    0.0019: real time    0.0019
    --------------------------------------------
      LOOP:  cpu time    6.6386: real time    6.6535

 eigenvalue-minimisations  :  4808
 total energy-change (2. order) :-0.2123925E-06  (-0.1241859E-07)
 number of electron     320.0000827 magnetization      -0.0000000
 augmentation part       64.4709428 magnetization       0.0000029

 Broyden mixing:
  rms(total) = 0.81404E-04    rms(broyden)= 0.81253E-04
  rms(prec ) = 0.94176E-04
  weight for this iteration     100.00

 eigenvalues of (default mixing * dielectric matrix)
  average eigenvalue GAMMA=   1.2593
  2.9932  2.5152  2.0856  1.2312  1.2312  1.2057  1.0350  0.6699  0.6699  0.7236
  0.7236  0.6360  0.6514

 Free energy of the ion-electron system (eV)
  ---------------------------------------------------
  alpha Z        PSCENC =      1278.33848294
  Ewald energy   TEWEN  =    -16011.11606870
  -Hartree energ DENC   =    -12698.24003159
  -exchange      EXHF   =         0.00000000
  -V(xc)+E(xc)   XCENC  =      1240.14029467
  PAW double counting   =     20555.33509928   -21181.52450980
  entropy T*S    EENTRO =         0.00000000
  eigenvalues    EBANDS =     -2261.60256331
  atomic energy  EATOM  =     28895.73697308
  Solvation  Ediel_sol  =         0.00000000
  ---------------------------------------------------
  free energy    TOTEN  =      -182.93232344 eV

  energy without entropy =     -182.93232344  energy(sigma->0) =     -182.93232344


--------------------------------------------------------------------------------------------------------




--------------------------------------- Iteration      1(  19)  ---------------------------------------


    POTLOK:  cpu time    0.0472: real time    0.0490
    SETDIJ:  cpu time    0.0069: real time    0.0069
     EDDAV:  cpu time    5.9900: real time    6.0099
 BZINTS: Fermi energy:  0.206149;320.000000 electrons
         Band energy:***********;  BLOECHL correction:  0.000000
       DOS:  cpu time    0.0022: real time    0.0022
    CHARGE:  cpu time    0.3645: real time    0.3647
    MIXING:  cpu time    0.0020: real time    0.0020
    --------------------------------------------
      LOOP:  cpu time    6.4128: real time    6.4347

 eigenvalue-minimisations  :  4504
 total energy-change (2. order) :-0.1617045E-06  (-0.6905904E-08)
 number of electron     320.0000827 magnetization       0.0000000
 augmentation part       64.4709824 magnetization      -0.0000002

 Broyden mixing:
  rms(total) = 0.42034E-04    rms(broyden)= 0.41994E-04
  rms(prec ) = 0.48504E-04
  weight for this iteration     100.00

 eigenvalues of (default mixing * dielectric matrix)
  average eigenvalue GAMMA=   1.2834
  3.0354  2.5746  2.2593  1.7146  1.1899  1.1899  1.1521  0.6699  0.6699  0.8214
  0.7302  0.6869  0.6365  0.6365

 Free energy of the ion-electron system (eV)
  ---------------------------------------------------
  alpha Z        PSCENC =      1278.33848294
  Ewald energy   TEWEN  =    -16011.11606870
  -Hartree energ DENC   =    -12698.23886617
  -exchange      EXHF   =         0.00000000
  -V(xc)+E(xc)   XCENC  =      1240.14048180
  PAW double counting   =     20555.33584615   -21181.52524386
  entropy T*S    EENTRO =         0.00000000
  eigenvalues    EBANDS =     -2261.60392883
  atomic energy  EATOM  =     28895.73697308
  Solvation  Ediel_sol  =         0.00000000
  ---------------------------------------------------
  free energy    TOTEN  =      -182.93232360 eV

  energy without entropy =     -182.93232360  energy(sigma->0) =     -182.93232360


--------------------------------------------------------------------------------------------------------




--------------------------------------- Iteration      1(  20)  ---------------------------------------


    POTLOK:  cpu time    0.0473: real time    0.0502
    SETDIJ:  cpu time    0.0069: real time    0.0069
     EDDAV:  cpu time    5.8431: real time    5.8477
 BZINTS: Fermi energy:  0.206153;320.000000 electrons
         Band energy:***********;  BLOECHL correction:  0.000000
       DOS:  cpu time    0.0022: real time    0.0022
    --------------------------------------------
      LOOP:  cpu time    5.8995: real time    5.9070

 eigenvalue-minimisations  :  4280
 total energy-change (2. order) :-0.8233837E-07  (-0.4645246E-08)
 number of electron     320.0000827 magnetization       0.0000000
 augmentation part       64.4709824 magnetization      -0.0000002

 Free energy of the ion-electron system (eV)
  ---------------------------------------------------
  alpha Z        PSCENC =      1278.33848294
  Ewald energy   TEWEN  =    -16011.11606870
  -Hartree energ DENC   =    -12698.24195965
  -exchange      EXHF   =         0.00000000
  -V(xc)+E(xc)   XCENC  =      1240.14076987
  PAW double counting   =     20555.34244235   -21181.53266171
  entropy T*S    EENTRO =         0.00000000
  eigenvalues    EBANDS =     -2261.60030186
  atomic energy  EATOM  =     28895.73697308
  Solvation  Ediel_sol  =         0.00000000
  ---------------------------------------------------
  free energy    TOTEN  =      -182.93232368 eV

  energy without entropy =     -182.93232368  energy(sigma->0) =     -182.93232368


--------------------------------------------------------------------------------------------------------




 average (electrostatic) potential at core
  the test charge radii are     0.7167  0.9791  1.1312
  (the norm of the test charge is              1.0000)
       1 -78.4116       2 -78.4116       3 -78.4116       4 -78.4117       5 -78.4117
       6 -78.4116       7 -78.4116       8 -78.4116       9 -78.4115      10 -78.4116
      11 -78.4115      12 -78.4115      13 -78.4117      14 -78.4116      15 -78.4116
      16 -78.4116      17 -78.4116      18 -78.4116      19 -78.4116      20 -78.4117
      21 -78.4115      22 -78.4115      23 -78.4116      24 -78.4115      25 -46.8044
      26 -46.8043      27 -46.8043      28 -46.8043      29 -46.8044      30 -46.8043
      31 -46.8043      32 -46.8043      33 -49.4735      34 -49.4735      35 -49.4735
      36 -49.4735      37 -49.4735      38 -49.4735      39 -49.4735      40 -49.4735
 
 
 
 E-fermi :   0.2062     XC(G=0):  -8.6946     alpha+bet : -7.8451


 spin component 1

 k-point     1 :       0.0000    0.0000    0.0000
  band No.  band energies     occupation 
      1     -22.2886      1.00000
      2     -22.2559      1.00000
      3     -22.2558      1.00000
      4     -22.2558      1.00000
      5     -21.9405      1.00000
      6     -21.9293      1.00000
      7     -21.9293      1.00000
      8     -21.9293      1.00000
      9     -21.8205      1.00000
     10     -21.8205      1.00000
     11     -21.8204      1.00000
     12     -21.7939      1.00000
     13     -21.7939      1.00000
     14     -21.7939      1.00000
     15     -21.7922      1.00000
     16     -21.7922      1.00000
     17     -21.7559      1.00000
     18     -21.7558      1.00000
     19     -21.7558      1.00000
     20     -21.7458      1.00000
     21     -21.7457      1.00000
     22     -21.7452      1.00000
     23     -21.7451      1.00000
     24     -21.7451      1.00000
     25     -19.7346      1.00000
     26     -19.7346      1.00000
     27     -19.7346      1.00000
     28     -19.7335      1.00000
     29     -19.7319      1.00000
     30     -19.7318      1.00000
     31     -19.7318      1.00000
     32     -19.7089      1.00000
     33      -7.0019      1.00000
     34      -7.0019      1.00000
     35      -6.9164      1.00000
     36      -6.8522      1.00000
     37      -6.8522      1.00000
     38      -6.8522      1.00000
     39      -6.7035      1.00000
     40      -6.7034      1.00000
     41      -6.7034      1.00000
     42      -6.6295      1.00000
     43      -6.6295      1.00000
     44      -6.6294      1.00000
     45      -6.5985      1.00000
     46      -6.5985      1.00000
     47      -6.5838      1.00000
     48      -6.5837      1.00000
     49      -6.5837      1.00000
     50      -6.5603      1.00000
     51      -6.5603      1.00000
     52      -6.5602      1.00000
     53      -6.4934      1.00000
     54      -6.4934      1.00000
     55      -6.4933      1.00000
     56      -6.4304      1.00000
     57      -5.6667      1.00000
     58      -5.5218      1.00000
     59      -5.5218      1.00000
     60      -5.5207      1.00000
     61      -5.0734      1.00000
     62      -5.0728      1.00000
     63      -5.0728      1.00000
     64      -4.7932      1.00000
     65      -4.7345      1.00000
     66      -4.7345      1.00000
     67      -4.7249      1.00000
     68      -4.6392      1.00000
     69      -4.6003      1.00000
     70      -4.5938      1.00000
     71      -4.5938      1.00000
     72      -4.5269      1.00000
     73      -4.5268      1.00000
     74      -4.4925      1.00000
     75      -4.4925      1.00000
     76      -4.4925      1.00000
     77      -4.1193      1.00000
     78      -4.1193      1.00000
     79      -4.0826      1.00000
     80      -4.0114      1.00000
     81      -3.9989      1.00000
     82      -3.9989      1.00000
     83      -3.9654      1.00000
     84      -3.9654      1.00000
     85      -3.9636      1.00000
     86      -3.9448      1.00000
     87      -3.9448      1.00000
     88      -3.9122      1.00000
     89      -3.9122      1.00000
     90      -3.8110      1.00000
     91      -3.7982      1.00000
     92      -3.7981      1.00000
     93      -3.7150      1.00000
     94      -3.7149      1.00000
     95      -3.7018      1.00000
     96      -3.5749      1.00000
     97      -3.5725      1.00000
     98      -3.5724      1.00000
     99      -3.5235      1.00000
    100      -3.5234      1.00000
    101      -3.4972      1.00000
    102      -3.4971      1.00000
    103      -3.4886      1.00000
    104      -3.3125      1.00000
    105      -3.3105      1.00000
    106      -3.3104      1.00000
    107      -3.2133      1.00000
    108      -3.2131      1.00000
    109      -2.9746      1.00000
    110      -2.9737      1.00000
    111      -2.9736      1.00000
    112      -2.9712      1.00000
    113      -2.9712      1.00000
    114      -2.9703      1.00000
    115      -2.9523      1.00000
    116      -2.8212      1.00000
    117      -2.8211      1.00000
    118      -2.8211      1.00000
    119      -2.7462      1.00000
    120      -2.6220      1.00000
    121      -2.6219      1.00000
    122      -2.6063      1.00000
    123      -2.6062      1.00000
    124      -2.6062      1.00000
    125      -2.4629      1.00000
    126      -2.4628      1.00000
    127      -2.4628      1.00000
    128      -2.4224      1.00000
    129      -1.3417      1.00000
    130      -1.3186      1.00000
    131      -1.3186      1.00000
    132      -1.3182      1.00000
    133      -1.0511      1.00000
    134      -1.0511      1.00000
    135      -1.0477      1.00000
    136      -1.0343      1.00000
    137      -1.0343      1.00000
    138      -1.0339      1.00000
    139      -1.0307      1.00000
    140      -1.0306      1.00000
    141      -0.5760      1.00000
    142      -0.5759      1.00000
    143      -0.5663      1.00000
    144      -0.5239      1.00000
    145      -0.5239      1.00000
    146      -0.5235      1.00000
    147      -0.5101      1.00000
    148      -0.5101      1.00000
    149       0.1047      1.00000
    150       0.1069      1.00000
    151       0.1069      1.00000
    152       0.1069      1.00000
    153       0.1440      1.00000
    154       0.1445      1.00000
    155       0.1445      1.00000
    156       0.1594      1.00000
    157       0.1595      1.00000
    158       0.1705      1.00000
    159       0.1705      1.00000
    160       0.1708      1.00000
    161       1.7914      0.00000
    162       1.7914      0.00000
    163       1.7961      0.00000
    164       1.8439      0.00000
    165       1.8439      0.00000
    166       1.8461      0.00000
    167       1.8494      0.00000
    168       1.8495      0.00000
    169       3.8879      0.00000
    170       5.4741      0.00000
    171       5.4741      0.00000
    172       5.4741      0.00000
    173       5.8118      0.00000
    174       5.8118      0.00000
    175       5.8118      0.00000
    176       6.1471      0.00000
    177       6.4730      0.00000
    178       6.4730      0.00000
    179       6.4731      0.00000
    180       6.9756      0.00000
    181       6.9756      0.00000
    182       6.9757      0.00000
    183       7.0391      0.00000
    184       7.0392      0.00000
    185       7.1496      0.00000
    186       7.1498      0.00000
[...]
   26        0.296   0.368   8.172   8.837
   27        0.296   0.368   8.172   8.837
   28        0.296   0.368   8.172   8.837
   29        0.296   0.368   8.172   8.837
   30        0.296   0.368   8.172   8.837
   31        0.296   0.368   8.172   8.837
   32        0.296   0.368   8.172   8.837
   33        1.838   4.719   0.017   6.574
   34        1.838   4.719   0.017   6.574
   35        1.838   4.719   0.017   6.574
   36        1.838   4.719   0.017   6.574
   37        1.838   4.719   0.017   6.574
   38        1.838   4.719   0.017   6.574
   39        1.838   4.719   0.017   6.574
   40        1.838   4.719   0.017   6.574
--------------------------------------------------
tot         58.730 144.593  65.519 268.843
 


 magnetization (x)
 
# of ion       s       p       d       tot
------------------------------------------
    1       -0.000   0.000   0.000   0.000
    2        0.000  -0.000   0.000  -0.000
    3        0.000  -0.000   0.000  -0.000
    4       -0.000   0.000   0.000   0.000
    5       -0.000   0.000   0.000   0.000
    6        0.000  -0.000   0.000  -0.000
    7        0.000  -0.000   0.000  -0.000
    8       -0.000   0.000   0.000   0.000
    9        0.000  -0.000   0.000  -0.000
   10       -0.000   0.000   0.000   0.000
   11       -0.000   0.000   0.000   0.000
   12        0.000  -0.000   0.000  -0.000
   13       -0.000   0.000   0.000   0.000
   14        0.000  -0.000   0.000  -0.000
   15        0.000  -0.000   0.000  -0.000
   16       -0.000   0.000   0.000   0.000
   17       -0.000   0.000   0.000   0.000
   18        0.000  -0.000   0.000  -0.000
   19        0.000  -0.000   0.000  -0.000
   20       -0.000   0.000   0.000   0.000
   21        0.000  -0.000   0.000  -0.000
   22       -0.000   0.000   0.000   0.000
   23       -0.000   0.000   0.000   0.000
   24        0.000  -0.000   0.000  -0.000
   25        0.002   0.002   1.646   1.651
   26       -0.002  -0.002  -1.647  -1.651
   27       -0.002  -0.002  -1.646  -1.651
   28       -0.002  -0.002  -1.646  -1.651
   29       -0.002  -0.002  -1.646  -1.651
   30        0.002   0.002   1.647   1.651
   31        0.002   0.002   1.646   1.651
   32        0.002   0.002   1.646   1.651
   33       -0.000   0.000  -0.000  -0.000
   34        0.000   0.000   0.000   0.000
   35        0.000   0.000   0.000   0.000
   36       -0.000   0.000  -0.000  -0.000
   37       -0.000   0.000  -0.000  -0.000
   38        0.000   0.000   0.000   0.000
   39        0.000   0.000   0.000   0.000
   40       -0.000   0.000  -0.000  -0.000
--------------------------------------------------
tot          0.000   0.000  -0.000  -0.000
 
    CHARGE:  cpu time    0.3628: real time    0.3632
    FORLOC:  cpu time    0.0051: real time    0.0051
    FORNL :  cpu time    1.5120: real time    1.5122
    STRESS:  cpu time    4.5189: real time    4.5828
    FORCOR:  cpu time    0.0445: real time    0.0445
    FORHAR:  cpu time    0.0096: real time    0.0096
    MIXING:  cpu time    0.0022: real time    0.0022
    OFIELD:  cpu time    0.0001: real time    0.0001

  FORCE on cell =-STRESS in cart. coord.  units (eV):
  Direction    XX          YY          ZZ          XY          YZ          ZX
  --------------------------------------------------------------------------------------
  Alpha Z  1278.33848  1278.33848  1278.33848
  Ewald   -7609.75632 -7610.00282  -791.44196    -0.20307    -0.00000     0.00000
  Hartree  2322.02611  2321.81964  8054.39913    -0.18073     0.00000    -0.00000
  E(xc)   -1677.14220 -1677.14327 -1675.08748    -0.00111    -0.00000     0.00000
  Local     556.61988   557.05104-11900.98868     0.37956    -0.00000     0.00000
  n-local -1126.49330 -1126.51356 -1112.66362     0.00587    -0.00000     0.00000
  augment   750.41623   750.42087   727.88340     0.00187     0.00000    -0.00000
  Kinetic  5506.18948  5506.37470  5419.39397    -0.04919     0.00000    -0.00000
  Fock        0.00000     0.00000     0.00000     0.00000     0.00000     0.00000
  -------------------------------------------------------------------------------------
  Total       0.27364     0.26980    -0.16674    -0.00332    -0.00000     0.00000
  in kB       0.58260     0.57443    -0.35501    -0.00708    -0.00000     0.00000
  external pressure =        0.27 kB  Pullay stress =        0.00 kB


 VOLUME and BASIS-vectors are now :
 -----------------------------------------------------------------------------
  energy-cutoff  :      520.00
  volume of cell :      752.52
      direct lattice vectors                 reciprocal lattice vectors
    12.775245568  0.000000000  0.000000000     0.078276382  0.045192789  0.000000000
    -6.387622784 11.063711963  0.000000000     0.000000000  0.090385578  0.000000000
     0.000000000  0.000000000  5.324128930     0.000000000  0.000000000  0.187824152

  length of vectors
    12.775245568 12.775267012  5.324128930     0.090385730  0.090385578  0.187824152


 FORCES acting on ions
    electron-ion (+dipol)            ewald-force                    non-local-force                 convergence-correction
 -----------------------------------------------------------------------------------------------
   0.740E-03 -.392E+03 -.130E-04   -.107E-02 0.408E+03 -.641E-08   0.409E-03 -.164E+02 0.543E-05   -.677E-05 0.995E-04 -.184E-04
   0.310E-04 -.392E+03 -.220E-04   -.107E-02 0.408E+03 -.641E-08   0.893E-03 -.164E+02 -.705E-05   0.655E-05 0.882E-04 0.500E-05
   0.392E-03 -.392E+03 -.214E-04   -.107E-02 0.408E+03 -.641E-08   0.654E-03 -.164E+02 -.693E-05   -.847E-05 0.108E-03 0.430E-05
   0.380E-03 -.392E+03 -.395E-04   -.107E-02 0.408E+03 -.641E-08   0.648E-03 -.164E+02 -.851E-05   0.738E-05 0.137E-03 0.313E-04
   0.339E+03 0.196E+03 0.590E-05   -.354E+03 -.204E+03 -.641E-08   0.142E+02 0.818E+01 -.851E-05   -.115E-03 -.750E-04 0.313E-04
   0.339E+03 0.196E+03 0.234E-04   -.354E+03 -.204E+03 -.642E-08   0.142E+02 0.818E+01 -.705E-05   -.732E-04 -.497E-04 0.500E-05
   0.339E+03 0.196E+03 0.241E-04   -.354E+03 -.204E+03 -.642E-08   0.142E+02 0.818E+01 -.693E-05   -.979E-04 -.467E-04 0.430E-05
   0.339E+03 0.196E+03 0.324E-04   -.354E+03 -.204E+03 -.642E-08   0.142E+02 0.818E+01 0.543E-05   -.896E-04 -.439E-04 -.184E-04
   -.339E+03 0.196E+03 0.112E-05   0.354E+03 -.204E+03 -.641E-08   -.142E+02 0.818E+01 -.805E-05   0.859E-04 -.662E-04 0.515E-05
   -.339E+03 0.196E+03 -.173E-04   0.354E+03 -.204E+03 -.641E-08   -.142E+02 0.818E+01 -.908E-05   0.104E-03 -.598E-04 0.326E-04
   -.339E+03 0.196E+03 0.101E-04   0.354E+03 -.204E+03 -.641E-08   -.142E+02 0.818E+01 0.613E-05   0.932E-04 -.537E-04 -.194E-04
   -.339E+03 0.196E+03 0.112E-05   0.354E+03 -.204E+03 -.641E-08   -.142E+02 0.818E+01 -.805E-05   0.100E-03 -.411E-04 0.515E-05
   -.380E-03 0.392E+03 0.394E-04   0.107E-02 -.408E+03 -.641E-08   -.648E-03 0.164E+02 0.851E-05   -.738E-05 -.137E-03 -.313E-04
   -.392E-03 0.392E+03 0.212E-04   0.107E-02 -.408E+03 -.641E-08   -.654E-03 0.164E+02 0.693E-05   0.847E-05 -.108E-03 -.430E-05
   -.310E-04 0.392E+03 0.219E-04   0.107E-02 -.408E+03 -.641E-08   -.893E-03 0.164E+02 0.705E-05   -.655E-05 -.882E-04 -.500E-05
   -.740E-03 0.392E+03 0.129E-04   0.107E-02 -.408E+03 -.641E-08   -.409E-03 0.164E+02 -.543E-05   0.677E-05 -.995E-04 0.184E-04
   -.339E+03 -.196E+03 -.326E-04   0.354E+03 0.204E+03 -.642E-08   -.142E+02 -.818E+01 -.543E-05   0.896E-04 0.439E-04 0.184E-04
   -.339E+03 -.196E+03 -.243E-04   0.354E+03 0.204E+03 -.642E-08   -.142E+02 -.818E+01 0.693E-05   0.979E-04 0.467E-04 -.430E-05
   -.339E+03 -.196E+03 -.236E-04   0.354E+03 0.204E+03 -.642E-08   -.142E+02 -.818E+01 0.705E-05   0.732E-04 0.497E-04 -.500E-05
   -.339E+03 -.196E+03 -.608E-05   0.354E+03 0.204E+03 -.642E-08   -.142E+02 -.818E+01 0.851E-05   0.115E-03 0.750E-04 -.313E-04
   0.339E+03 -.196E+03 -.130E-05   -.354E+03 0.204E+03 -.641E-08   0.142E+02 -.818E+01 0.805E-05   -.100E-03 0.411E-04 -.515E-05
   0.339E+03 -.196E+03 -.102E-04   -.354E+03 0.204E+03 -.641E-08   0.142E+02 -.818E+01 -.613E-05   -.932E-04 0.537E-04 0.194E-04
   0.339E+03 -.196E+03 0.171E-04   -.354E+03 0.204E+03 -.641E-08   0.142E+02 -.818E+01 0.908E-05   -.104E-03 0.598E-04 -.326E-04
   0.339E+03 -.196E+03 -.130E-05   -.354E+03 0.204E+03 -.641E-08   0.142E+02 -.818E+01 0.805E-05   -.859E-04 0.662E-04 -.515E-05
   -.463E-10 0.971E-09 -.322E-08   0.265E-09 -.724E-08 0.206E-07   0.414E-24 0.000E+00 0.000E+00   -.405E-11 0.339E-09 -.520E-11
   -.450E-10 0.971E-09 -.322E-08   0.265E-09 -.724E-08 0.206E-07   -.165E-23 0.000E+00 0.000E+00   -.409E-11 0.339E-09 -.509E-11
   -.159E-08 0.665E-08 -.224E-08   0.874E-08 0.171E-08 0.100E-07   0.000E+00 0.000E+00 0.000E+00   -.559E-11 -.398E-09 0.631E-11
   -.158E-08 0.666E-08 -.221E-08   0.874E-08 0.171E-08 0.100E-07   -.207E-24 0.000E+00 0.000E+00   -.620E-11 -.398E-09 0.641E-11
   -.467E-10 0.972E-09 -.368E-08   0.267E-09 -.724E-08 0.181E-07   0.000E+00 0.000E+00 0.000E+00   -.413E-11 0.339E-09 0.548E-11
   -.455E-10 0.972E-09 -.368E-08   0.267E-09 -.724E-08 0.181E-07   0.000E+00 0.000E+00 0.000E+00   -.415E-11 0.339E-09 0.532E-11
   -.159E-08 0.665E-08 -.470E-08   0.874E-08 0.171E-08 0.287E-07   -.207E-24 0.000E+00 0.000E+00   -.566E-11 -.398E-09 -.603E-11
   -.159E-08 0.666E-08 -.468E-08   0.874E-08 0.171E-08 0.287E-07   0.000E+00 0.000E+00 0.000E+00   -.625E-11 -.398E-09 -.620E-11
   -.773E-02 0.541E-02 0.196E-05   0.754E-02 -.538E-02 -.113E-09   0.133E-03 -.924E-04 0.145E-06   -.142E-04 -.242E-04 -.258E-05
   -.764E-02 0.539E-02 0.525E-05   0.754E-02 -.538E-02 -.113E-09   0.164E-03 -.948E-04 0.687E-06   0.130E-04 -.744E-05 -.606E-05
   -.767E-02 0.542E-02 -.515E-06   0.754E-02 -.538E-02 -.113E-09   0.150E-03 -.867E-04 0.205E-07   -.145E-04 0.842E-05 0.781E-06
   -.770E-02 0.547E-02 0.196E-05   0.754E-02 -.538E-02 -.113E-09   0.146E-03 -.688E-04 0.145E-06   0.139E-04 0.245E-04 -.258E-05
   0.770E-02 -.547E-02 -.202E-05   -.754E-02 0.538E-02 -.113E-09   -.146E-03 0.688E-04 -.145E-06   -.139E-04 -.245E-04 0.258E-05
   0.767E-02 -.542E-02 0.460E-06   -.754E-02 0.538E-02 -.113E-09   -.150E-03 0.867E-04 -.205E-07   0.145E-04 -.842E-05 -.781E-06
   0.764E-02 -.539E-02 -.531E-05   -.754E-02 0.538E-02 -.113E-09   -.164E-03 0.948E-04 -.687E-06   -.130E-04 0.744E-05 0.606E-05
   0.773E-02 -.541E-02 -.202E-05   -.754E-02 0.538E-02 -.113E-09   -.133E-03 0.924E-04 -.145E-06   0.142E-04 0.242E-04 0.258E-05
 -----------------------------------------------------------------------------------------------
   0.289E-07 0.200E-05 -.239E-05   0.541E-12 0.107E-12 -.791E-14   0.888E-14 -.266E-13 0.000E+00   -.591E-10 -.338E-09 -.450E-11
 
 
 POSITION                                       TOTAL-FORCE (eV/Angst)
 -----------------------------------------------------------------------------------
      3.19377      7.08259      1.33103         0.000110      0.012598     -0.000003
     -3.19385      7.08259      1.33103        -0.000101      0.012600     -0.000001
      6.38758      1.55073      1.33103         0.000005      0.012578     -0.000001
     -0.00004      1.55073      1.33103         0.000004      0.012616      0.000006
      5.04463     10.28838      1.33103        -0.010924     -0.006311      0.000006
     -1.34299     10.28838      1.33103        -0.010962     -0.006212     -0.000001
      8.23844      4.75653      1.33103        -0.010891     -0.006294     -0.000001
      1.85082      4.75653      1.33103        -0.010855     -0.006395     -0.000003
      1.34300     10.28833      1.33103         0.010822     -0.006125     -0.000002
     -5.04462     10.28833      1.33103         0.010780     -0.006224      0.000006
      4.53681      4.75647      1.33103         0.010752     -0.006208     -0.000003
     -1.85081      4.75647      1.33103         0.010715     -0.006310     -0.000002
      6.38767      9.51298      3.99310        -0.000004     -0.012616     -0.000006
      0.00004      9.51298      3.99310        -0.000005     -0.012578      0.000001
      9.58148      3.98112      3.99310         0.000101     -0.012600      0.000001
      3.19385      3.98112      3.99310        -0.000110     -0.012598      0.000003
      4.53680      6.30718      3.99310         0.010855      0.006395      0.000003
     -1.85082      6.30718      3.99310         0.010891      0.006294      0.000001
      7.73061      0.77533      3.99310         0.010962      0.006212      0.000001
      1.34299      0.77533      3.99310         0.010924      0.006311     -0.000006
      8.23843      6.30724      3.99310        -0.010715      0.006310      0.000002
      1.85081      6.30724      3.99310        -0.010752      0.006208      0.000003
     11.43224      0.77538      3.99310        -0.010780      0.006224     -0.000006
      5.04462      0.77538      3.99310        -0.010822      0.006125      0.000002
      0.00000      0.00000      0.00000         0.000000      0.000000      0.000000
      6.38762      0.00000      0.00000         0.000000      0.000000      0.000000
      9.58143      5.53186      0.00000         0.000000      0.000000      0.000000
      3.19381      5.53186      0.00000         0.000000      0.000000      0.000000
      0.00000      0.00000      2.66206         0.000000      0.000000      0.000000
      6.38762      0.00000      2.66206         0.000000      0.000000      0.000000
      9.58143      5.53186      2.66206         0.000000      0.000000      0.000000
      3.19381      5.53186      2.66206         0.000000      0.000000      0.000000
      3.19382      9.21975      3.99310        -0.000056     -0.000056     -0.000000
     -3.19380      9.21975      3.99310         0.000100     -0.000058     -0.000000
      6.38763      3.68790      3.99310         0.000022     -0.000013      0.000000
      0.00001      3.68790      3.99310         0.000020      0.000077     -0.000000
      6.38761      7.37581      1.33103        -0.000020     -0.000077      0.000000
     -0.00001      7.37581      1.33103        -0.000022      0.000013     -0.000000
      9.58143      1.84396      1.33103        -0.000100      0.000058      0.000000
      3.19380      1.84396      1.33103         0.000056      0.000056      0.000000
 -----------------------------------------------------------------------------------
    total drift:                                0.000000      0.000002     -0.000002


--------------------------------------------------------------------------------------------------------



  FREE ENERGIE OF THE ION-ELECTRON SYSTEM (eV)
  ---------------------------------------------------
  free  energy   TOTEN  =      -182.93232368 eV

  energy  without entropy=     -182.93232368  energy(sigma->0) =     -182.93232368
 


--------------------------------------------------------------------------------------------------------


    POTLOK:  cpu time    0.0546: real time    0.0550


--------------------------------------------------------------------------------------------------------


     LOOP+:  cpu time  188.7510: real time  189.4593
    4ORBIT:  cpu time    0.0000: real time    0.0000
 


 total charge     
 
# of ion       s       p       d       tot
------------------------------------------
    1        1.736   4.329   0.000   6.065
    2        1.736   4.329   0.000   6.065
    3        1.736   4.329   0.000   6.065
    4        1.736   4.329   0.000   6.065
    5        1.736   4.329   0.000   6.065
    6        1.736   4.329   0.000   6.065
    7        1.736   4.329   0.000   6.065
    8        1.736   4.329   0.000   6.065
    9        1.736   4.329   0.000   6.065
   10        1.736   4.329   0.000   6.065
   11        1.736   4.329   0.000   6.065
   12        1.736   4.329   0.000   6.065
   13        1.736   4.329   0.000   6.065
   14        1.736   4.329   0.000   6.065
   15        1.736   4.329   0.000   6.065
   16        1.736   4.329   0.000   6.065
   17        1.736   4.329   0.000   6.065
   18        1.736   4.329   0.000   6.065
   19        1.736   4.329   0.000   6.065
   20        1.736   4.329   0.000   6.065
   21        1.736   4.329   0.000   6.065
   22        1.736   4.329   0.000   6.065
   23        1.736   4.329   0.000   6.065
   24        1.736   4.329   0.000   6.065
   25        0.296   0.368   8.172   8.837
   26        0.296   0.368   8.172   8.837
   27        0.296   0.368   8.172   8.837
   28        0.296   0.368   8.172   8.837
   29        0.296   0.368   8.172   8.837
   30        0.296   0.368   8.172   8.837
   31        0.296   0.368   8.172   8.837
   32        0.296   0.368   8.172   8.837
   33        1.838   4.719   0.017   6.574
   34        1.838   4.719   0.017   6.574
   35        1.838   4.719   0.017   6.574
   36        1.838   4.719   0.017   6.574
   37        1.838   4.719   0.017   6.574
   38        1.838   4.719   0.017   6.574
   39        1.838   4.719   0.017   6.574
   40        1.838   4.719   0.017   6.574
--------------------------------------------------
tot         58.730 144.593  65.519 268.843
 


 magnetization (x)
 
# of ion       s       p       d       tot
------------------------------------------
    1       -0.000   0.000   0.000   0.000
    2        0.000  -0.000   0.000  -0.000
    3        0.000  -0.000   0.000  -0.000
    4       -0.000   0.000   0.000   0.000
    5       -0.000   0.000   0.000   0.000
    6        0.000  -0.000   0.000  -0.000
    7        0.000  -0.000   0.000  -0.000
    8       -0.000   0.000   0.000   0.000
    9        0.000  -0.000   0.000  -0.000
   10       -0.000   0.000   0.000   0.000
   11       -0.000   0.000   0.000   0.000
   12        0.000  -0.000   0.000  -0.000
   13       -0.000   0.000   0.000   0.000
   14        0.000  -0.000   0.000  -0.000
   15        0.000  -0.000   0.000  -0.000
   16       -0.000   0.000   0.000   0.000
   17       -0.000   0.000   0.000   0.000
   18        0.000  -0.000   0.000  -0.000
   19        0.000  -0.000   0.000  -0.000
   20       -0.000   0.000   0.000   0.000
   21        0.000  -0.000   0.000  -0.000
   22       -0.000   0.000   0.000   0.000
   23       -0.000   0.000   0.000   0.000
   24        0.000  -0.000   0.000  -0.000
   25        0.002   0.002   1.646   1.651
   26       -0.002  -0.002  -1.647  -1.651
   27       -0.002  -0.002  -1.646  -1.651
   28       -0.002  -0.002  -1.646  -1.651
   29       -0.002  -0.002  -1.646  -1.651
   30        0.002   0.002   1.647   1.651
   31        0.002   0.002   1.646   1.651
   32        0.002   0.002   1.646   1.651
   33       -0.000   0.000  -0.000  -0.000
   34        0.000   0.000   0.000   0.000
   35        0.000   0.000   0.000   0.000
   36       -0.000   0.000  -0.000  -0.000
   37       -0.000   0.000  -0.000  -0.000
   38        0.000   0.000   0.000   0.000
   39        0.000   0.000   0.000   0.000
   40       -0.000   0.000  -0.000  -0.000
--------------------------------------------------
tot          0.000   0.000  -0.000  -0.000
 
 BZINTS: Fermi energy:  0.206153;320.000000 electrons
         Band energy:***********;  BLOECHL correction:  0.000000

 total amount of memory used by VASP MPI-rank0    66568. kBytes
=======================================================================

   base      :      30000. kBytes
   nonlr-proj:       7318. kBytes
   fftplans  :       1395. kBytes
   grid      :       3519. kBytes
   one-center:         62. kBytes
   wavefun   :      24274. kBytes
 
  
  
 General timing and accounting informations for this job:
 ========================================================
  
                  Total CPU time used (sec):      198.538
                            User time (sec):      194.946
                          System time (sec):        3.592
                         Elapsed time (sec):      201.054
  
                   Maximum memory used (kb):      136896.
                   Average memory used (kb):           0.
  
                          Minor page faults:        55193
                          Major page faults:           16
                 Voluntary context switches:         1790
