 vasp.5.4.4.18Apr17-6-g9f103f2a35 (build Dec 20 2018 12:05:58) complex          
  
 executed on             LinuxIFC date 2019.06.20  18:20:56
 running on   32 total cores
 distrk:  each k-point on    8 cores,    4 groups
 distr:  one band on NCORES_PER_BAND=   4 cores,    2 groups


--------------------------------------------------------------------------------------------------------


 INCAR:
 POTCAR:    PAW_PBE Al 04Jan2001                  
 POTCAR:    PAW_PBE Mn 06Sep2000                  

 ----------------------------------------------------------------------------- 
|                                                                             |
|           W    W    AA    RRRRR   N    N  II  N    N   GGGG   !!!           |
|           W    W   A  A   R    R  NN   N  II  NN   N  G    G  !!!           |
|           W    W  A    A  R    R  N N  N  II  N N  N  G       !!!           |
|           W WW W  AAAAAA  RRRRR   N  N N  II  N  N N  G  GGG   !            |
|           WW  WW  A    A  R   R   N   NN  II  N   NN  G    G                |
|           W    W  A    A  R    R  N    N  II  N    N   GGGG   !!!           |
|                                                                             |
|      You have enabled k-point parallelism (KPAR>1).                         |
|      This developmental code was originally  written by Paul Kent at ORNL,  |
|      and carefully double checked in Vienna.                                |
|      GW as well as linear response parallelism added by Martijn Marsman     |
|      and Georg Kresse.                                                      |
|      Carefully verify results versus KPAR=1.                                |
|      Report problems to Paul Kent and Vienna.                               |
|                                                                             |
 ----------------------------------------------------------------------------- 

 POTCAR:    PAW_PBE Al 04Jan2001                  
   VRHFIN =Al: s2p1                                                             
   LEXCH  = PE                                                                  
   EATOM  =    53.5387 eV,    3.9350 Ry                                         
                                                                                
   TITEL  = PAW_PBE Al 04Jan2001                                                
   LULTRA =        F    use ultrasoft PP ?                                      
   IUNSCR =        1    unscreen: 0-lin 1-nonlin 2-no                           
   RPACOR =    1.500    partial core radius                                     
   POMASS =   26.981; ZVAL   =    3.000    mass and valenz                      
   RCORE  =    1.900    outmost cutoff radius                                   
   RWIGS  =    2.650; RWIGS  =    1.402    wigner-seitz radius (au A)           
   ENMAX  =  240.300; ENMIN  =  180.225 eV                                      
   ICORE  =        2    local potential                                         
   LCOR   =        T    correct aug charges                                     
   LPAW   =        T    paw PP                                                  
   EAUG   =  291.052                                                            
   DEXC   =    0.000                                                            
   RMAX   =    1.939    core radius for proj-oper                               
   RAUG   =    1.300    factor for augmentation sphere                          
   RDEP   =    1.966    radius for radial grids                                 
   RDEPT  =    1.856    core radius for aug-charge                              
                                                                                
   Atomic configuration                                                         
    6 entries                                                                   
     n  l   j            E        occ.                                          
     1  0  0.50     -1511.1048   2.0000                                         
     2  0  0.50      -108.1629   2.0000                                         
     2  1  1.50       -69.6402   6.0000                                         
     3  0  0.50        -7.7528   2.0000                                         
     3  1  1.50        -2.7121   1.0000                                         
     3  2  2.50        -2.7212   0.0000                                         
   Description                                                                  
     l       E           TYP  RCUT    TYP  RCUT                                 
     0     -7.7528455     23  1.900                                             
     0     -3.3096929     23  1.900                                             
     1     -2.7120682     23  1.900                                             
     1     13.6058260     23  1.900                                             
     2     -2.7211652      7  1.900                                             
  local pseudopotential read in
  partial core-charges read in
  partial kinetic energy density read in
  atomic valenz-charges read in
  non local Contribution for L=           0  read in
    real space projection operators read in
  non local Contribution for L=           0  read in
    real space projection operators read in
  non local Contribution for L=           1  read in
    real space projection operators read in
  non local Contribution for L=           1  read in
    real space projection operators read in
    PAW grid and wavefunctions read in
 
   number of l-projection  operators is LMAX  =           4
   number of lm-projection operators is LMMAX =           8
 
 POTCAR:    PAW_PBE Mn 06Sep2000                  
   VRHFIN =Mn: d6 s1                                                            
   LEXCH  = PE                                                                  
   EATOM  =   416.7541 eV,   30.6306 Ry                                         
                                                                                
   TITEL  = PAW_PBE Mn 06Sep2000                                                
   LULTRA =        F    use ultrasoft PP ?                                      
   IUNSCR =        1    unscreen: 0-lin 1-nonlin 2-no                           
   RPACOR =    2.000    partial core radius                                     
   POMASS =   54.938; ZVAL   =    7.000    mass and valenz                      
   RCORE  =    2.300    outmost cutoff radius                                   
   RWIGS  =    2.500; RWIGS  =    1.323    wigner-seitz radius (au A)           
   ENMAX  =  269.864; ENMIN  =  202.398 eV                                      
   RCLOC  =    1.725    cutoff for local pot                                    
   LCOR   =        T    correct aug charges                                     
   LPAW   =        T    paw PP                                                  
   EAUG   =  500.711                                                            
   DEXC   =    0.000                                                            
   RMAX   =    2.343    core radius for proj-oper                               
   RAUG   =    1.300    factor for augmentation sphere                          
   RDEP   =    2.338    radius for radial grids                                 
   RDEPT  =    1.911    core radius for aug-charge                              
                                                                                
   Atomic configuration                                                         
    9 entries                                                                   
     n  l   j            E        occ.                                          
     1  0  0.50     -6424.8288   2.0000                                         
     2  0  0.50      -739.1154   2.0000                                         
     2  1  1.50      -625.3949   6.0000                                         
     3  0  0.50       -81.6100   2.0000                                         
     3  1  1.50       -50.4667   6.0000                                         
     3  2  2.50        -3.3745   6.0000                                         
     4  0  0.50        -4.1331   1.0000                                         
     4  1  0.50        -4.0817   0.0000                                         
     4  3  2.50        -1.3606   0.0000                                         
   Description                                                                  
     l       E           TYP  RCUT    TYP  RCUT                                 
     2     -3.3744664     23  2.300                                             
     2     -4.7350490     23  2.300                                             
     0     -4.1331408     23  2.300                                             
     0      7.6656614     23  2.300                                             
     1     -2.7211652     23  2.300                                             
     1     20.4087390     23  2.300                                             
  local pseudopotential read in
  partial core-charges read in
  partial kinetic energy density read in
  atomic valenz-charges read in
  non local Contribution for L=           2  read in
    real space projection operators read in
  non local Contribution for L=           2  read in
    real space projection operators read in
  non local Contribution for L=           0  read in
    real space projection operators read in
  non local Contribution for L=           0  read in
    real space projection operators read in
  non local Contribution for L=           1  read in
    real space projection operators read in
  non local Contribution for L=           1  read in
    real space projection operators read in
    PAW grid and wavefunctions read in
 
   number of l-projection  operators is LMAX  =           6
   number of lm-projection operators is LMMAX =          18
 

 ----------------------------------------------------------------------------- 
|                                                                             |
|  ADVICE TO THIS USER RUNNING 'VASP/VAMP'   (HEAR YOUR MASTER'S VOICE ...):  |
|                                                                             |
|      You have a (more or less) 'large supercell' and for larger cells       |
|      it might be more efficient to use real space projection opertators     |
|      So try LREAL= Auto  in the INCAR   file.                               |
|      Mind:          For very  accurate calculation you might also keep the  |
|      reciprocal projection scheme          (i.e. LREAL=.FALSE.)             |
|                                                                             |
 ----------------------------------------------------------------------------- 

  PAW_PBE Al 04Jan2001                  :
 energy of atom  1       EATOM=  -53.5387
 kinetic energy error for atom=    0.0005 (will be added to EATOM!!)
  PAW_PBE Mn 06Sep2000                  :
 energy of atom  2       EATOM= -416.7541
 kinetic energy error for atom=    0.0080 (will be added to EATOM!!)
 
 
 POSCAR: NewRef: 27, @ ['Mn', array([1.37502469, 
  positions in cartesian coordinates
  velocities in cartesian coordinates
  No initial velocities read in
 exchange correlation table for  LEXCH =        8
   RHO(1)=    0.500       N(1)  =     2000
   RHO(2)=  100.500       N(2)  =     4000
 


--------------------------------------------------------------------------------------------------------


 ion  position               nearest neighbor table
   1  0.000  0.000  0.000-  28 2.61  30 2.61  34 2.61  36 2.61  46 2.61  48 2.61  52 2.61  54 2.61
                             4 2.75  10 2.75   7 2.75  19 2.75
   2  0.000  0.000  0.333-  28 2.61  34 2.61  46 2.61  52 2.61  29 2.61  47 2.61  35 2.61  53 2.61
                             5 2.75  11 2.75   8 2.75  20 2.75
   3  0.000  0.000  0.667-  29 2.61  35 2.61  47 2.61  53 2.61  30 2.61  48 2.61  36 2.61  54 2.61
                             6 2.75  12 2.75   9 2.75  21 2.75
   4  0.000  0.333  0.000-  28 2.61  30 2.61  46 2.61  48 2.61  31 2.61  33 2.61  49 2.61  51 2.61
                            13 2.75   1 2.75   7 2.75  22 2.75
   5  0.000  0.333  0.333-  28 2.61  46 2.61  31 2.61  49 2.61  47 2.61  29 2.61  32 2.61  50 2.61
                            14 2.75   2 2.75   8 2.75  23 2.75
   6  0.000  0.333  0.667-  29 2.61  47 2.61  32 2.61  50 2.61  48 2.61  30 2.61  33 2.61  51 2.61
                            15 2.75   3 2.75   9 2.75  24 2.75
   7  0.000  0.667  0.000-  31 2.61  33 2.61  49 2.61  51 2.61  34 2.61  36 2.61  52 2.61  54 2.61
                             4 2.75  16 2.75   1 2.75  25 2.75
   8  0.000  0.667  0.333-  31 2.61  49 2.61  34 2.61  52 2.61  50 2.61  32 2.61  35 2.61  53 2.61
                             5 2.75  17 2.75   2 2.75  26 2.75
   9  0.000  0.667  0.667-  32 2.61  50 2.61  35 2.61  53 2.61  51 2.61  33 2.61  36 2.61  54 2.61
                             6 2.75  18 2.75   3 2.75  27 2.75
  10  0.333  0.000  0.000-  28 2.61  30 2.61  34 2.61  36 2.61  37 2.61  39 2.61  43 2.61  45 2.61
                            19 2.75   1 2.75  13 2.75  16 2.75
  11  0.333  0.000  0.333-  28 2.61  34 2.61  37 2.61  43 2.61  29 2.61  35 2.61  38 2.61  44 2.61
                            20 2.75   2 2.75  14 2.75  17 2.75
  12  0.333  0.000  0.667-  29 2.61  35 2.61  38 2.61  44 2.61  30 2.61  36 2.61  39 2.61  45 2.61
                            21 2.75   3 2.75  15 2.75  18 2.75
  13  0.333  0.333  0.000-  28 2.61  30 2.61  31 2.61  33 2.61  37 2.61  39 2.61  40 2.61  42 2.61
                             4 2.75  10 2.75  16 2.75  22 2.75
  14  0.333  0.333  0.333-  28 2.61  31 2.61  37 2.61  29 2.61  40 2.61  38 2.61  32 2.61  41 2.61
                             5 2.75  11 2.75  17 2.75  23 2.75
  15  0.333  0.333  0.667-  29 2.61  32 2.61  38 2.61  30 2.61  41 2.61  39 2.61  33 2.61  42 2.61
                             6 2.75  12 2.75  18 2.75  24 2.75
  16  0.333  0.667  0.000-  31 2.61  33 2.61  34 2.61  36 2.61  40 2.61  42 2.61  43 2.61  45 2.61
                            25 2.75   7 2.75  13 2.75  10 2.75
  17  0.333  0.667  0.333-  31 2.61  34 2.61  40 2.61  32 2.61  43 2.61  41 2.61  35 2.61  44 2.61
                            26 2.75   8 2.75  14 2.75  11 2.75
  18  0.333  0.667  0.667-  32 2.61  35 2.61  41 2.61  33 2.61  44 2.61  42 2.61  36 2.61  45 2.61
                            27 2.75   9 2.75  15 2.75  12 2.75
  19  0.667  0.000  0.000-  37 2.61  39 2.61  43 2.61  45 2.61  46 2.61  48 2.61  52 2.61  54 2.61
                            10 2.75  22 2.75   1 2.75  25 2.75
  20  0.667  0.000  0.333-  37 2.61  43 2.61  46 2.61  52 2.61  38 2.61  44 2.61  47 2.61  53 2.61
                            11 2.75  23 2.75   2 2.75  26 2.75
  21  0.667  0.000  0.667-  38 2.61  44 2.61  47 2.61  53 2.61  39 2.61  45 2.61  48 2.61  54 2.61
                            12 2.75  24 2.75   3 2.75  27 2.75
  22  0.667  0.333  0.000-  37 2.61  39 2.61  40 2.61  42 2.61  46 2.61  48 2.61  49 2.61  51 2.61
                            25 2.75  13 2.75  19 2.75   4 2.75
  23  0.667  0.333  0.333-  37 2.61  40 2.61  46 2.61  38 2.61  49 2.61  47 2.61  41 2.61  50 2.61
                            26 2.75  14 2.75  20 2.75   5 2.75
  24  0.667  0.333  0.667-  38 2.61  41 2.61  47 2.61  39 2.61  50 2.61  48 2.61  42 2.61  51 2.61
                            27 2.75  15 2.75  21 2.75   6 2.75
  25  0.667  0.667  0.000-  40 2.61  42 2.61  43 2.61  45 2.61  49 2.61  51 2.61  52 2.61  54 2.61
                            16 2.75  22 2.75  19 2.75   7 2.75
  26  0.667  0.667  0.333-  40 2.61  43 2.61  49 2.61  41 2.61  52 2.61  50 2.61  44 2.61  53 2.61
                            17 2.75  23 2.75  20 2.75   8 2.75
  27  0.667  0.667  0.667-  41 2.61  44 2.61  50 2.61  42 2.61  53 2.61  51 2.61  45 2.61  54 2.61
                            18 2.75  24 2.75  21 2.75   9 2.75
  28  0.167  0.167  0.167-  14 2.61  11 2.61   5 2.61  13 2.61   2 2.61  10 2.61   4 2.61   1 2.61
                            31 2.75  37 2.75  34 2.75  46 2.75
  29  0.167  0.167  0.500-  15 2.61  12 2.61   6 2.61  14 2.61   3 2.61  11 2.61   5 2.61   2 2.61
                            32 2.75  38 2.75  35 2.75  47 2.75
  30  0.167  0.167  0.833-  13 2.61  15 2.61  10 2.61  12 2.61   4 2.61   6 2.61   1 2.61   3 2.61
                            33 2.75  39 2.75  36 2.75  48 2.75
  31  0.167  0.500  0.167-  17 2.61  14 2.61   8 2.61  16 2.61   5 2.61  13 2.61   7 2.61   4 2.61
                            28 2.75  34 2.75  40 2.75  49 2.75
  32  0.167  0.500  0.500-  18 2.61  15 2.61   9 2.61  17 2.61   6 2.61  14 2.61   8 2.61   5 2.61
                            29 2.75  35 2.75  41 2.75  50 2.75
  33  0.167  0.500  0.833-  16 2.61  18 2.61  13 2.61  15 2.61   7 2.61   9 2.61   4 2.61   6 2.61
                            30 2.75  36 2.75  42 2.75  51 2.75
  34  0.167  0.833  0.167-  11 2.61  17 2.61   2 2.61   8 2.61  16 2.61  10 2.61   7 2.61   1 2.61
                            31 2.75  43 2.75  28 2.75  52 2.75
  35  0.167  0.833  0.500-  12 2.61  18 2.61   3 2.61   9 2.61  17 2.61  11 2.61   8 2.61   2 2.61
                            32 2.75  44 2.75  29 2.75  53 2.75
  36  0.167  0.833  0.833-  10 2.61  12 2.61  16 2.61  18 2.61   1 2.61   3 2.61   7 2.61   9 2.61
                            33 2.75  45 2.75  30 2.75  54 2.75
  37  0.500  0.167  0.167-  23 2.61  20 2.61  14 2.61  22 2.61  11 2.61  19 2.61  13 2.61  10 2.61
                            28 2.75  40 2.75  46 2.75  43 2.75
  38  0.500  0.167  0.500-  24 2.61  21 2.61  15 2.61  23 2.61  12 2.61  20 2.61  14 2.61  11 2.61
                            29 2.75  41 2.75  47 2.75  44 2.75
  39  0.500  0.167  0.833-  22 2.61  24 2.61  19 2.61  21 2.61  13 2.61  15 2.61  10 2.61  12 2.61
                            30 2.75  42 2.75  48 2.75  45 2.75
  40  0.500  0.500  0.167-  26 2.61  23 2.61  17 2.61  25 2.61  14 2.61  22 2.61  16 2.61  13 2.61
                            31 2.75  37 2.75  43 2.75  49 2.75
  41  0.500  0.500  0.500-  27 2.61  24 2.61  18 2.61  26 2.61  15 2.61  23 2.61  17 2.61  14 2.61
                            32 2.75  38 2.75  44 2.75  50 2.75
  42  0.500  0.500  0.833-  25 2.61  27 2.61  22 2.61  24 2.61  16 2.61  18 2.61  13 2.61  15 2.61
                            33 2.75  39 2.75  45 2.75  51 2.75
  43  0.500  0.833  0.167-  20 2.61  26 2.61  11 2.61  17 2.61  25 2.61  19 2.61  16 2.61  10 2.61
                            34 2.75  40 2.75  52 2.75  37 2.75
  44  0.500  0.833  0.500-  21 2.61  27 2.61  12 2.61  18 2.61  26 2.61  20 2.61  17 2.61  11 2.61
                            35 2.75  41 2.75  53 2.75  38 2.75
  45  0.500  0.833  0.833-  19 2.61  21 2.61  25 2.61  27 2.61  10 2.61  12 2.61  16 2.61  18 2.61
                            36 2.75  42 2.75  54 2.75  39 2.75
  46  0.833  0.167  0.167-   5 2.61  23 2.61  20 2.61   2 2.61  22 2.61   4 2.61  19 2.61   1 2.61
                            37 2.75  49 2.75  28 2.75  52 2.75
  47  0.833  0.167  0.500-   6 2.61  24 2.61  21 2.61   3 2.61  23 2.61   5 2.61  20 2.61   2 2.61
                            38 2.75  50 2.75  29 2.75  53 2.75
  48  0.833  0.167  0.833-   4 2.61   6 2.61  22 2.61  24 2.61  19 2.61  21 2.61   1 2.61   3 2.61
                            39 2.75  51 2.75  30 2.75  54 2.75
  49  0.833  0.500  0.167-   8 2.61  26 2.61  23 2.61   5 2.61  25 2.61   7 2.61  22 2.61   4 2.61
                            40 2.75  46 2.75  52 2.75  31 2.75
  50  0.833  0.500  0.500-   9 2.61  27 2.61  24 2.61   6 2.61  26 2.61   8 2.61  23 2.61   5 2.61
                            41 2.75  47 2.75  53 2.75  32 2.75
  51  0.833  0.500  0.833-   7 2.61   9 2.61  25 2.61  27 2.61  22 2.61  24 2.61   4 2.61   6 2.61
                            42 2.75  48 2.75  54 2.75  33 2.75
  52  0.833  0.833  0.167-   2 2.61   8 2.61  20 2.61  26 2.61  19 2.61   7 2.61  25 2.61   1 2.61
                            43 2.75  49 2.75  46 2.75  34 2.75
  53  0.833  0.833  0.500-   3 2.61   9 2.61  21 2.61  27 2.61  20 2.61   8 2.61  26 2.61   2 2.61
                            44 2.75  50 2.75  47 2.75  35 2.75
  54  0.833  0.833  0.833-   1 2.61   3 2.61   7 2.61   9 2.61  19 2.61  21 2.61  25 2.61  27 2.61
                            45 2.75  51 2.75  48 2.75  36 2.75
 
  LATTYP: Found a simple tetragonal cell.
 ALAT       =     8.2501481662
 C/A-ratio  =     1.2642089792
  
  Lattice vectors:
  
 A1 = (   8.2501481662,   0.0000000000,   0.0000000000)
 A2 = (   0.0000000000,   8.2501481662,   0.0000000000)
 A3 = (   0.0000000000,   0.0000000000,  10.4299113916)


Analysis of symmetry for initial positions (statically):
=====================================================================
 Subroutine PRICEL returns following result:
 
  LATTYP: Found a simple tetragonal cell.
 ALAT       =     2.7500493888
 C/A-ratio  =     1.2642089792
  
  Lattice vectors:
  
 A1 = (   2.7500493888,   0.0000000000,   0.0000000000)
 A2 = (   0.0000000000,   2.7500493888,   0.0000000000)
 A3 = (   0.0000000000,   0.0000000000,   3.4766371306)
 
  27 primitive cells build up your supercell.
 

 Routine SETGRP: Setting up the symmetry group for a 
 simple tetragonal supercell.


 Subroutine GETGRP returns: Found 16 space group operations
 (whereof 16 operations were pure point group operations)
 out of a pool of 16 trial point group operations.


The static configuration has the point symmetry D_4h.


Analysis of symmetry for dynamics (positions and initial velocities):
=====================================================================
 Subroutine PRICEL returns following result:
 
  LATTYP: Found a simple tetragonal cell.
 ALAT       =     2.7500493888
 C/A-ratio  =     1.2642089792
  
  Lattice vectors:
  
 A1 = (   2.7500493888,   0.0000000000,   0.0000000000)
 A2 = (   0.0000000000,   2.7500493888,   0.0000000000)
 A3 = (   0.0000000000,   0.0000000000,   3.4766371306)
 
  27 primitive cells build up your supercell.
 

 Routine SETGRP: Setting up the symmetry group for a 
 simple tetragonal supercell.


 Subroutine GETGRP returns: Found 16 space group operations
 (whereof 16 operations were pure point group operations)
 out of a pool of 16 trial point group operations.


The dynamic configuration has the point symmetry D_4h.


Analysis of structural, dynamic, and magnetic symmetry:
=====================================================================
 Subroutine PRICEL returns:
 Original cell was already a primitive cell.
 

 Routine SETGRP: Setting up the symmetry group for a 
 simple tetragonal supercell.


 Subroutine GETGRP returns: Found  4 space group operations
 (whereof  2 operations were pure point group operations)
 out of a pool of 16 trial point group operations.


The magnetic configuration has the point symmetry C_1h.
 The point group associated with its full space group is C_2v.


 Subroutine INISYM returns: Found  4 space group operations
 (whereof  2 operations are pure point group operations),
 and found     1 'primitive' translations

 
 
 KPOINTS: automatic KPOINTS                       

Automatic generation of k-mesh.
 generate k-points for:    5    5    4
Space group operators:
 irot       det(A)        alpha          n_x          n_y          n_z        tau_x        tau_y        tau_z
    1     1.000000     0.000001     1.000000     0.000000     0.000000     0.000000     0.000000     0.000000
    2    -1.000000   180.000000     1.000000     0.000000     0.000000     0.000000     0.000000     0.000000
    3     1.000000   180.000000     0.000000     0.000000     1.000000     0.000000     0.666667     0.000000
    4    -1.000000   180.000000     0.000000     1.000000     0.000000     0.000000     0.666667     0.000000
 
 Subroutine IBZKPT returns following result:
 ===========================================
 
 Found     27 irreducible k-points:
 
 Following reciprocal coordinates:
            Coordinates               Weight
  0.000000  0.000000  0.000000      1.000000
  0.200000  0.000000  0.000000      2.000000
  0.400000  0.000000  0.000000      2.000000
  0.000000  0.200000  0.000000      2.000000
  0.200000  0.200000  0.000000      4.000000
  0.400000  0.200000  0.000000      4.000000
  0.000000  0.400000  0.000000      2.000000
  0.200000  0.400000  0.000000      4.000000
  0.400000  0.400000  0.000000      4.000000
  0.000000  0.000000  0.250000      2.000000
  0.200000  0.000000  0.250000      4.000000
  0.400000  0.000000  0.250000      4.000000
  0.000000  0.200000  0.250000      4.000000
  0.200000  0.200000  0.250000      8.000000
  0.400000  0.200000  0.250000      8.000000
  0.000000  0.400000  0.250000      4.000000
  0.200000  0.400000  0.250000      8.000000
  0.400000  0.400000  0.250000      8.000000
  0.000000  0.000000  0.500000      1.000000
  0.200000  0.000000  0.500000      2.000000
  0.400000  0.000000  0.500000      2.000000
  0.000000  0.200000  0.500000      2.000000
  0.200000  0.200000  0.500000      4.000000
  0.400000  0.200000  0.500000      4.000000
  0.000000  0.400000  0.500000      2.000000
  0.200000  0.400000  0.500000      4.000000
  0.400000  0.400000  0.500000      4.000000
 
 Following cartesian coordinates:
            Coordinates               Weight
  0.000000  0.000000  0.000000      1.000000
  0.024242  0.000000  0.000000      2.000000
  0.048484  0.000000  0.000000      2.000000
  0.000000  0.024242  0.000000      2.000000
  0.024242  0.024242  0.000000      4.000000
  0.048484  0.024242  0.000000      4.000000
  0.000000  0.048484  0.000000      2.000000
  0.024242  0.048484  0.000000      4.000000
  0.048484  0.048484  0.000000      4.000000
  0.000000  0.000000  0.023970      2.000000
  0.024242  0.000000  0.023970      4.000000
  0.048484  0.000000  0.023970      4.000000
  0.000000  0.024242  0.023970      4.000000
  0.024242  0.024242  0.023970      8.000000
  0.048484  0.024242  0.023970      8.000000
  0.000000  0.048484  0.023970      4.000000
  0.024242  0.048484  0.023970      8.000000
  0.048484  0.048484  0.023970      8.000000
  0.000000  0.000000  0.047939      1.000000
  0.024242  0.000000  0.047939      2.000000
  0.048484  0.000000  0.047939      2.000000
  0.000000  0.024242  0.047939      2.000000
  0.024242  0.024242  0.047939      4.000000
  0.048484  0.024242  0.047939      4.000000
  0.000000  0.048484  0.047939      2.000000
  0.024242  0.048484  0.047939      4.000000
  0.048484  0.048484  0.047939      4.000000
 


--------------------------------------------------------------------------------------------------------




 Dimension of arrays:
   k-points           NKPTS =     27   k-points in BZ     NKDIM =     27   number of bands    NBANDS=    172
   number of dos      NEDOS =    301   number of ions     NIONS =     54
   non local maximal  LDIM  =      6   non local SUM 2l+1 LMDIM =     18
   total plane-waves  NPLWV = 204120
   max r-space proj   IRMAX =      1   max aug-charges    IRDMAX=  89713
   dimension x,y,z NGX =    54 NGY =   54 NGZ =   70
   dimension x,y,z NGXF=   108 NGYF=  108 NGZF=  140
   support grid    NGXF=   216 NGYF=  216 NGZF=  280
   ions per type =              27  27
   NGX,Y,Z   is equivalent  to a cutoff of  10.88, 10.88, 11.16 a.u.
   NGXF,Y,Z  is equivalent  to a cutoff of  21.76, 21.76, 22.32 a.u.

 SYSTEM =  AlMn_pv                                 
 POSCAR =  NewRef: 27, @ ['Mn', array([1.37502469, 

 Startparameter for this run:
   NWRITE =      2    write-flag & timer
   PREC   = accura    normal or accurate (medium, high low for compatibility)
   ISTART =      0    job   : 0-new  1-cont  2-samecut
   ICHARG =      2    charge: 1-file 2-atom 10-const
   ISPIN  =      2    spin polarized calculation?
   LNONCOLLINEAR =      F non collinear calculations
   LSORBIT =      F    spin-orbit coupling
   INIWAV =      1    electr: 0-lowe 1-rand  2-diag
   LASPH  =      F    aspherical Exc in radial PAW
   METAGGA=      F    non-selfconsistent MetaGGA calc.

 Electronic Relaxation 1
   ENCUT  =  404.8 eV  29.75 Ry    5.45 a.u.  13.53 13.53 17.11*2*pi/ulx,y,z
   ENINI  =  404.8     initial cutoff
   ENAUG  =  500.7 eV  augmentation charge cutoff
   NELM   =    100;   NELMIN=  4; NELMDL= -8     # of ELM steps 
   EDIFF  = 0.1E-06   stopping-criterion for ELM
   LREAL  =      F    real-space projection
   NLSPLINE    = F    spline interpolate recip. space projectors
   LCOMPAT=      F    compatible to vasp.4.4
   GGA_COMPAT  = T    GGA compatible to vasp.4.4-vasp.4.6
   LMAXPAW     = -100 max onsite density
   LMAXMIX     =    2 max onsite mixed and CHGCAR
   VOSKOWN=      0    Vosko Wilk Nusair interpolation
   ROPT   =    0.00000   0.00000
 Ionic relaxation
   EDIFFG = 0.1E-05   stopping-criterion for IOM
   NSW    =      0    number of steps for IOM
   NBLOCK =      1;   KBLOCK =      1    inner block; outer block 
   IBRION =     -1    ionic relax: 0-MD 1-quasi-New 2-CG
   NFREE  =      0    steps in history (QN), initial steepest desc. (CG)
   ISIF   =      2    stress and relaxation
   IWAVPR =     10    prediction:  0-non 1-charg 2-wave 3-comb
   ISYM   =      2    0-nonsym 1-usesym 2-fastsym
   LCORR  =      T    Harris-Foulkes like correction to forces

   POTIM  = 0.2000    time-step for ionic-motion
   TEIN   =    0.0    initial temperature
   TEBEG  =    0.0;   TEEND  =   0.0 temperature during run
   SMASS  =  -3.00    Nose mass-parameter (am)
   estimated Nose-frequenzy (Omega)   =  0.10E-29 period in steps =****** mass=  -0.156E-26a.u.
   SCALEE = 1.0000    scale energy and forces
   NPACO  =    256;   APACO  = 16.0  distance and # of slots for P.C.
   PSTRESS=    0.0 pullay stress

  Mass of Ions in am
   POMASS =  26.98 54.94
  Ionic Valenz
   ZVAL   =   3.00  7.00
  Atomic Wigner-Seitz radii
   RWIGS  =  -1.00 -1.00
  virtual crystal weights 
   VCA    =   1.00  1.00
   NELECT =     270.0000    total number of electrons
   NUPDOWN=      -1.0000    fix difference up-down

 DOS related values:
   EMIN   =  10.00;   EMAX   =-10.00  energy-range for DOS
   EFERMI =   0.00
   ISMEAR =     1;   SIGMA  =   0.20  broadening in eV -4-tet -1-fermi 0-gaus

 Electronic relaxation 2 (details)
   IALGO  =     58    algorithm
   LDIAG  =      T    sub-space diagonalisation (order eigenvalues)
   LSUBROT=      F    optimize rotation matrix (better conditioning)
   TURBO    =      0    0=normal 1=particle mesh
   IRESTART =      0    0=no restart 2=restart with 2 vectors
   NREBOOT  =      0    no. of reboots
   NMIN     =      0    reboot dimension
   EREF     =   0.00    reference energy to select bands
   IMIX   =      4    mixing-type and parameters
     AMIX     =   0.40;   BMIX     =  1.00
     AMIX_MAG =   1.60;   BMIX_MAG =  1.00
     AMIN     =   0.10
     WC   =   100.;   INIMIX=   1;  MIXPRE=   1;  MAXMIX= -45

 Intra band minimization:
   WEIMIN = 0.0000     energy-eigenvalue tresh-hold
   EBREAK =  0.15E-09  absolut break condition
   DEPER  =   0.30     relativ break condition  

   TIME   =   0.40     timestep for ELM

  volume/ion in A,a.u.               =      13.15        88.72
  Fermi-wavevector in a.u.,A,eV,Ry     =   1.186118  2.241439 19.141722  1.406877
  Thomas-Fermi vector in A             =   2.322298
 
 Write flags
   LWAVE        =      F    write WAVECAR
   LDOWNSAMPLE  =      F    k-point downsampling of WAVECAR
   LCHARG       =      F    write CHGCAR
   LVTOT        =      F    write LOCPOT, total local potential
   LVHAR        =      F    write LOCPOT, Hartree potential only
   LELF         =      F    write electronic localiz. function (ELF)
   LORBIT       =     10    0 simple, 1 ext, 2 COOP (PROOUT), +10 PAW based schemes


 Dipole corrections
   LMONO  =      F    monopole corrections only (constant potential shift)
   LDIPOL =      F    correct potential (dipole corrections)
   IDIPOL =      0    1-x, 2-y, 3-z, 4-all directions 
   EPSILON=  1.0000000 bulk dielectric constant

 Exchange correlation treatment:
   GGA     =    --    GGA type
   LEXCH   =     8    internal setting for exchange type
   VOSKOWN=      0    Vosko Wilk Nusair interpolation
   LHFCALC =     F    Hartree Fock is set to
   LHFONE  =     F    Hartree Fock one center treatment
   AEXX    =    0.0000 exact exchange contribution

 Linear response parameters
   LEPSILON=     F    determine dielectric tensor
   LRPA    =     F    only Hartree local field effects (RPA)
   LNABLA  =     F    use nabla operator in PAW spheres
   LVEL    =     F    velocity operator in full k-point grid
   LINTERFAST=   F  fast interpolation
   KINTER  =     0    interpolate to denser k-point grid
   CSHIFT  =0.1000    complex shift for real part using Kramers Kronig
   OMEGAMAX=  -1.0    maximum frequency
   DEG_THRESHOLD= 0.2000000E-02 threshold for treating states as degnerate
   RTIME   =   -0.100 relaxation time in fs
  (WPLASMAI=    0.000 imaginary part of plasma frequency in eV, 0.658/RTIME)
   DFIELD  = 0.0000000 0.0000000 0.0000000 field for delta impulse in time
 
 Orbital magnetization related:
   ORBITALMAG=     F  switch on orbital magnetization
   LCHIMAG   =     F  perturbation theory with respect to B field
   DQ        =  0.001000  dq finite difference perturbation B field
   LLRAUG    =     F  two centre corrections for induced B field



--------------------------------------------------------------------------------------------------------


 Static calculation
 charge density and potential will be updated during run
 spin polarized calculation
 Conjugate gradient for all bands (Freysoldt, et al. PRB 79, 241103 (2009))
 preconditioned conjugated gradient                                        
 perform sub-space diagonalisation
    before iterative eigenvector-optimisation
 modified Broyden-mixing scheme, WC =      100.0
 initial mixing is a Kerker type mixing with AMIX =  0.4000 and BMIX =      1.0000
 Hartree-type preconditioning will be used
 using additional bands           37
 reciprocal scheme for non local part
 use partial core corrections
 no Harris-corrections to forces 
 use gradient corrections 
 use of overlap-Matrix (Vanderbilt PP)
 Methfessel and Paxton  Order N= 1 SIGMA  =   0.20


--------------------------------------------------------------------------------------------------------


  energy-cutoff  :      404.80
  volume of cell :      709.91
      direct lattice vectors                 reciprocal lattice vectors
     8.250148166  0.000000000  0.000000000     0.121209944  0.000000000  0.000000000
     0.000000000  8.250148166  0.000000000     0.000000000  0.121209944  0.000000000
     0.000000000  0.000000000 10.429911392     0.000000000  0.000000000  0.095878092

  length of vectors
     8.250148166  8.250148166 10.429911392     0.121209944  0.121209944  0.095878092


 
 k-points in units of 2pi/SCALE and weight: automatic KPOINTS                       
   0.00000000  0.00000000  0.00000000       0.010
   0.02424199  0.00000000  0.00000000       0.020
   0.04848398  0.00000000  0.00000000       0.020
   0.00000000  0.02424199  0.00000000       0.020
   0.02424199  0.02424199  0.00000000       0.040
   0.04848398  0.02424199  0.00000000       0.040
   0.00000000  0.04848398  0.00000000       0.020
   0.02424199  0.04848398  0.00000000       0.040
   0.04848398  0.04848398  0.00000000       0.040
   0.00000000  0.00000000  0.02396952       0.020
   0.02424199  0.00000000  0.02396952       0.040
   0.04848398  0.00000000  0.02396952       0.040
   0.00000000  0.02424199  0.02396952       0.040
   0.02424199  0.02424199  0.02396952       0.080
   0.04848398  0.02424199  0.02396952       0.080
   0.00000000  0.04848398  0.02396952       0.040
   0.02424199  0.04848398  0.02396952       0.080
   0.04848398  0.04848398  0.02396952       0.080
   0.00000000  0.00000000  0.04793905       0.010
   0.02424199  0.00000000  0.04793905       0.020
   0.04848398  0.00000000  0.04793905       0.020
   0.00000000  0.02424199  0.04793905       0.020
   0.02424199  0.02424199  0.04793905       0.040
   0.04848398  0.02424199  0.04793905       0.040
   0.00000000  0.04848398  0.04793905       0.020
   0.02424199  0.04848398  0.04793905       0.040
   0.04848398  0.04848398  0.04793905       0.040
 
 k-points in reciprocal lattice and weights: automatic KPOINTS                       
   0.00000000  0.00000000  0.00000000       0.010
   0.20000000  0.00000000  0.00000000       0.020
   0.40000000  0.00000000  0.00000000       0.020
   0.00000000  0.20000000  0.00000000       0.020
   0.20000000  0.20000000  0.00000000       0.040
   0.40000000  0.20000000  0.00000000       0.040
   0.00000000  0.40000000  0.00000000       0.020
   0.20000000  0.40000000  0.00000000       0.040
   0.40000000  0.40000000  0.00000000       0.040
   0.00000000  0.00000000  0.25000000       0.020
   0.20000000  0.00000000  0.25000000       0.040
   0.40000000  0.00000000  0.25000000       0.040
   0.00000000  0.20000000  0.25000000       0.040
   0.20000000  0.20000000  0.25000000       0.080
   0.40000000  0.20000000  0.25000000       0.080
   0.00000000  0.40000000  0.25000000       0.040
   0.20000000  0.40000000  0.25000000       0.080
   0.40000000  0.40000000  0.25000000       0.080
   0.00000000  0.00000000  0.50000000       0.010
   0.20000000  0.00000000  0.50000000       0.020
   0.40000000  0.00000000  0.50000000       0.020
   0.00000000  0.20000000  0.50000000       0.020
   0.20000000  0.20000000  0.50000000       0.040
   0.40000000  0.20000000  0.50000000       0.040
   0.00000000  0.40000000  0.50000000       0.020
   0.20000000  0.40000000  0.50000000       0.040
   0.40000000  0.40000000  0.50000000       0.040
 
 position of ions in fractional coordinates (direct lattice) 
   0.00000000  0.00000000  0.00000000
   0.00000000  0.00000000  0.33333333
   0.00000000  0.00000000  0.66666667
   0.00000000  0.33333333  0.00000000
   0.00000000  0.33333333  0.33333333
   0.00000000  0.33333333  0.66666667
   0.00000000  0.66666667  0.00000000
   0.00000000  0.66666667  0.33333333
   0.00000000  0.66666667  0.66666667
   0.33333333  0.00000000  0.00000000
   0.33333333  0.00000000  0.33333333
   0.33333333  0.00000000  0.66666667
   0.33333333  0.33333333  0.00000000
   0.33333333  0.33333333  0.33333333
   0.33333333  0.33333333  0.66666667
   0.33333333  0.66666667  0.00000000
   0.33333333  0.66666667  0.33333333
   0.33333333  0.66666667  0.66666667
   0.66666667  0.00000000  0.00000000
   0.66666667  0.00000000  0.33333333
   0.66666667  0.00000000  0.66666667
   0.66666667  0.33333333  0.00000000
   0.66666667  0.33333333  0.33333333
   0.66666667  0.33333333  0.66666667
   0.66666667  0.66666667  0.00000000
   0.66666667  0.66666667  0.33333333
   0.66666667  0.66666667  0.66666667
   0.16666667  0.16666667  0.16666667
   0.16666667  0.16666667  0.50000000
   0.16666667  0.16666667  0.83333333
   0.16666667  0.50000000  0.16666667
   0.16666667  0.50000000  0.50000000
   0.16666667  0.50000000  0.83333333
   0.16666667  0.83333333  0.16666667
   0.16666667  0.83333333  0.50000000
   0.16666667  0.83333333  0.83333333
   0.50000000  0.16666667  0.16666667
   0.50000000  0.16666667  0.50000000
   0.50000000  0.16666667  0.83333333
   0.50000000  0.50000000  0.16666667
   0.50000000  0.50000000  0.50000000
   0.50000000  0.50000000  0.83333333
   0.50000000  0.83333333  0.16666667
   0.50000000  0.83333333  0.50000000
   0.50000000  0.83333333  0.83333333
   0.83333333  0.16666667  0.16666667
   0.83333333  0.16666667  0.50000000
   0.83333333  0.16666667  0.83333333
   0.83333333  0.50000000  0.16666667
   0.83333333  0.50000000  0.50000000
   0.83333333  0.50000000  0.83333333
   0.83333333  0.83333333  0.16666667
   0.83333333  0.83333333  0.50000000
   0.83333333  0.83333333  0.83333333
 
 position of ions in cartesian coordinates  (Angst):
   0.00000000  0.00000000  0.00000000
   0.00000000  0.00000000  3.47663713
   0.00000000  0.00000000  6.95327426
   0.00000000  2.75004939  0.00000000
   0.00000000  2.75004939  3.47663713
   0.00000000  2.75004939  6.95327426
   0.00000000  5.50009878  0.00000000
   0.00000000  5.50009878  3.47663713
   0.00000000  5.50009878  6.95327426
   2.75004939  0.00000000  0.00000000
   2.75004939  0.00000000  3.47663713
   2.75004939  0.00000000  6.95327426
   2.75004939  2.75004939  0.00000000
   2.75004939  2.75004939  3.47663713
   2.75004939  2.75004939  6.95327426
   2.75004939  5.50009878  0.00000000
   2.75004939  5.50009878  3.47663713
   2.75004939  5.50009878  6.95327426
   5.50009878  0.00000000  0.00000000
   5.50009878  0.00000000  3.47663713
   5.50009878  0.00000000  6.95327426
   5.50009878  2.75004939  0.00000000
   5.50009878  2.75004939  3.47663713
   5.50009878  2.75004939  6.95327426
   5.50009878  5.50009878  0.00000000
   5.50009878  5.50009878  3.47663713
   5.50009878  5.50009878  6.95327426
   1.37502469  1.37502469  1.73831857
   1.37502469  1.37502469  5.21495570
   1.37502469  1.37502469  8.69159283
   1.37502469  4.12507408  1.73831857
   1.37502469  4.12507408  5.21495570
   1.37502469  4.12507408  8.69159283
   1.37502469  6.87512347  1.73831857
   1.37502469  6.87512347  5.21495570
   1.37502469  6.87512347  8.69159283
   4.12507408  1.37502469  1.73831857
   4.12507408  1.37502469  5.21495570
   4.12507408  1.37502469  8.69159283
   4.12507408  4.12507408  1.73831857
   4.12507408  4.12507408  5.21495570
   4.12507408  4.12507408  8.69159283
   4.12507408  6.87512347  1.73831857
   4.12507408  6.87512347  5.21495570
   4.12507408  6.87512347  8.69159283
   6.87512347  1.37502469  1.73831857
   6.87512347  1.37502469  5.21495570
   6.87512347  1.37502469  8.69159283
   6.87512347  4.12507408  1.73831857
   6.87512347  4.12507408  5.21495570
   6.87512347  4.12507408  8.69159283
   6.87512347  6.87512347  1.73831857
   6.87512347  6.87512347  5.21495570
   6.87512347  6.87512347  8.69159283
 


--------------------------------------------------------------------------------------------------------


 k-point  1 :   0.0000 0.0000 0.0000  plane waves:   13099
 k-point  2 :   0.2000 0.0000 0.0000  plane waves:   13101
 k-point  3 :   0.4000 0.0000 0.0000  plane waves:   13111
 k-point  4 :   0.0000 0.2000 0.0000  plane waves:   13101
 k-point  5 :   0.2000 0.2000 0.0000  plane waves:   13137
 k-point  6 :   0.4000 0.2000 0.0000  plane waves:   13119
 k-point  7 :   0.0000 0.4000 0.0000  plane waves:   13111
 k-point  8 :   0.2000 0.4000 0.0000  plane waves:   13119
 k-point  9 :   0.4000 0.4000 0.0000  plane waves:   13129
 k-point 10 :   0.0000 0.0000 0.2500  plane waves:   13134
 k-point 11 :   0.2000 0.0000 0.2500  plane waves:   13149
 k-point 12 :   0.4000 0.0000 0.2500  plane waves:   13119
 k-point 13 :   0.0000 0.2000 0.2500  plane waves:   13149
 k-point 14 :   0.2000 0.2000 0.2500  plane waves:   13145
 k-point 15 :   0.4000 0.2000 0.2500  plane waves:   13134
 k-point 16 :   0.0000 0.4000 0.2500  plane waves:   13119
 k-point 17 :   0.2000 0.4000 0.2500  plane waves:   13134
 k-point 18 :   0.4000 0.4000 0.2500  plane waves:   13108
 k-point 19 :   0.0000 0.0000 0.5000  plane waves:   13186
 k-point 20 :   0.2000 0.0000 0.5000  plane waves:   13124
 k-point 21 :   0.4000 0.0000 0.5000  plane waves:   13152
 k-point 22 :   0.0000 0.2000 0.5000  plane waves:   13124
 k-point 23 :   0.2000 0.2000 0.5000  plane waves:   13136
 k-point 24 :   0.4000 0.2000 0.5000  plane waves:   13128
 k-point 25 :   0.0000 0.4000 0.5000  plane waves:   13152
 k-point 26 :   0.2000 0.4000 0.5000  plane waves:   13128
 k-point 27 :   0.4000 0.4000 0.5000  plane waves:   13112

 maximum and minimum number of plane-waves per node :      3304     3246

 maximum number of plane-waves:     13186
 maximum index in each direction: 
   IXMAX=   13   IYMAX=   13   IZMAX=   17
   IXMIN=  -13   IYMIN=  -13   IZMIN=  -17


 parallel 3D FFT for wavefunctions:
    minimum data exchange during FFTs selected (reduces bandwidth)
 parallel 3D FFT for charge:
    minimum data exchange during FFTs selected (reduces bandwidth)


 total amount of memory used by VASP MPI-rank0   887625. kBytes
=======================================================================

   base      :      30000. kBytes
   nonl-proj :      28494. kBytes
   fftplans  :      31580. kBytes
   grid      :      21385. kBytes
   one-center:        435. kBytes
   wavefun   :     775731. kBytes
 
     INWAV:  cpu time    0.0000: real time    0.0000
 Broyden mixing: mesh for mixing (old mesh)
   NGX = 27   NGY = 27   NGZ = 35
  (NGX  =108   NGY  =108   NGZ  =140)
  gives a total of  25515 points

 initial charge density was supplied:
 charge density of overlapping atoms calculated
 number of electron     270.0000000 magnetization      15.0000000
 keeping initial charge density in first step


--------------------------------------------------------------------------------------------------------


 Maximum index for augmentation-charges        10967 (set IRDMAX)


--------------------------------------------------------------------------------------------------------


 First call to EWALD:  gamma=   0.199
 Maximum number of real-space cells 3x 3x 2
 Maximum number of reciprocal cells 3x 3x 3

    FEWALD:  cpu time    0.0133: real time    0.0133


--------------------------------------- Iteration      1(   1)  ---------------------------------------


    POTLOK:  cpu time    0.3975: real time    0.3975
    SETDIJ:  cpu time    0.4745: real time    0.4747
    TRIAL :  cpu time   30.5574: real time   30.7525
    CORREC:  cpu time    0.0056: real time    0.0057
    --------------------------------------------
      LOOP:  cpu time   31.6980: real time   31.9001

 eigenvalue-minimisations  : 18576
 total energy-change (2. order) : 0.2039307E+04  (-0.8839021E+04)
 number of electron     270.0000000 magnetization      15.0000000
 augmentation part      270.0000000 magnetization      15.0000000

 Free energy of the ion-electron system (eV)
  ---------------------------------------------------
  alpha Z        PSCENC =       798.38614055
  Ewald energy   TEWEN  =    -12901.57693327
  -Hartree energ DENC   =     -2855.60785864
  -exchange      EXHF   =         0.00000000
  -V(xc)+E(xc)   XCENC  =      -996.06378190
  PAW double counting   =     12741.82587617   -11476.22345381
  entropy T*S    EENTRO =         0.00433788
  eigenvalues    EBANDS =      4030.88827139
  atomic energy  EATOM  =     12697.67401269
  ---------------------------------------------------
  free energy    TOTEN  =      2039.30661104 eV

  energy without entropy =     2039.30227317  energy(sigma->0) =     2039.30516508


--------------------------------------------------------------------------------------------------------




--------------------------------------- Iteration      1(   2)  ---------------------------------------


    TRIAL :  cpu time   31.0223: real time   31.3697
    CORREC:  cpu time    0.0070: real time    0.0079
    --------------------------------------------
      LOOP:  cpu time   31.0304: real time   31.3809

 eigenvalue-minimisations  : 18576
 total energy-change (2. order) :-0.2129380E+04  (-0.2074838E+04)
 number of electron     270.0000000 magnetization      15.0000000
 augmentation part      270.0000000 magnetization      15.0000000

 Free energy of the ion-electron system (eV)
  ---------------------------------------------------
  alpha Z        PSCENC =       798.38614055
  Ewald energy   TEWEN  =    -12901.57693327
  -Hartree energ DENC   =     -2855.60785864
  -exchange      EXHF   =         0.00000000
  -V(xc)+E(xc)   XCENC  =      -996.06378190
  PAW double counting   =     12741.82587617   -11476.22345381
  entropy T*S    EENTRO =        -0.00288061
  eigenvalues    EBANDS =      1901.51582587
  atomic energy  EATOM  =     12697.67401269
  ---------------------------------------------------
  free energy    TOTEN  =       -90.07305297 eV

  energy without entropy =      -90.07017235  energy(sigma->0) =      -90.07209276


--------------------------------------------------------------------------------------------------------




--------------------------------------- Iteration      1(   3)  ---------------------------------------


    TRIAL :  cpu time   42.7952: real time   43.1630
    CORREC:  cpu time    0.0081: real time    0.0089
    --------------------------------------------
      LOOP:  cpu time   42.8050: real time   43.1754

 eigenvalue-minimisations  : 27900
 total energy-change (2. order) :-0.2645581E+03  (-0.2339646E+03)
 number of electron     270.0000000 magnetization      15.0000000
 augmentation part      270.0000000 magnetization      15.0000000

 Free energy of the ion-electron system (eV)
  ---------------------------------------------------
  alpha Z        PSCENC =       798.38614055
  Ewald energy   TEWEN  =    -12901.57693327
  -Hartree energ DENC   =     -2855.60785864
  -exchange      EXHF   =         0.00000000
  -V(xc)+E(xc)   XCENC  =      -996.06378190
  PAW double counting   =     12741.82587617   -11476.22345381
  entropy T*S    EENTRO =         0.01693973
  eigenvalues    EBANDS =      1636.93788664
  atomic energy  EATOM  =     12697.67401269
  ---------------------------------------------------
  free energy    TOTEN  =      -354.63117186 eV

  energy without entropy =     -354.64811158  energy(sigma->0) =     -354.63681843


--------------------------------------------------------------------------------------------------------




--------------------------------------- Iteration      1(   4)  ---------------------------------------


    TRIAL :  cpu time   45.8974: real time   46.1105
    CORREC:  cpu time    0.0084: real time    0.0085
    --------------------------------------------
      LOOP:  cpu time   45.9097: real time   46.1252

 eigenvalue-minimisations  : 30216
 total energy-change (2. order) :-0.4440331E+02  (-0.3909505E+02)
 number of electron     270.0000000 magnetization      15.0000000
 augmentation part      270.0000000 magnetization      15.0000000

 Free energy of the ion-electron system (eV)
  ---------------------------------------------------
  alpha Z        PSCENC =       798.38614055
  Ewald energy   TEWEN  =    -12901.57693327
  -Hartree energ DENC   =     -2855.60785864
  -exchange      EXHF   =         0.00000000
  -V(xc)+E(xc)   XCENC  =      -996.06378190
  PAW double counting   =     12741.82587617   -11476.22345381
  entropy T*S    EENTRO =         0.04072447
  eigenvalues    EBANDS =      1592.51079380
  atomic energy  EATOM  =     12697.67401269
  ---------------------------------------------------
  free energy    TOTEN  =      -399.03447996 eV

  energy without entropy =     -399.07520442  energy(sigma->0) =     -399.04805478


--------------------------------------------------------------------------------------------------------




--------------------------------------- Iteration      1(   5)  ---------------------------------------


    TRIAL :  cpu time   46.3935: real time   46.8266
    CORREC:  cpu time    0.0084: real time    0.0092
    --------------------------------------------
      LOOP:  cpu time   46.4038: real time   46.8401

 eigenvalue-minimisations  : 30800
 total energy-change (2. order) :-0.4728443E+01  (-0.4523538E+01)
 number of electron     270.0000000 magnetization      15.0000000
 augmentation part      270.0000000 magnetization      15.0000000

 Free energy of the ion-electron system (eV)
  ---------------------------------------------------
  alpha Z        PSCENC =       798.38614055
  Ewald energy   TEWEN  =    -12901.57693327
  -Hartree energ DENC   =     -2855.60785864
  -exchange      EXHF   =         0.00000000
  -V(xc)+E(xc)   XCENC  =      -996.06378190
  PAW double counting   =     12741.82587617   -11476.22345381
  entropy T*S    EENTRO =         0.04471323
  eigenvalues    EBANDS =      1587.77836241
  atomic energy  EATOM  =     12697.67401269
  ---------------------------------------------------
  free energy    TOTEN  =      -403.76292259 eV

  energy without entropy =     -403.80763581  energy(sigma->0) =     -403.77782700


--------------------------------------------------------------------------------------------------------




--------------------------------------- Iteration      1(   6)  ---------------------------------------


    TRIAL :  cpu time   46.1382: real time   46.5332
    CORREC:  cpu time    0.0086: real time    0.0095
    --------------------------------------------
      LOOP:  cpu time   46.1493: real time   46.5469

 eigenvalue-minimisations  : 30584
 total energy-change (2. order) :-0.3799748E+00  (-0.3721551E+00)
 number of electron     270.0000000 magnetization      15.0000000
 augmentation part      270.0000000 magnetization      15.0000000

 Free energy of the ion-electron system (eV)
  ---------------------------------------------------
  alpha Z        PSCENC =       798.38614055
  Ewald energy   TEWEN  =    -12901.57693327
  -Hartree energ DENC   =     -2855.60785864
  -exchange      EXHF   =         0.00000000
  -V(xc)+E(xc)   XCENC  =      -996.06378190
  PAW double counting   =     12741.82587617   -11476.22345381
  entropy T*S    EENTRO =         0.04605281
  eigenvalues    EBANDS =      1587.39704806
  atomic energy  EATOM  =     12697.67401269
  ---------------------------------------------------
  free energy    TOTEN  =      -404.14289735 eV

  energy without entropy =     -404.18895016  energy(sigma->0) =     -404.15824828


--------------------------------------------------------------------------------------------------------




--------------------------------------- Iteration      1(   7)  ---------------------------------------


    TRIAL :  cpu time   47.1337: real time   47.4955
    CORREC:  cpu time    0.0086: real time    0.0094
    --------------------------------------------
      LOOP:  cpu time   47.1441: real time   47.5087

 eigenvalue-minimisations  : 31232
 total energy-change (2. order) :-0.4332786E-01  (-0.4290605E-01)
 number of electron     270.0000000 magnetization      15.0000000
 augmentation part      270.0000000 magnetization      15.0000000

 Free energy of the ion-electron system (eV)
  ---------------------------------------------------
  alpha Z        PSCENC =       798.38614055
  Ewald energy   TEWEN  =    -12901.57693327
  -Hartree energ DENC   =     -2855.60785864
  -exchange      EXHF   =         0.00000000
  -V(xc)+E(xc)   XCENC  =      -996.06378190
  PAW double counting   =     12741.82587617   -11476.22345381
  entropy T*S    EENTRO =         0.04632907
  eigenvalues    EBANDS =      1587.35344395
  atomic energy  EATOM  =     12697.67401269
  ---------------------------------------------------
  free energy    TOTEN  =      -404.18622520 eV

  energy without entropy =     -404.23255427  energy(sigma->0) =     -404.20166823


--------------------------------------------------------------------------------------------------------




--------------------------------------- Iteration      1(   8)  ---------------------------------------


    TRIAL :  cpu time   45.2009: real time   45.6717
    CORREC:  cpu time    0.0085: real time    0.0094
    CHARGE:  cpu time    1.5537: real time    1.5540
    --------------------------------------------
      LOOP:  cpu time   46.7644: real time   47.2383

 eigenvalue-minimisations  : 30016
 total energy-change (2. order) :-0.3518569E-02  (-0.3496185E-02)
 number of electron     269.9999995 magnetization      10.3572212
 augmentation part       64.2102948 magnetization       6.0137437

 Free energy of the ion-electron system (eV)
  ---------------------------------------------------
  alpha Z        PSCENC =       798.38614055
  Ewald energy   TEWEN  =    -12901.57693327
  -Hartree energ DENC   =     -2855.60785864
  -exchange      EXHF   =         0.00000000
  -V(xc)+E(xc)   XCENC  =      -996.06378190
  PAW double counting   =     12741.82587617   -11476.22345381
  entropy T*S    EENTRO =         0.04641446
  eigenvalues    EBANDS =      1587.34983998
  atomic energy  EATOM  =     12697.67401269
  ---------------------------------------------------
  free energy    TOTEN  =      -404.18974377 eV

  energy without entropy =     -404.23615824  energy(sigma->0) =     -404.20521526


--------------------------------------------------------------------------------------------------------




--------------------------------------- Iteration      1(   9)  ---------------------------------------


    POTLOK:  cpu time    0.3960: real time    0.3960
    SETDIJ:  cpu time    0.4976: real time    0.4977
    TRIAL :  cpu time   15.8062: real time   15.8738
    CORREC:  cpu time    5.9487: real time    5.9804
    CHARGE:  cpu time    1.4960: real time    1.5455
    --------------------------------------------
      LOOP:  cpu time   24.1489: real time   24.2980

 eigenvalue-minimisations  :     0
 total energy-change (2. order) : 0.2994928E+03  (-0.2176211E+03)
 number of electron     269.9999993 magnetization      10.8991405
 augmentation part       82.5974432 magnetization       7.2520430

 Free energy of the ion-electron system (eV)
  ---------------------------------------------------
  alpha Z        PSCENC =       798.38614055
  Ewald energy   TEWEN  =    -12901.57693327
  -Hartree energ DENC   =     -1273.03819729
  -exchange      EXHF   =         0.00000000
  -V(xc)+E(xc)   XCENC  =     -1041.62407929
  PAW double counting   =     19169.84591862   -17750.32219105
  entropy T*S    EENTRO =         0.03084537
  eigenvalues    EBANDS =       195.91195668
  atomic energy  EATOM  =     12697.67401269
  ---------------------------------------------------
  free energy    TOTEN  =      -104.69695790 eV

  energy without entropy =     -104.72780326  energy(sigma->0) =     -104.70723968


--------------------------------------------------------------------------------------------------------




--------------------------------------- Iteration      1(  10)  ---------------------------------------


    POTLOK:  cpu time    0.3926: real time    0.3927
    SETDIJ:  cpu time    0.4767: real time    0.4769
    TRIAL :  cpu time   15.7852: real time   15.9102
    CORREC:  cpu time    5.0592: real time    5.0848
    CHARGE:  cpu time    1.5351: real time    1.5354
    --------------------------------------------
      LOOP:  cpu time   23.2503: real time   23.4026

 eigenvalue-minimisations  :     0
 total energy-change (2. order) :-0.2135976E+03  (-0.1197570E+02)
 number of electron     269.9999993 magnetization      11.1651629
 augmentation part       86.3125599 magnetization       7.5162918

 Free energy of the ion-electron system (eV)
  ---------------------------------------------------
  alpha Z        PSCENC =       798.38614055
  Ewald energy   TEWEN  =    -12901.57693327
  -Hartree energ DENC   =     -2112.85446005
  -exchange      EXHF   =         0.00000000
  -V(xc)+E(xc)   XCENC  =     -1012.28959158
  PAW double counting   =     20669.40261212   -19431.94893155
  entropy T*S    EENTRO =         0.02297615
  eigenvalues    EBANDS =       974.88172733
  atomic energy  EATOM  =     12697.67401269
  ---------------------------------------------------
  free energy    TOTEN  =      -318.29457840 eV

  energy without entropy =     -318.31755455  energy(sigma->0) =     -318.30223712


--------------------------------------------------------------------------------------------------------




--------------------------------------- Iteration      1(  11)  ---------------------------------------


    POTLOK:  cpu time    0.3916: real time    0.3928
    SETDIJ:  cpu time    0.4597: real time    0.4606
    TRIAL :  cpu time   15.7583: real time   15.9663
    CORREC:  cpu time    5.0463: real time    5.0485
    CHARGE:  cpu time    1.5217: real time    1.5741
    --------------------------------------------
      LOOP:  cpu time   23.1830: real time   23.4492

 eigenvalue-minimisations  :     0
 total energy-change (2. order) :-0.1141223E+02  (-0.1105658E+02)
 number of electron     269.9999993 magnetization      11.2208105
 augmentation part       88.9676334 magnetization       7.7904915

 Free energy of the ion-electron system (eV)
  ---------------------------------------------------
  alpha Z        PSCENC =       798.38614055
  Ewald energy   TEWEN  =    -12901.57693327
  -Hartree energ DENC   =     -2333.21174314
  -exchange      EXHF   =         0.00000000
  -V(xc)+E(xc)   XCENC  =     -1004.13638836
  PAW double counting   =     21526.96239166   -20326.31025616
  entropy T*S    EENTRO =         0.02452286
  eigenvalues    EBANDS =      1212.48298717
  atomic energy  EATOM  =     12697.67401269
  ---------------------------------------------------
  free energy    TOTEN  =      -329.70681271 eV

  energy without entropy =     -329.73133558  energy(sigma->0) =     -329.71498700


--------------------------------------------------------------------------------------------------------




--------------------------------------- Iteration      1(  12)  ---------------------------------------


    POTLOK:  cpu time    0.3925: real time    0.3925
    SETDIJ:  cpu time    0.4839: real time    0.4842
    TRIAL :  cpu time   16.1313: real time   16.2568
    CORREC:  cpu time    5.1106: real time    5.1270
    CHARGE:  cpu time    1.5347: real time    1.5355
    --------------------------------------------
      LOOP:  cpu time   23.6549: real time   23.7986

 eigenvalue-minimisations  :     0
 total energy-change (2. order) :-0.1121918E+02  (-0.1228436E+02)
 number of electron     269.9999993 magnetization      11.5323211
 augmentation part       86.7699441 magnetization       7.9848436

 Free energy of the ion-electron system (eV)
  ---------------------------------------------------
  alpha Z        PSCENC =       798.38614055
  Ewald energy   TEWEN  =    -12901.57693327
  -Hartree energ DENC   =     -2543.16149840
  -exchange      EXHF   =         0.00000000
  -V(xc)+E(xc)   XCENC  =      -996.93175476
  PAW double counting   =     21845.09979091   -20658.59057109
  entropy T*S    EENTRO =         0.00085721
  eigenvalues    EBANDS =      1418.15029993
  atomic energy  EATOM  =     12697.67401269
  ---------------------------------------------------
  free energy    TOTEN  =      -340.92599058 eV

  energy without entropy =     -340.92684779  energy(sigma->0) =     -340.92627632


--------------------------------------------------------------------------------------------------------




--------------------------------------- Iteration      1(  13)  ---------------------------------------


    POTLOK:  cpu time    0.3872: real time    0.3968
    SETDIJ:  cpu time    0.4941: real time    0.4942
    TRIAL :  cpu time   15.7667: real time   15.8446
    CORREC:  cpu time    5.0316: real time    5.1552
    CHARGE:  cpu time    1.5392: real time    1.6031
    --------------------------------------------
      LOOP:  cpu time   23.2233: real time   23.4984

 eigenvalue-minimisations  :     0
 total energy-change (2. order) :-0.1220598E+02  (-0.8596124E+00)
 number of electron     269.9999993 magnetization      11.7290922
 augmentation part       86.1929112 magnetization       7.9912890

 Free energy of the ion-electron system (eV)
  ---------------------------------------------------
  alpha Z        PSCENC =       798.38614055
  Ewald energy   TEWEN  =    -12901.57693327
  -Hartree energ DENC   =     -2519.06054919
  -exchange      EXHF   =         0.00000000
  -V(xc)+E(xc)   XCENC  =      -998.72330299
  PAW double counting   =     21235.11440915   -19996.79525093
  entropy T*S    EENTRO =        -0.00481453
  eigenvalues    EBANDS =      1331.84864373
  atomic energy  EATOM  =     12697.67401269
  ---------------------------------------------------
  free energy    TOTEN  =      -353.13197306 eV

  energy without entropy =     -353.12715853  energy(sigma->0) =     -353.13036821


--------------------------------------------------------------------------------------------------------




--------------------------------------- Iteration      1(  14)  ---------------------------------------


    POTLOK:  cpu time    0.3923: real time    0.3929
    SETDIJ:  cpu time    0.4539: real time    0.4540
    TRIAL :  cpu time   15.7832: real time   15.8340
    CORREC:  cpu time    5.6424: real time    5.7596
    CHARGE:  cpu time    1.5081: real time    1.5085
    --------------------------------------------
      LOOP:  cpu time   23.7823: real time   23.9515

 eigenvalue-minimisations  :     0
 total energy-change (2. order) :-0.8571407E+00  (-0.1121559E+01)
 number of electron     269.9999993 magnetization      11.6746409
 augmentation part       85.9242992 magnetization       7.9166847

 Free energy of the ion-electron system (eV)
  ---------------------------------------------------
  alpha Z        PSCENC =       798.38614055
  Ewald energy   TEWEN  =    -12901.57693327
  -Hartree energ DENC   =     -2486.44366867
  -exchange      EXHF   =         0.00000000
  -V(xc)+E(xc)   XCENC  =      -999.90900443
  PAW double counting   =     20837.12417802   -19589.11956590
  entropy T*S    EENTRO =        -0.00669829
  eigenvalues    EBANDS =      1289.88054179
  atomic energy  EATOM  =     12697.67401269
  ---------------------------------------------------
  free energy    TOTEN  =      -353.98911376 eV

  energy without entropy =     -353.98241547  energy(sigma->0) =     -353.98688100


--------------------------------------------------------------------------------------------------------




--------------------------------------- Iteration      1(  15)  ---------------------------------------


    POTLOK:  cpu time    0.3994: real time    0.3995
    SETDIJ:  cpu time    0.4522: real time    0.4523
    TRIAL :  cpu time   15.7693: real time   15.8877
    CORREC:  cpu time    5.0889: real time    5.0993
    CHARGE:  cpu time    1.5395: real time    1.5604
    --------------------------------------------
      LOOP:  cpu time   23.2936: real time   23.4446

 eigenvalue-minimisations  :     0
 total energy-change (2. order) :-0.1116103E+01  (-0.6219677E+00)
 number of electron     269.9999992 magnetization      11.6619182
 augmentation part       86.6738756 magnetization       7.9485297

 Free energy of the ion-electron system (eV)
  ---------------------------------------------------
  alpha Z        PSCENC =       798.38614055
  Ewald energy   TEWEN  =    -12901.57693327
  -Hartree energ DENC   =     -2459.87030170
  -exchange      EXHF   =         0.00000000
  -V(xc)+E(xc)   XCENC  =     -1000.84474159
  PAW double counting   =     20103.99467109   -18847.72256909
  entropy T*S    EENTRO =        -0.01125580
  eigenvalues    EBANDS =      1254.86120327
  atomic energy  EATOM  =     12697.67401269
  ---------------------------------------------------
  free energy    TOTEN  =      -355.10521634 eV

  energy without entropy =     -355.09396055  energy(sigma->0) =     -355.10146441


--------------------------------------------------------------------------------------------------------




--------------------------------------- Iteration      1(  16)  ---------------------------------------


    POTLOK:  cpu time    0.3920: real time    0.3921
    SETDIJ:  cpu time    0.4765: real time    0.4768
    TRIAL :  cpu time   15.7460: real time   15.9427
    CORREC:  cpu time    5.0608: real time    5.0726
    CHARGE:  cpu time    1.5460: real time    1.5465
    --------------------------------------------
      LOOP:  cpu time   23.2269: real time   23.4363

 eigenvalue-minimisations  :     0
 total energy-change (2. order) :-0.6254510E+00  (-0.2254088E+00)
 number of electron     269.9999992 magnetization      11.7770979
 augmentation part       87.1476628 magnetization       8.0177594

 Free energy of the ion-electron system (eV)
  ---------------------------------------------------
  alpha Z        PSCENC =       798.38614055
  Ewald energy   TEWEN  =    -12901.57693327
  -Hartree energ DENC   =     -2489.01922768
  -exchange      EXHF   =         0.00000000
  -V(xc)+E(xc)   XCENC  =      -999.67846756
  PAW double counting   =     19742.02200425   -18491.33871131
  entropy T*S    EENTRO =        -0.01192843
  eigenvalues    EBANDS =      1287.81177081
  atomic energy  EATOM  =     12697.67401269
  ---------------------------------------------------
  free energy    TOTEN  =      -355.73066731 eV

  energy without entropy =     -355.71873887  energy(sigma->0) =     -355.72669116


--------------------------------------------------------------------------------------------------------




--------------------------------------- Iteration      1(  17)  ---------------------------------------


    POTLOK:  cpu time    0.3923: real time    0.3927
    SETDIJ:  cpu time    0.4645: real time    0.4647
    TRIAL :  cpu time   16.1246: real time   16.2964
    CORREC:  cpu time    5.0380: real time    5.0659
    CHARGE:  cpu time    1.5407: real time    1.5498
    --------------------------------------------
      LOOP:  cpu time   23.5702: real time   23.7809

 eigenvalue-minimisations  :     0
 total energy-change (2. order) :-0.2261413E+00  (-0.2969743E+00)
 number of electron     269.9999992 magnetization      11.7506486
 augmentation part       87.2577963 magnetization       8.1115242

 Free energy of the ion-electron system (eV)
  ---------------------------------------------------
  alpha Z        PSCENC =       798.38614055
  Ewald energy   TEWEN  =    -12901.57693327
  -Hartree energ DENC   =     -2509.98931985
  -exchange      EXHF   =         0.00000000
  -V(xc)+E(xc)   XCENC  =      -998.78160062
  PAW double counting   =     19640.94131879   -18394.76187590
  entropy T*S    EENTRO =        -0.01447741
  eigenvalues    EBANDS =      1312.16337741
  atomic energy  EATOM  =     12697.67401269
  ---------------------------------------------------
  free energy    TOTEN  =      -355.95680863 eV

  energy without entropy =     -355.94233122  energy(sigma->0) =     -355.95198283


--------------------------------------------------------------------------------------------------------




--------------------------------------- Iteration      1(  18)  ---------------------------------------


    POTLOK:  cpu time    0.3933: real time    0.3934
    SETDIJ:  cpu time    0.4567: real time    0.4568
    TRIAL :  cpu time   15.8044: real time   15.8877
    CORREC:  cpu time    5.0464: real time    5.1287
    CHARGE:  cpu time    1.5307: real time    1.5882
    --------------------------------------------
      LOOP:  cpu time   23.2330: real time   23.4572

 eigenvalue-minimisations  :     0
 total energy-change (2. order) :-0.2970968E+00  (-0.9448411E-01)
 number of electron     269.9999992 magnetization      11.8086535
 augmentation part       87.0721189 magnetization       8.1632122

 Free energy of the ion-electron system (eV)
  ---------------------------------------------------
  alpha Z        PSCENC =       798.38614055
  Ewald energy   TEWEN  =    -12901.57693327
  -Hartree energ DENC   =     -2511.78472136
  -exchange      EXHF   =         0.00000000
  -V(xc)+E(xc)   XCENC  =      -998.30843347
  PAW double counting   =     19532.51617292   -18287.26032537
  entropy T*S    EENTRO =        -0.01532368
  eigenvalues    EBANDS =      1314.11465930
  atomic energy  EATOM  =     12697.67401269
  ---------------------------------------------------
  free energy    TOTEN  =      -356.25390541 eV

  energy without entropy =     -356.23858173  energy(sigma->0) =     -356.24879752


--------------------------------------------------------------------------------------------------------




--------------------------------------- Iteration      1(  19)  ---------------------------------------


    POTLOK:  cpu time    0.3916: real time    0.3917
    SETDIJ:  cpu time    0.5159: real time    0.5161
    TRIAL :  cpu time   15.7655: real time   15.9161
    CORREC:  cpu time    5.1196: real time    5.1414
    CHARGE:  cpu time    1.5388: real time    1.5478
    --------------------------------------------
      LOOP:  cpu time   23.3505: real time   23.5336

 eigenvalue-minimisations  :     0
 total energy-change (2. order) :-0.9423439E-01  (-0.4883232E-01)
 number of electron     269.9999992 magnetization      11.8155616
 augmentation part       86.8974753 magnetization       8.1800385

 Free energy of the ion-electron system (eV)
  ---------------------------------------------------
  alpha Z        PSCENC =       798.38614055
  Ewald energy   TEWEN  =    -12901.57693327
  -Hartree energ DENC   =     -2501.57778227
  -exchange      EXHF   =         0.00000000
  -V(xc)+E(xc)   XCENC  =      -998.51490849
  PAW double counting   =     19497.13616246   -18249.89316008
  entropy T*S    EENTRO =        -0.01551612
  eigenvalues    EBANDS =      1302.03365229
  atomic energy  EATOM  =     12697.67401269
  ---------------------------------------------------
  free energy    TOTEN  =      -356.34813980 eV

  energy without entropy =     -356.33262368  energy(sigma->0) =     -356.34296776


--------------------------------------------------------------------------------------------------------




--------------------------------------- Iteration      1(  20)  ---------------------------------------


    POTLOK:  cpu time    0.3938: real time    0.3939
    SETDIJ:  cpu time    0.5032: real time    0.5033
    TRIAL :  cpu time   15.7271: real time   15.8239
    CORREC:  cpu time    5.1074: real time    5.1386
    CHARGE:  cpu time    1.5405: real time    1.5410
    --------------------------------------------
      LOOP:  cpu time   24.0277: real time   24.1574

 eigenvalue-minimisations  :     0
 total energy-change (2. order) :-0.4868861E-01  (-0.6889544E-01)
 number of electron     269.9999992 magnetization      11.8245718
 augmentation part       86.7798237 magnetization       8.2130402

 Free energy of the ion-electron system (eV)
  ---------------------------------------------------
  alpha Z        PSCENC =       798.38614055
  Ewald energy   TEWEN  =    -12901.57693327
  -Hartree energ DENC   =     -2493.49751091
  -exchange      EXHF   =         0.00000000
  -V(xc)+E(xc)   XCENC  =      -998.71675834
  PAW double counting   =     19480.64750720   -18231.67946663
  entropy T*S    EENTRO =        -0.01694930
  eigenvalues    EBANDS =      1292.38169642
  atomic energy  EATOM  =     12697.67401269
  ---------------------------------------------------
  free energy    TOTEN  =      -356.39682841 eV

  energy without entropy =     -356.37987911  energy(sigma->0) =     -356.39117864


--------------------------------------------------------------------------------------------------------




--------------------------------------- Iteration      1(  21)  ---------------------------------------


    POTLOK:  cpu time    0.3920: real time    0.3921
    SETDIJ:  cpu time    0.4642: real time    0.4767
    TRIAL :  cpu time   15.7308: real time   15.9538
    CORREC:  cpu time    5.1045: real time    5.1203
    CHARGE:  cpu time    1.5510: real time    1.5537
    --------------------------------------------
      LOOP:  cpu time   23.2470: real time   23.5020

 eigenvalue-minimisations  :     0
 total energy-change (2. order) :-0.6883232E-01  (-0.4937396E-01)
 number of electron     269.9999992 magnetization      11.8861259
 augmentation part       86.9378401 magnetization       8.2677385

 Free energy of the ion-electron system (eV)
  ---------------------------------------------------
  alpha Z        PSCENC =       798.38614055
  Ewald energy   TEWEN  =    -12901.57693327
  -Hartree energ DENC   =     -2490.21071150
  -exchange      EXHF   =         0.00000000
  -V(xc)+E(xc)   XCENC  =      -998.69459056
  PAW double counting   =     19478.32537681   -18228.61423750
  entropy T*S    EENTRO =        -0.01748825
  eigenvalues    EBANDS =      1288.26223135
  atomic energy  EATOM  =     12697.67401269
  ---------------------------------------------------
  free energy    TOTEN  =      -356.46566073 eV

  energy without entropy =     -356.44817248  energy(sigma->0) =     -356.45983131


--------------------------------------------------------------------------------------------------------




--------------------------------------- Iteration      1(  22)  ---------------------------------------


    POTLOK:  cpu time    0.3912: real time    0.3918
    SETDIJ:  cpu time    0.4577: real time    0.4595
    TRIAL :  cpu time   16.0659: real time   16.2339
    CORREC:  cpu time    5.0268: real time    5.0600
    CHARGE:  cpu time    1.5623: real time    1.5625
    --------------------------------------------
      LOOP:  cpu time   23.5260: real time   23.7305

 eigenvalue-minimisations  :     0
 total energy-change (2. order) :-0.4942698E-01  (-0.1213203E-01)
 number of electron     269.9999992 magnetization      11.8829690
 augmentation part       86.9831411 magnetization       8.2808327

 Free energy of the ion-electron system (eV)
  ---------------------------------------------------
  alpha Z        PSCENC =       798.38614055
  Ewald energy   TEWEN  =    -12901.57693327
  -Hartree energ DENC   =     -2501.06257042
  -exchange      EXHF   =         0.00000000
  -V(xc)+E(xc)   XCENC  =      -998.19754945
  PAW double counting   =     19502.59652412   -18255.12412308
  entropy T*S    EENTRO =        -0.01755495
  eigenvalues    EBANDS =      1300.80689940
  atomic energy  EATOM  =     12697.67401269
  ---------------------------------------------------
  free energy    TOTEN  =      -356.51508771 eV

  energy without entropy =     -356.49753275  energy(sigma->0) =     -356.50923606


--------------------------------------------------------------------------------------------------------




--------------------------------------- Iteration      1(  23)  ---------------------------------------


    POTLOK:  cpu time    0.3925: real time    0.3926
    SETDIJ:  cpu time    0.4790: real time    0.4905
    TRIAL :  cpu time   15.7813: real time   15.8838
    CORREC:  cpu time    5.0525: real time    5.0546
    CHARGE:  cpu time    1.4807: real time    1.5984
    --------------------------------------------
      LOOP:  cpu time   23.1890: real time   23.4236

 eigenvalue-minimisations  :     0
 total energy-change (2. order) :-0.1213721E-01  (-0.1568423E-01)
 number of electron     269.9999992 magnetization      11.9406263
 augmentation part       86.9730686 magnetization       8.3140608

 Free energy of the ion-electron system (eV)
  ---------------------------------------------------
  alpha Z        PSCENC =       798.38614055
  Ewald energy   TEWEN  =    -12901.57693327
  -Hartree energ DENC   =     -2503.84094982
  -exchange      EXHF   =         0.00000000
  -V(xc)+E(xc)   XCENC  =      -998.06015976
  PAW double counting   =     19507.11164543   -18260.21437088
  entropy T*S    EENTRO =        -0.01748116
  eigenvalues    EBANDS =      1304.01094510
  atomic energy  EATOM  =     12697.67401269
  ---------------------------------------------------
  free energy    TOTEN  =      -356.52722492 eV

  energy without entropy =     -356.50974376  energy(sigma->0) =     -356.52139787


--------------------------------------------------------------------------------------------------------




--------------------------------------- Iteration      1(  24)  ---------------------------------------


    POTLOK:  cpu time    0.3933: real time    0.3934
    SETDIJ:  cpu time    0.4277: real time    0.5077
    TRIAL :  cpu time   15.7532: real time   15.8577
    CORREC:  cpu time    5.0363: real time    5.0482
    CHARGE:  cpu time    1.5291: real time    1.6090
    --------------------------------------------
      LOOP:  cpu time   23.1431: real time   23.4195

 eigenvalue-minimisations  :     0
 total energy-change (2. order) :-0.1568441E-01  (-0.1186993E-01)
[...]
   45       -0.013  -0.023  -2.266  -2.301
   46        0.021   0.021   2.379   2.420
   47        0.018   0.018   2.380   2.417
   48       -0.014  -0.019  -2.288  -2.321
   49        0.021   0.021   2.384   2.426
   50        0.018   0.019   2.383   2.420
   51       -0.015  -0.019  -2.295  -2.329
   52        0.010   0.009   2.327   2.346
   53        0.016   0.023   2.370   2.409
   54       -0.016  -0.015  -2.306  -2.337
--------------------------------------------------
tot         -0.016  -0.064  11.972  11.893
 
    FORLOC:  cpu time    0.0580: real time    0.0581
    FORNL :  cpu time   24.1299: real time   24.2692
    STRESS:  cpu time   34.3349: real time   34.6004
    FORCOR:  cpu time    0.4399: real time    0.4400
    OFIELD:  cpu time    0.0024: real time    0.0024

  FORCE on cell =-STRESS in cart. coord.  units (eV):
  Direction    XX          YY          ZZ          XY          YZ          ZX
  --------------------------------------------------------------------------------------
  Alpha Z   798.38614   798.38614   798.38614
  Ewald   -4053.61603 -4053.61603 -4794.40593    -0.00000    -0.00000    -0.00000
  Hartree  1084.01538  1085.33113   332.00895    -0.00000    -0.00000    -0.00000
  E(xc)   -1141.61746 -1141.86494 -1139.72351    -0.00000    -0.00000     0.00000
  Local     369.49241   366.34211  1906.88873    -0.00000    -0.00000     0.00000
  n-local  -170.17672  -170.64146  -175.50277     0.38546    -0.26363    -0.27529
  augment   784.47193   785.48365   767.04231     0.00000     0.00001     0.00001
  Kinetic  2334.89139  2337.30339  2307.52802    -2.53611    -1.53437    -1.36539
  Fock        0.00000     0.00000     0.00000     0.00000     0.00000     0.00000
  -------------------------------------------------------------------------------------
  Total       5.84705     6.72400     2.22193     0.00000     0.00000     0.00000
  in kB      13.19603    15.17518     5.01462     0.00000     0.00000     0.00000
  external pressure =       11.13 kB  Pullay stress =        0.00 kB


 VOLUME and BASIS-vectors are now :
 -----------------------------------------------------------------------------
  energy-cutoff  :      404.80
  volume of cell :      709.91
      direct lattice vectors                 reciprocal lattice vectors
     8.250148166  0.000000000  0.000000000     0.121209944  0.000000000  0.000000000
     0.000000000  8.250148166  0.000000000     0.000000000  0.121209944  0.000000000
     0.000000000  0.000000000 10.429911392     0.000000000  0.000000000  0.095878092

  length of vectors
     8.250148166  8.250148166 10.429911392     0.121209944  0.121209944  0.095878092


 FORCES acting on ions:
    Electron-Ion                     Ewald-Force                    Non-Local-Force
 -----------------------------------------------------------------------------------------------
   -.255E-10 0.264E-01 -.618E-01   -.239E-08 -.239E-08 -.210E-08   0.000E+00 -.149E-01 0.658E-01
   -.254E-10 0.196E-01 0.167E-01   -.239E-08 -.239E-08 0.171E-08   0.000E+00 0.805E-02 -.634E-01
   -.255E-10 -.548E-02 0.114E+00   -.239E-08 -.239E-08 0.861E-08   0.000E+00 0.594E-02 -.647E-01
   -.255E-10 0.373E-09 -.415E-01   -.239E-08 -.802E-09 -.210E-08   0.000E+00 0.000E+00 0.178E-01
   -.254E-10 0.373E-09 0.626E-02   -.239E-08 -.802E-09 0.171E-08   0.000E+00 0.000E+00 -.404E-01
   -.255E-10 0.373E-09 0.182E+00   -.239E-08 -.802E-09 0.861E-08   0.000E+00 0.000E+00 -.753E-01
   -.255E-10 -.264E-01 -.618E-01   -.239E-08 0.631E-08 -.210E-08   0.000E+00 0.149E-01 0.658E-01
   -.254E-10 -.196E-01 0.167E-01   -.239E-08 0.631E-08 0.171E-08   0.000E+00 -.805E-02 -.634E-01
   -.255E-10 0.548E-02 0.114E+00   -.239E-08 0.631E-08 0.861E-08   0.000E+00 -.594E-02 -.647E-01
   -.101E+00 -.134E+00 -.125E+00   -.802E-09 -.239E-08 -.210E-08   0.817E-01 0.643E-01 0.415E-01
   -.227E-01 -.594E-01 0.298E-01   -.802E-09 -.239E-08 0.171E-08   -.166E-01 -.234E-01 0.155E-02
   -.152E-03 -.109E-01 0.576E-01   -.803E-09 -.239E-08 0.861E-08   0.973E-02 0.921E-02 -.198E-01
   -.722E-01 0.372E-09 -.509E-01   -.802E-09 -.802E-09 -.210E-08   0.166E+00 0.000E+00 -.994E-02
   0.826E-01 0.372E-09 0.147E-01   -.802E-09 -.802E-09 0.171E-08   -.556E-01 0.000E+00 0.522E-01
   -.901E-02 0.373E-09 -.393E-01   -.803E-09 -.802E-09 0.861E-08   0.998E-02 -.217E-18 0.213E-01
   -.101E+00 0.134E+00 -.125E+00   -.802E-09 0.631E-08 -.210E-08   0.817E-01 -.643E-01 0.415E-01
   -.227E-01 0.594E-01 0.298E-01   -.802E-09 0.631E-08 0.171E-08   -.166E-01 0.234E-01 0.155E-02
   -.152E-03 0.109E-01 0.576E-01   -.803E-09 0.631E-08 0.861E-08   0.973E-02 -.921E-02 -.198E-01
   0.101E+00 -.134E+00 -.125E+00   0.631E-08 -.239E-08 -.210E-08   -.817E-01 0.643E-01 0.415E-01
   0.227E-01 -.594E-01 0.298E-01   0.631E-08 -.239E-08 0.171E-08   0.166E-01 -.234E-01 0.155E-02
   0.152E-03 -.109E-01 0.576E-01   0.631E-08 -.239E-08 0.861E-08   -.973E-02 0.921E-02 -.198E-01
   0.722E-01 0.372E-09 -.509E-01   0.631E-08 -.802E-09 -.210E-08   -.166E+00 0.217E-18 -.994E-02
   -.826E-01 0.372E-09 0.147E-01   0.631E-08 -.802E-09 0.171E-08   0.556E-01 0.000E+00 0.522E-01
   0.901E-02 0.373E-09 -.393E-01   0.631E-08 -.802E-09 0.861E-08   -.998E-02 -.217E-18 0.213E-01
   0.101E+00 0.134E+00 -.125E+00   0.631E-08 0.631E-08 -.210E-08   -.817E-01 -.643E-01 0.415E-01
   0.227E-01 0.594E-01 0.298E-01   0.631E-08 0.631E-08 0.171E-08   0.166E-01 0.234E-01 0.155E-02
   0.152E-03 0.109E-01 0.576E-01   0.631E-08 0.631E-08 0.861E-08   -.973E-02 -.921E-02 -.198E-01
   -.272E+00 -.274E-01 0.622E-01   -.169E-07 -.169E-07 -.180E-07   0.970E-01 0.618E-02 -.966E-01
   0.426E-01 0.136E-01 -.347E-01   -.169E-07 -.169E-07 -.170E-08   -.263E-01 -.351E-01 0.100E+00
   -.498E-01 0.304E-01 -.119E+00   -.169E-07 -.169E-07 0.115E-07   0.103E-01 0.536E-03 0.121E+00
   -.272E+00 0.274E-01 0.622E-01   -.169E-07 0.802E-09 -.180E-07   0.970E-01 -.618E-02 -.966E-01
   0.426E-01 -.136E-01 -.347E-01   -.169E-07 0.802E-09 -.170E-08   -.263E-01 0.351E-01 0.100E+00
   -.498E-01 -.304E-01 -.119E+00   -.169E-07 0.802E-09 0.115E-07   0.103E-01 -.536E-03 0.121E+00
   0.214E+00 -.605E-08 -.177E-01   -.169E-07 0.130E-07 -.180E-07   -.218E+00 0.000E+00 -.600E-01
   0.743E-01 -.605E-08 0.452E-01   -.169E-07 0.130E-07 -.170E-08   -.126E+00 0.000E+00 0.274E-01
   0.602E-01 -.605E-08 0.333E-01   -.169E-07 0.130E-07 0.115E-07   -.212E-01 0.000E+00 -.323E-01
   0.861E-11 0.552E+00 -.239E+00   0.802E-09 -.169E-07 -.180E-07   0.000E+00 -.237E+00 0.214E+00
   0.871E-11 0.100E+00 0.167E+00   0.802E-09 -.169E-07 -.170E-08   0.000E+00 -.227E-01 -.126E+00
   0.857E-11 -.978E-02 0.209E+00   0.802E-09 -.169E-07 0.115E-07   0.000E+00 -.357E-01 -.345E+00
   0.861E-11 -.552E+00 -.239E+00   0.802E-09 0.802E-09 -.180E-07   0.000E+00 0.237E+00 0.214E+00
   0.871E-11 -.100E+00 0.167E+00   0.802E-09 0.802E-09 -.170E-08   0.000E+00 0.227E-01 -.126E+00
   0.857E-11 0.978E-02 0.209E+00   0.802E-09 0.802E-09 0.115E-07   0.000E+00 0.357E-01 -.345E+00
   0.859E-11 -.605E-08 0.157E+00   0.802E-09 0.130E-07 -.180E-07   0.000E+00 0.000E+00 -.110E+00
   0.872E-11 -.605E-08 -.807E-01   0.802E-09 0.130E-07 -.170E-08   0.000E+00 0.000E+00 0.115E+00
   0.859E-11 -.605E-08 -.294E+00   0.802E-09 0.130E-07 0.115E-07   0.000E+00 0.000E+00 0.356E+00
   0.272E+00 -.274E-01 0.622E-01   0.130E-07 -.169E-07 -.180E-07   -.970E-01 0.618E-02 -.966E-01
   -.426E-01 0.136E-01 -.347E-01   0.130E-07 -.169E-07 -.170E-08   0.263E-01 -.351E-01 0.100E+00
   0.498E-01 0.304E-01 -.119E+00   0.130E-07 -.169E-07 0.115E-07   -.103E-01 0.536E-03 0.121E+00
   0.272E+00 0.274E-01 0.622E-01   0.130E-07 0.802E-09 -.180E-07   -.970E-01 -.618E-02 -.966E-01
   -.426E-01 -.136E-01 -.347E-01   0.130E-07 0.802E-09 -.170E-08   0.263E-01 0.351E-01 0.100E+00
   0.498E-01 -.304E-01 -.119E+00   0.130E-07 0.802E-09 0.115E-07   -.103E-01 -.536E-03 0.121E+00
   -.214E+00 -.605E-08 -.177E-01   0.130E-07 0.130E-07 -.180E-07   0.218E+00 0.000E+00 -.600E-01
   -.743E-01 -.605E-08 0.452E-01   0.130E-07 0.130E-07 -.170E-08   0.126E+00 0.000E+00 0.274E-01
   -.602E-01 -.605E-08 0.333E-01   0.130E-07 0.130E-07 0.115E-07   0.212E-01 -.217E-18 -.323E-01
 -----------------------------------------------------------------------------------------------
   -.450E-07 -.358E-07 -.212E+00   -.614E-13 -.142E-13 0.128E-13   0.555E-16 -.371E-16 0.212E+00
 
 
 POSITION                                       TOTAL-FORCE (eV/Angst)
 -----------------------------------------------------------------------------------
      0.00000      0.00000      0.00000         0.000000      0.013158     -0.001354
      0.00000      0.00000      3.47664         0.000000      0.027357     -0.041631
      0.00000      0.00000      6.95327         0.000000      0.000056      0.055283
      0.00000      2.75005      0.00000         0.000000     -0.000000     -0.024579
      0.00000      2.75005      3.47664         0.000000     -0.000000     -0.031282
      0.00000      2.75005      6.95327         0.000000     -0.000000      0.115042
      0.00000      5.50010      0.00000         0.000000     -0.013158     -0.001354
      0.00000      5.50010      3.47664         0.000000     -0.027357     -0.041631
      0.00000      5.50010      6.95327         0.000000     -0.000056      0.055283
      2.75005      0.00000      0.00000        -0.026376     -0.075196     -0.085949
      2.75005      0.00000      3.47664        -0.037410     -0.080511      0.029986
      2.75005      0.00000      6.95327         0.008852     -0.002541      0.039873
      2.75005      2.75005      0.00000         0.079566     -0.000000     -0.058689
      2.75005      2.75005      3.47664         0.032390     -0.000000      0.060903
      2.75005      2.75005      6.95327         0.000161     -0.000000     -0.020548
      2.75005      5.50010      0.00000        -0.026376      0.075196     -0.085949
      2.75005      5.50010      3.47664        -0.037410      0.080511      0.029986
      2.75005      5.50010      6.95327         0.008852      0.002541      0.039873
      5.50010      0.00000      0.00000         0.026376     -0.075196     -0.085949
      5.50010      0.00000      3.47664         0.037410     -0.080511      0.029986
      5.50010      0.00000      6.95327        -0.008852     -0.002541      0.039873
      5.50010      2.75005      0.00000        -0.079566     -0.000000     -0.058689
      5.50010      2.75005      3.47664        -0.032390     -0.000000      0.060903
      5.50010      2.75005      6.95327        -0.000161     -0.000000     -0.020548
      5.50010      5.50010      0.00000         0.026376      0.075196     -0.085949
      5.50010      5.50010      3.47664         0.037410      0.080511      0.029986
      5.50010      5.50010      6.95327        -0.008852      0.002541      0.039873
      1.37502      1.37502      1.73832        -0.178269     -0.021791     -0.028562
      1.37502      1.37502      5.21496         0.014112     -0.021215      0.057086
      1.37502      1.37502      8.69159        -0.039042      0.031121      0.001086
      1.37502      4.12507      1.73832        -0.178269      0.021791     -0.028562
      1.37502      4.12507      5.21496         0.014112      0.021215      0.057086
      1.37502      4.12507      8.69159        -0.039042     -0.031121      0.001086
      1.37502      6.87512      1.73832        -0.001142     -0.000000     -0.070022
      1.37502      6.87512      5.21496        -0.050409     -0.000000      0.064914
      1.37502      6.87512      8.69159         0.039523     -0.000000      0.004232
      4.12507      1.37502      1.73832         0.000000      0.324075     -0.029771
      4.12507      1.37502      5.21496         0.000000      0.077124      0.041727
      4.12507      1.37502      8.69159         0.000000     -0.043478     -0.127676
      4.12507      4.12507      1.73832         0.000000     -0.324075     -0.029771
      4.12507      4.12507      5.21496         0.000000     -0.077124      0.041727
      4.12507      4.12507      8.69159         0.000000      0.043478     -0.127676
      4.12507      6.87512      1.73832         0.000000     -0.000000      0.050435
      4.12507      6.87512      5.21496         0.000000     -0.000000      0.026489
      4.12507      6.87512      8.69159         0.000000     -0.000000      0.055080
      6.87512      1.37502      1.73832         0.178269     -0.021791     -0.028562
      6.87512      1.37502      5.21496        -0.014112     -0.021215      0.057086
      6.87512      1.37502      8.69159         0.039042      0.031121      0.001086
      6.87512      4.12507      1.73832         0.178269      0.021791     -0.028562
      6.87512      4.12507      5.21496        -0.014112      0.021215      0.057086
      6.87512      4.12507      8.69159         0.039042     -0.031121      0.001086
      6.87512      6.87512      1.73832         0.001142     -0.000000     -0.070022
      6.87512      6.87512      5.21496         0.050409     -0.000000      0.064914
      6.87512      6.87512      8.69159        -0.039523     -0.000000      0.004232
 -----------------------------------------------------------------------------------
    total drift:                               -0.000000     -0.000000     -0.000070


--------------------------------------------------------------------------------------------------------



  FREE ENERGIE OF THE ION-ELECTRON SYSTEM (eV)
  ---------------------------------------------------
  free  energy   TOTEN  =      -356.58703933 eV

  energy  without entropy=     -356.57139742  energy(sigma->0) =     -356.58182536
 


--------------------------------------------------------------------------------------------------------


    POTLOK:  cpu time    0.9801: real time    0.9802


--------------------------------------------------------------------------------------------------------


     LOOP+:  cpu time 1667.6302: real time 1681.6506
    4ORBIT:  cpu time    0.0000: real time    0.0000
 


 total charge     
 
# of ion       s       p       d       tot
------------------------------------------
    1        0.405   0.426   0.000   0.831
    2        0.404   0.428   0.000   0.832
    3        0.405   0.428   0.000   0.833
    4        0.405   0.426   0.000   0.831
    5        0.404   0.427   0.000   0.832
    6        0.405   0.427   0.000   0.832
    7        0.405   0.426   0.000   0.831
    8        0.404   0.428   0.000   0.832
    9        0.405   0.428   0.000   0.833
   10        0.405   0.428   0.000   0.833
   11        0.404   0.430   0.000   0.834
   12        0.405   0.427   0.000   0.832
   13        0.405   0.428   0.000   0.834
   14        0.405   0.429   0.000   0.834
   15        0.405   0.427   0.000   0.833
   16        0.405   0.428   0.000   0.834
   17        0.404   0.429   0.000   0.834
   18        0.405   0.427   0.000   0.832
   19        0.405   0.428   0.000   0.833
   20        0.404   0.430   0.000   0.834
   21        0.405   0.427   0.000   0.832
   22        0.405   0.429   0.000   0.834
   23        0.405   0.429   0.000   0.834
   24        0.405   0.427   0.000   0.832
   25        0.405   0.428   0.000   0.834
   26        0.405   0.430   0.000   0.834
   27        0.405   0.427   0.000   0.832
   28        0.334   0.355   5.133   5.822
   29        0.333   0.350   5.145   5.828
   30        0.334   0.352   5.142   5.827
   31        0.333   0.354   5.126   5.814
   32        0.333   0.350   5.141   5.825
   33        0.334   0.352   5.141   5.826
   34        0.331   0.353   5.137   5.821
   35        0.334   0.352   5.137   5.823
   36        0.335   0.350   5.141   5.826
   37        0.334   0.355   5.128   5.817
   38        0.331   0.352   5.143   5.826
   39        0.335   0.349   5.139   5.823
   40        0.334   0.355   5.128   5.817
   41        0.331   0.353   5.129   5.813
   42        0.335   0.350   5.136   5.820
   43        0.331   0.358   5.131   5.821
   44        0.334   0.349   5.138   5.821
   45        0.334   0.353   5.131   5.819
   46        0.333   0.355   5.127   5.815
   47        0.333   0.351   5.130   5.814
   48        0.334   0.352   5.128   5.813
   49        0.333   0.355   5.133   5.822
   50        0.333   0.351   5.130   5.814
   51        0.333   0.352   5.127   5.813
   52        0.331   0.353   5.139   5.823
   53        0.334   0.352   5.131   5.818
   54        0.335   0.350   5.132   5.817
--------------------------------------------------
tot         19.936  21.064 138.625 179.625
 


 magnetization (x)
 
# of ion       s       p       d       tot
------------------------------------------
    1        0.000   0.002   0.000   0.002
    2       -0.022  -0.037   0.000  -0.059
    3       -0.000   0.001   0.000   0.001
    4        0.002   0.005   0.000   0.006
    5       -0.021  -0.035   0.000  -0.056
    6        0.000  -0.002   0.000  -0.002
    7        0.000   0.002   0.000   0.002
    8       -0.022  -0.037   0.000  -0.059
    9       -0.000   0.001   0.000   0.000
   10        0.005   0.011   0.000   0.016
   11       -0.016  -0.030   0.000  -0.046
   12       -0.000   0.000   0.000   0.000
   13        0.009   0.020   0.000   0.029
   14       -0.012  -0.021   0.000  -0.033
   15       -0.000   0.002   0.000   0.002
   16        0.005   0.010   0.000   0.015
   17       -0.017  -0.029   0.000  -0.046
   18       -0.000   0.000   0.000   0.000
   19        0.005   0.010   0.000   0.015
   20       -0.017  -0.029   0.000  -0.046
   21        0.000   0.000   0.000   0.000
   22        0.010   0.019   0.000   0.028
   23       -0.012  -0.020   0.000  -0.032
   24       -0.000   0.002   0.000   0.002
   25        0.005   0.009   0.000   0.014
   26       -0.017  -0.029   0.000  -0.045
   27        0.000   0.000   0.000   0.000
   28        0.021   0.021   2.384   2.426
   29        0.018   0.019   2.363   2.400
   30       -0.014  -0.019  -2.271  -2.304
   31        0.021   0.020   2.383   2.424
   32        0.018   0.019   2.365   2.402
   33       -0.014  -0.019  -2.274  -2.307
   34        0.010   0.009   2.328   2.347
   35        0.016   0.023   2.362   2.401
   36       -0.016  -0.015  -2.296  -2.327
   37       -0.024  -0.018  -2.406  -2.448
   38        0.013   0.020   2.222   2.255
   39       -0.019  -0.017  -2.357  -2.392
   40       -0.024  -0.018  -2.406  -2.448
   41        0.013   0.020   2.239   2.272
   42       -0.019  -0.017  -2.366  -2.401
   43        0.030   0.032   2.236   2.297
   44        0.020   0.015   2.401   2.437
   45       -0.013  -0.023  -2.266  -2.301
   46        0.021   0.021   2.379   2.420
   47        0.018   0.018   2.380   2.417
   48       -0.014  -0.019  -2.288  -2.321
   49        0.021   0.021   2.384   2.426
   50        0.018   0.019   2.383   2.420
   51       -0.015  -0.019  -2.295  -2.329
   52        0.010   0.009   2.327   2.346
   53        0.016   0.023   2.370   2.409
   54       -0.016  -0.015  -2.306  -2.337
--------------------------------------------------
tot         -0.016  -0.064  11.972  11.893
 

 total amount of memory used by VASP MPI-rank0   887625. kBytes
=======================================================================

   base      :      30000. kBytes
   nonl-proj :      28494. kBytes
   fftplans  :      31580. kBytes
   grid      :      21385. kBytes
   one-center:        435. kBytes
   wavefun   :     775731. kBytes
 
  
  
 General timing and accounting informations for this job:
 ========================================================
  
                  Total CPU time used (sec):     1699.847
                            User time (sec):     1674.756
                          System time (sec):       25.091
                         Elapsed time (sec):     1716.463
  
                   Maximum memory used (kb):     1060692.
                   Average memory used (kb):           0.
  
                          Minor page faults:       544726
                          Major page faults:           21
                 Voluntary context switches:         2850
