       N       E                     dE             d eps       ncg     rms          rms(c)
DAV:   1     0.394752978451E+04    0.39475E+04   -0.14571E+05  6984   0.166E+03
DAV:   2     0.487518441940E+03   -0.34600E+04   -0.31899E+04  7464   0.443E+02
DAV:   3    -0.171086096931E+03   -0.65860E+03   -0.63939E+03  7540   0.212E+02
DAV:   4    -0.208824154567E+03   -0.37738E+02   -0.37092E+02  8072   0.550E+01
DAV:   5    -0.210288345972E+03   -0.14642E+01   -0.14566E+01  8640   0.109E+01    0.378E+01
DAV:   6    -0.182743970329E+03    0.27544E+02   -0.21133E+02  9812   0.638E+01    0.197E+01
DAV:   7    -0.182676373394E+03    0.67597E-01   -0.29584E+01  9752   0.387E+01    0.853E+00
DAV:   8    -0.183033543074E+03   -0.35717E+00   -0.41516E+00  8624   0.585E+00    0.458E+00
DAV:   9    -0.182932043735E+03    0.10150E+00   -0.60714E-01  9392   0.641E+00    0.201E+00
DAV:  10    -0.182955983997E+03   -0.23940E-01   -0.23850E-01  9360   0.270E+00    0.678E-01
DAV:  11    -0.182957269877E+03   -0.12859E-02   -0.39287E-02  9984   0.120E+00    0.238E-01
DAV:  12    -0.182960497648E+03   -0.32278E-02   -0.11926E-02  7680   0.404E-01    0.121E-01
DAV:  13    -0.182961419365E+03   -0.92172E-03   -0.19303E-03  9160   0.181E-01    0.485E-02
DAV:  14    -0.182961519216E+03   -0.99851E-04   -0.19423E-04  8952   0.786E-02    0.239E-02
DAV:  15    -0.182961539651E+03   -0.20434E-04   -0.41566E-05  8496   0.256E-02    0.117E-02
DAV:  16    -0.182961548397E+03   -0.87467E-05   -0.11542E-05  8912   0.190E-02    0.611E-03
DAV:  17    -0.182961550117E+03   -0.17200E-05   -0.38494E-06  9448   0.917E-03    0.283E-03
DAV:  18    -0.182961550431E+03   -0.31331E-06   -0.58689E-07  7248   0.380E-03    0.134E-03
DAV:  19    -0.182961550517E+03   -0.86169E-07   -0.17596E-07  5528   0.237E-03
   1 F= -.18296155E+03 E0= -.18296155E+03  d E =0.000000E+00  mag=     4.0000
