 vasp.5.4.4.18Apr17-6-g9f103f2a35 (build Dec 13 2018 10:28:32) complex          
  
 executed on             LinuxIFC date 2019.05.16  10:22:59
 running on   48 total cores
 distrk:  each k-point on   48 cores,    1 groups
 distr:  one band on NCORES_PER_BAND=  24 cores,    2 groups


--------------------------------------------------------------------------------------------------------


 INCAR:
 POTCAR:   PAW_PBE F 08Apr2002                    
 POTCAR:   PAW_PBE Ni 06Sep2000                   
 POTCAR:   PAW_PBE Cs_sv 08Apr2002                

 ----------------------------------------------------------------------------- 
|                                                                             |
|           W    W    AA    RRRRR   N    N  II  N    N   GGGG   !!!           |
|           W    W   A  A   R    R  NN   N  II  NN   N  G    G  !!!           |
|           W    W  A    A  R    R  N N  N  II  N N  N  G       !!!           |
|           W WW W  AAAAAA  RRRRR   N  N N  II  N  N N  G  GGG   !            |
|           WW  WW  A    A  R   R   N   NN  II  N   NN  G    G                |
|           W    W  A    A  R    R  N    N  II  N    N   GGGG   !!!           |
|                                                                             |
|      For optimal performance we recommend to set                            |
|        NCORE= 4 - approx SQRT( number of cores)                             |
|      NCORE specifies how many cores store one orbital (NPAR=cpu/NCORE).     |
|      This setting can  greatly improve the performance of VASP for DFT.     |
|      The default,   NCORE=1            might be grossly inefficient         |
|      on modern multi-core architectures or massively parallel machines.     |
|      Do your own testing !!!!                                               |
|      Unfortunately you need to use the default for GW and RPA calculations. |
|      (for HF NCORE is supported but not extensively tested yet)             |
|                                                                             |
 ----------------------------------------------------------------------------- 

 POTCAR:   PAW_PBE F 08Apr2002                    
   VRHFIN =F: s2p5                                                              
   LEXCH  = PE                                                                  
   EATOM  =   659.4942 eV,   48.4715 Ry                                         
                                                                                
   TITEL  = PAW_PBE F 08Apr2002                                                 
   LULTRA =        F    use ultrasoft PP ?                                      
   IUNSCR =        0    unscreen: 0-lin 1-nonlin 2-no                           
   RPACOR =     .000    partial core radius                                     
   POMASS =   18.998; ZVAL   =    7.000    mass and valenz                      
   RCORE  =    1.520    outmost cutoff radius                                   
   RWIGS  =    1.500; RWIGS  =     .794    wigner-seitz radius (au A)           
   ENMAX  =  400.000; ENMIN  =  300.000 eV                                      
   ICORE  =        2    local potential                                         
   LCOR   =        T    correct aug charges                                     
   LPAW   =        T    paw PP                                                  
   EAUG   =  613.614                                                            
   DEXC   =     .000                                                            
   RMAX   =    2.254    core radius for proj-oper                               
   RAUG   =    1.300    factor for augmentation sphere                          
   RDEP   =    1.539    radius for radial grids                                 
   QCUT   =   -5.545; QGAM   =   11.091    optimization parameters              
                                                                                
   Description                                                                  
     l     E      TYP  RCUT    TYP  RCUT                                        
     0   .000     23  1.200                                                     
     0  -.700     23  1.200                                                     
     1   .000     23  1.520                                                     
     1   .100     23  1.520                                                     
     2   .000      7  1.500                                                     
  local pseudopotential read in
  atomic valenz-charges read in
  non local Contribution for L=           0  read in
    real space projection operators read in
  non local Contribution for L=           0  read in
    real space projection operators read in
  non local Contribution for L=           1  read in
    real space projection operators read in
  non local Contribution for L=           1  read in
    real space projection operators read in
    PAW grid and wavefunctions read in
 
   number of l-projection  operators is LMAX  =           4
   number of lm-projection operators is LMMAX =           8
 
 POTCAR:   PAW_PBE Ni 06Sep2000                   
   VRHFIN =Ni:                                                                  
   LEXCH  = PE                                                                  
   EATOM  =  1077.9025 eV,   79.2236 Ry                                         
                                                                                
   TITEL  = PAW_PBE Ni 06Sep2000                                                
   LULTRA =        F    use ultrasoft PP ?                                      
   IUNSCR =        1    unscreen: 0-lin 1-nonlin 2-no                           
   RPACOR =    2.000    partial core radius                                     
   POMASS =   58.690; ZVAL   =   10.000    mass and valenz                      
   RCORE  =    2.300    outmost cutoff radius                                   
   RWIGS  =    2.430; RWIGS  =    1.286    wigner-seitz radius (au A)           
   ENMAX  =  269.533; ENMIN  =  202.150 eV                                      
   RCLOC  =    1.681    cutoff for local pot                                    
   LCOR   =        T    correct aug charges                                     
   LPAW   =        T    paw PP                                                  
   EAUG   =  544.565                                                            
   DEXC   =    -.009                                                            
   RMAX   =    2.808    core radius for proj-oper                               
   RAUG   =    1.300    factor for augmentation sphere                          
   RDEP   =    2.390    radius for radial grids                                 
   QCUT   =   -4.451; QGAM   =    8.902    optimization parameters              
                                                                                
   Description                                                                  
     l     E      TYP  RCUT    TYP  RCUT                                        
     2   .000     23  2.300                                                     
     2   .000     23  2.300                                                     
     0   .000     23  2.300                                                     
     0   .000     23  2.300                                                     
     1  -.200     23  2.300                                                     
     1   .000     23  2.300                                                     
     3   .000      7   .000                                                     
  local pseudopotential read in
  partial core-charges read in
  atomic valenz-charges read in
  non local Contribution for L=           2  read in
    real space projection operators read in
  non local Contribution for L=           2  read in
    real space projection operators read in
  non local Contribution for L=           0  read in
    real space projection operators read in
  non local Contribution for L=           0  read in
    real space projection operators read in
  non local Contribution for L=           1  read in
    real space projection operators read in
  non local Contribution for L=           1  read in
    real space projection operators read in
    PAW grid and wavefunctions read in
 
   number of l-projection  operators is LMAX  =           6
   number of lm-projection operators is LMMAX =          18
 
 POTCAR:   PAW_PBE Cs_sv 08Apr2002                
   VRHFIN =Cs: 5s5p6s                                                           
   LEXCH  = PE                                                                  
   EATOM  =   555.6835 eV,   40.8416 Ry                                         
                                                                                
   TITEL  = PAW_PBE Cs_sv 08Apr2002                                             
   LULTRA =        F    use ultrasoft PP ?                                      
   IUNSCR =        1    unscreen: 0-lin 1-nonlin 2-no                           
   RPACOR =    2.200    partial core radius                                     
   POMASS =  132.900; ZVAL   =    9.000    mass and valenz                      
   RCORE  =    2.500    outmost cutoff radius                                   
   RWIGS  =    2.500; RWIGS  =    1.323    wigner-seitz radius (au A)           
   ENMAX  =  220.318; ENMIN  =  165.238 eV                                      
   RCLOC  =    2.207    cutoff for local pot                                    
   LCOR   =        T    correct aug charges                                     
   LPAW   =        T    paw PP                                                  
   EAUG   =  407.933                                                            
   DEXC   =    -.004                                                            
   RMAX   =    3.106    core radius for proj-oper                               
   RAUG   =    1.300    factor for augmentation sphere                          
   RDEP   =    2.590    radius for radial grids                                 
   QCUT   =   -4.024; QGAM   =    8.048    optimization parameters              
                                                                                
   Description                                                                  
     l     E      TYP  RCUT    TYP  RCUT                                        
     0   .000     23  1.900                                                     
     0   .000     23  1.900                                                     
     0   .000     23  1.900                                                     
     0   .000     23  1.900                                                     
     1   .000     23  2.500                                                     
     1  -.200     23  2.500                                                     
     2   .000     23  2.500                                                     
  local pseudopotential read in
  partial core-charges read in
  atomic valenz-charges read in
  non local Contribution for L=           0  read in
    real space projection operators read in
  non local Contribution for L=           0  read in
    real space projection operators read in
  non local Contribution for L=           1  read in
    real space projection operators read in
  non local Contribution for L=           1  read in
    real space projection operators read in
  non local Contribution for L=           2  read in
    real space projection operators read in
    PAW grid and wavefunctions read in
 
   number of l-projection  operators is LMAX  =           5
   number of lm-projection operators is LMMAX =          13
 
 PAW_PBE F 08Apr2002                    :
 energy of atom  1       EATOM= -659.4942
 kinetic energy error for atom=    0.0323 (will be added to EATOM!!)
 PAW_PBE Ni 06Sep2000                   :
 energy of atom  2       EATOM=-1077.9025
 kinetic energy error for atom=    0.0030 (will be added to EATOM!!)
 PAW_PBE Cs_sv 08Apr2002                :
 energy of atom  3       EATOM= -555.6835
 kinetic energy error for atom=    0.0016 (will be added to EATOM!!)
 
 
 POSCAR: For VASP. System= small                 
  positions in cartesian coordinates
  velocities in cartesian coordinates
  No initial velocities read in
 exchange correlation table for  LEXCH =        8
   RHO(1)=    0.500       N(1)  =     2000
   RHO(2)=  100.500       N(2)  =     4000
 


--------------------------------------------------------------------------------------------------------


 ion  position               nearest neighbor table
   1  0.570  0.640  0.250-  32 2.04  28 2.04
   2  0.070  0.640  0.250-  31 2.04  27 2.04
   3  0.570  0.140  0.250-  30 2.04  26 2.04
   4  0.070  0.140  0.250-  29 2.04  25 2.04
   5  0.860  0.930  0.250-  29 2.04  25 2.04
   6  0.360  0.930  0.250-  30 2.04  26 2.04
   7  0.860  0.430  0.250-  31 2.04  27 2.04
   8  0.360  0.430  0.250-  32 2.04  28 2.04
   9  0.570  0.930  0.250-  30 2.04  26 2.04
  10  0.070  0.930  0.250-  29 2.04  25 2.04
  11  0.570  0.430  0.250-  32 2.04  28 2.04
  12  0.070  0.430  0.250-  31 2.04  27 2.04
  13  0.930  0.860  0.750-  25 2.04  29 2.04
  14  0.430  0.860  0.750-  26 2.04  30 2.04
  15  0.930  0.360  0.750-  27 2.04  31 2.04
  16  0.430  0.360  0.750-  28 2.04  32 2.04
  17  0.640  0.570  0.750-  28 2.04  32 2.04
  18  0.140  0.570  0.750-  27 2.04  31 2.04
  19  0.640  0.070  0.750-  26 2.04  30 2.04
  20  0.140  0.070  0.750-  25 2.04  29 2.04
  21  0.930  0.570  0.750-  27 2.04  31 2.04
  22  0.430  0.570  0.750-  28 2.04  32 2.04
  23  0.930  0.070  0.750-  25 2.04  29 2.04
  24  0.430  0.070  0.750-  26 2.04  30 2.04
  25  0.000  0.000  0.000-  20 2.04   5 2.04   4 2.04  13 2.04  23 2.04  10 2.04  29 2.66  29 2.66

  26  0.500  0.000  0.000-  19 2.04   6 2.04   3 2.04  14 2.04  24 2.04   9 2.04  30 2.66  30 2.66

  27  1.000  0.500  0.000-  18 2.04   7 2.04  15 2.04   2 2.04  21 2.04  12 2.04  31 2.66  31 2.66

  28  0.500  0.500  0.000-  17 2.04   8 2.04  16 2.04   1 2.04  22 2.04  11 2.04  32 2.66  32 2.66

  29  0.000  0.000  0.500-   5 2.04  20 2.04   4 2.04  13 2.04  10 2.04  23 2.04  25 2.66  25 2.66

  30  0.500  0.000  0.500-   6 2.04  19 2.04   3 2.04  14 2.04   9 2.04  24 2.04  26 2.66  26 2.66

  31  1.000  0.500  0.500-   7 2.04  18 2.04   2 2.04  15 2.04  12 2.04  21 2.04  27 2.66  27 2.66

  32  0.500  0.500  0.500-   8 2.04  17 2.04   1 2.04  16 2.04  11 2.04  22 2.04  28 2.66  28 2.66

  33  0.667  0.833  0.750-
  34  0.167  0.833  0.750-
  35  0.667  0.333  0.750-
  36  0.167  0.333  0.750-
  37  0.833  0.667  0.250-
  38  0.333  0.667  0.250-
  39  0.833  0.167  0.250-
  40  0.333  0.167  0.250-
 
  LATTYP: Found a hexagonal cell.
 ALAT       =    12.7752670119
 C/A-ratio  =     0.4167528495
  
  Lattice vectors:
  
 A1 = (   6.3876227840,  11.0637119627,   0.0000000000)
 A2 = (   6.3876227840, -11.0637119627,   0.0000000000)
 A3 = (   0.0000000000,   0.0000000000,  -5.3241289298)


Analysis of symmetry for initial positions (statically):
=====================================================================
 Subroutine PRICEL returns following result:
 
  LATTYP: Found a hexagonal cell.
 ALAT       =     6.3876335059
 C/A-ratio  =     0.8335056989
  
  Lattice vectors:
  
 A1 = (   3.1938113920,   5.5318559813,   0.0000000000)
 A2 = (   3.1938113920,  -5.5318559813,   0.0000000000)
 A3 = (   0.0000000000,   0.0000000000,  -5.3241289298)
 
   4 primitive cells build up your supercell.
 

 Routine SETGRP: Setting up the symmetry group for a 
 hexagonal supercell.


 Subroutine GETGRP returns: Found  8 space group operations
 (whereof  4 operations were pure point group operations)
 out of a pool of 24 trial point group operations.


The static configuration has the point symmetry C_2h.
 The point group associated with its full space group is D_2h.


Analysis of symmetry for dynamics (positions and initial velocities):
=====================================================================
 Subroutine PRICEL returns following result:
 
  LATTYP: Found a hexagonal cell.
 ALAT       =     6.3876335059
 C/A-ratio  =     0.8335056989
  
  Lattice vectors:
  
 A1 = (   3.1938113920,   5.5318559813,   0.0000000000)
 A2 = (   3.1938113920,  -5.5318559813,   0.0000000000)
 A3 = (   0.0000000000,   0.0000000000,  -5.3241289298)
 
   4 primitive cells build up your supercell.
 

 Routine SETGRP: Setting up the symmetry group for a 
 hexagonal supercell.


 Subroutine GETGRP returns: Found  8 space group operations
 (whereof  4 operations were pure point group operations)
 out of a pool of 24 trial point group operations.


The dynamic configuration has the point symmetry C_2h.
 The point group associated with its full space group is D_2h.


Analysis of structural, dynamic, and magnetic symmetry:
=====================================================================
 Subroutine PRICEL returns:
 Original cell was already a primitive cell.
 

 Routine SETGRP: Setting up the symmetry group for a 
 hexagonal supercell.


 Subroutine GETGRP returns: Found  4 space group operations
 (whereof  2 operations were pure point group operations)
 out of a pool of 24 trial point group operations.


The magnetic configuration has the point symmetry S_2 .
 The point group associated with its full space group is C_2h.


 Subroutine INISYM returns: Found  4 space group operations
 (whereof  2 operations are pure point group operations),
 and found     1 'primitive' translations

 
 
 KPOINTS: Automatic mesh                          

Automatic generation of k-mesh.
Space group operators:
 irot       det(A)        alpha          n_x          n_y          n_z        tau_x        tau_y        tau_z
    1     1.000000     0.000000     1.000000     0.000000     0.000000     0.000000     0.000000     0.000000
    2    -1.000000     0.000000     1.000000     0.000000     0.000000     0.000000     0.000000     0.000000
    3     1.000000   180.000000    -0.500001    -0.866025     0.000000     0.500000     0.500000     0.000000
    4    -1.000000   180.000000    -0.500001    -0.866025     0.000000     0.500000     0.500000     0.000000
 
 Subroutine IBZKPT returns following result:
 ===========================================
 
 Found      9 irreducible k-points:
 
 Following reciprocal coordinates:
            Coordinates               Weight
  0.000000  0.000000  0.000000      1.000000
  0.500000  0.000000  0.000000      2.000000
  0.500000  0.500000  0.000000      1.000000
  0.000000  0.000000  0.250000      2.000000
  0.500000  0.000000  0.250000      4.000000
  0.500000  0.500000  0.250000      2.000000
  0.000000  0.000000  0.500000      1.000000
  0.500000  0.000000  0.500000      2.000000
  0.500000  0.500000  0.500000      1.000000
 
 Following cartesian coordinates:
            Coordinates               Weight
  0.000000  0.000000  0.000000      1.000000
  0.039138  0.022596  0.000000      2.000000
  0.039138  0.067789  0.000000      1.000000
  0.000000  0.000000  0.046956      2.000000
  0.039138  0.022596  0.046956      4.000000
  0.039138  0.067789  0.046956      2.000000
  0.000000  0.000000  0.093912      1.000000
  0.039138  0.022596  0.093912      2.000000
  0.039138  0.067789  0.093912      1.000000
 
 TETIRR: Found     24 inequivalent tetrahedra from       96


--------------------------------------------------------------------------------------------------------




 Dimension of arrays:
   k-points           NKPTS =      9   k-points in BZ     NKDIM =      9   number of bands    NBANDS=    194
   number of dos      NEDOS =    301   number of ions     NIONS =     40
   non local maximal  LDIM  =      6   non local SUM 2l+1 LMDIM =     18
   total plane-waves  NPLWV = 368640
   max r-space proj   IRMAX =   9164   max aug-charges    IRDMAX=   9965
   dimension x,y,z NGX =    96 NGY =   96 NGZ =   40
   dimension x,y,z NGXF=   140 NGYF=  140 NGZF=   60
   support grid    NGXF=   140 NGYF=  140 NGZF=   60
   ions per type =              24   8   8
   NGX,Y,Z   is equivalent  to a cutoff of  12.49, 12.49, 12.49 a.u.
   NGXF,Y,Z  is equivalent  to a cutoff of  18.22, 18.22, 18.74 a.u.

 SYSTEM =  CsNiF3 AF without U                     
 POSCAR =  For VASP. System= small                 

 Startparameter for this run:
   NWRITE =      2    write-flag & timer
   PREC   = high      normal or accurate (medium, high low for compatibility)
   ISTART =      0    job   : 0-new  1-cont  2-samecut
   ICHARG =      2    charge: 1-file 2-atom 10-const
   ISPIN  =      2    spin polarized calculation?
   LNONCOLLINEAR =      F non collinear calculations
   LSORBIT =      F    spin-orbit coupling
   INIWAV =      1    electr: 0-lowe 1-rand  2-diag
   LASPH  =      F    aspherical Exc in radial PAW
   METAGGA=      F    non-selfconsistent MetaGGA calc.

 Electronic Relaxation 1
   ENCUT  =  520.0 eV  38.22 Ry    6.18 a.u.  23.75 23.75  9.90*2*pi/ulx,y,z
   ENINI  =  520.0     initial cutoff
   ENAUG  =  613.6 eV  augmentation charge cutoff
   NELM   =    100;   NELMIN=  2; NELMDL= -5     # of ELM steps 
   EDIFF  = 0.1E-06   stopping-criterion for ELM
   LREAL  =      T    real-space projection
   NLSPLINE    = F    spline interpolate recip. space projectors
   LCOMPAT=      F    compatible to vasp.4.4
   GGA_COMPAT  = T    GGA compatible to vasp.4.4-vasp.4.6
   LMAXPAW     = -100 max onsite density
   LMAXMIX     =    2 max onsite mixed and CHGCAR
   VOSKOWN=      0    Vosko Wilk Nusair interpolation
   ROPT   =    0.00000   0.00000   0.00000
 Ionic relaxation
   EDIFFG = 0.1E-05   stopping-criterion for IOM
   NSW    =      0    number of steps for IOM
   NBLOCK =      1;   KBLOCK =      1    inner block; outer block 
   IBRION =     -1    ionic relax: 0-MD 1-quasi-New 2-CG
   NFREE  =      0    steps in history (QN), initial steepest desc. (CG)
   ISIF   =      2    stress and relaxation
   IWAVPR =     10    prediction:  0-non 1-charg 2-wave 3-comb
   ISYM   =      2    0-nonsym 1-usesym 2-fastsym
   LCORR  =      T    Harris-Foulkes like correction to forces

   POTIM  = 0.5000    time-step for ionic-motion
   TEIN   =    0.0    initial temperature
   TEBEG  =    0.0;   TEEND  =   0.0 temperature during run
   SMASS  =  -3.00    Nose mass-parameter (am)
   estimated Nose-frequenzy (Omega)   =  0.10E-29 period in steps =****** mass=  -0.373E-26a.u.
   SCALEE = 1.0000    scale energy and forces
   NPACO  =    256;   APACO  = 16.0  distance and # of slots for P.C.
   PSTRESS=    0.0 pullay stress

  Mass of Ions in am
   POMASS =  19.00 58.69132.90
  Ionic Valenz
   ZVAL   =   7.00 10.00  9.00
  Atomic Wigner-Seitz radii
   RWIGS  =  -1.00 -1.00 -1.00
  virtual crystal weights 
   VCA    =   1.00  1.00  1.00
   NELECT =     320.0000    total number of electrons
   NUPDOWN=      -1.0000    fix difference up-down

 DOS related values:
   EMIN   =  10.00;   EMAX   =-10.00  energy-range for DOS
   EFERMI =   0.00
   ISMEAR =    -5;   SIGMA  =   0.20  broadening in eV -4-tet -1-fermi 0-gaus

 Electronic relaxation 2 (details)
   IALGO  =     38    algorithm
   LDIAG  =      T    sub-space diagonalisation (order eigenvalues)
   LSUBROT=      F    optimize rotation matrix (better conditioning)
   TURBO    =      0    0=normal 1=particle mesh
   IRESTART =      0    0=no restart 2=restart with 2 vectors
   NREBOOT  =      0    no. of reboots
   NMIN     =      0    reboot dimension
   EREF     =   0.00    reference energy to select bands
   IMIX   =      4    mixing-type and parameters
     AMIX     =   0.40;   BMIX     =  1.00
     AMIX_MAG =   1.60;   BMIX_MAG =  1.00
     AMIN     =   0.10
     WC   =   100.;   INIMIX=   1;  MIXPRE=   1;  MAXMIX= -45

 Intra band minimization:
   WEIMIN = 0.0000     energy-eigenvalue tresh-hold
   EBREAK =  0.13E-09  absolut break condition
   DEPER  =   0.30     relativ break condition  

   TIME   =   0.40     timestep for ELM

  volume/ion in A,a.u.               =      18.81       126.96
  Fermi-wavevector in a.u.,A,eV,Ry     =   1.231077  2.326398 20.620322  1.515551
  Thomas-Fermi vector in A             =   2.365901
 
 Write flags
   LWAVE        =      F    write WAVECAR
   LDOWNSAMPLE  =      F    k-point downsampling of WAVECAR
   LCHARG       =      F    write CHGCAR
   LVTOT        =      F    write LOCPOT, total local potential
   LVHAR        =      F    write LOCPOT, Hartree potential only
   LELF         =      F    write electronic localiz. function (ELF)
   LORBIT       =     11    0 simple, 1 ext, 2 COOP (PROOUT), +10 PAW based schemes


 Dipole corrections
   LMONO  =      F    monopole corrections only (constant potential shift)
   LDIPOL =      F    correct potential (dipole corrections)
   IDIPOL =      0    1-x, 2-y, 3-z, 4-all directions 
   EPSILON=  1.0000000 bulk dielectric constant

 Exchange correlation treatment:
   GGA     =    --    GGA type
   LEXCH   =     8    internal setting for exchange type
   VOSKOWN=      0    Vosko Wilk Nusair interpolation
   LHFCALC =     F    Hartree Fock is set to
   LHFONE  =     F    Hartree Fock one center treatment
   AEXX    =    0.0000 exact exchange contribution

 Linear response parameters
   LEPSILON=     F    determine dielectric tensor
   LRPA    =     F    only Hartree local field effects (RPA)
   LNABLA  =     F    use nabla operator in PAW spheres
   LVEL    =     F    velocity operator in full k-point grid
   LINTERFAST=   F  fast interpolation
   KINTER  =     0    interpolate to denser k-point grid
   CSHIFT  =0.1000    complex shift for real part using Kramers Kronig
   OMEGAMAX=  -1.0    maximum frequency
   DEG_THRESHOLD= 0.2000000E-02 threshold for treating states as degnerate
   RTIME   =   -0.100 relaxation time in fs
  (WPLASMAI=    0.000 imaginary part of plasma frequency in eV, 0.658/RTIME)
   DFIELD  = 0.0000000 0.0000000 0.0000000 field for delta impulse in time
 
 Orbital magnetization related:
   ORBITALMAG=     F  switch on orbital magnetization
   LCHIMAG   =     F  perturbation theory with respect to B field
   DQ        =  0.001000  dq finite difference perturbation B field
   LLRAUG    =     F  two centre corrections for induced B field



--------------------------------------------------------------------------------------------------------


 Static calculation
 charge density and potential will be updated during run
 spin polarized calculation
 Variant of blocked Davidson
 Davidson routine will perform the subspace rotation
 perform sub-space diagonalisation
    after iterative eigenvector-optimisation
 modified Broyden-mixing scheme, WC =      100.0
 initial mixing is a Kerker type mixing with AMIX =  0.4000 and BMIX =      1.0000
 Hartree-type preconditioning will be used
 using additional bands           34
 real space projection scheme for non local part
 use partial core corrections
 calculate Harris-corrections to forces 
   (improved forces if not selfconsistent)
 use gradient corrections 
 use of overlap-Matrix (Vanderbilt PP)
 Fermi weights with tetrahedron method with Bloechl corrections


--------------------------------------------------------------------------------------------------------


  energy-cutoff  :      520.00
  volume of cell :      752.52
      direct lattice vectors                 reciprocal lattice vectors
    12.775245568  0.000000000  0.000000000     0.078276382  0.045192789  0.000000000
    -6.387622784 11.063711963  0.000000000     0.000000000  0.090385578  0.000000000
     0.000000000  0.000000000  5.324128930     0.000000000  0.000000000  0.187824152

  length of vectors
    12.775245568 12.775267012  5.324128930     0.090385730  0.090385578  0.187824152


 
 k-points in units of 2pi/SCALE and weight: Automatic mesh                          
   0.00000000  0.00000000  0.00000000       0.062
   0.03913819  0.02259639  0.00000000       0.125
   0.03913819  0.06778918  0.00000000       0.062
   0.00000000  0.00000000  0.04695604       0.125
   0.03913819  0.02259639  0.04695604       0.250
   0.03913819  0.06778918  0.04695604       0.125
   0.00000000  0.00000000  0.09391208       0.062
   0.03913819  0.02259639  0.09391208       0.125
   0.03913819  0.06778918  0.09391208       0.062
 
 k-points in reciprocal lattice and weights: Automatic mesh                          
   0.00000000  0.00000000  0.00000000       0.062
   0.50000000  0.00000000  0.00000000       0.125
   0.50000000  0.50000000  0.00000000       0.062
   0.00000000  0.00000000  0.25000000       0.125
   0.50000000  0.00000000  0.25000000       0.250
   0.50000000  0.50000000  0.25000000       0.125
   0.00000000  0.00000000  0.50000000       0.062
   0.50000000  0.00000000  0.50000000       0.125
   0.50000000  0.50000000  0.50000000       0.062
 
 position of ions in fractional coordinates (direct lattice) 
   0.57007855  0.64016376  0.25000000
   0.07007855  0.64016376  0.25000000
   0.57007855  0.14016376  0.25000000
   0.07007855  0.14016376  0.25000000
   0.85983624  0.92992145  0.25000000
   0.35983624  0.92992145  0.25000000
   0.85983624  0.42992145  0.25000000
   0.35983624  0.42992145  0.25000000
   0.57008349  0.92991651  0.25000000
   0.07008349  0.92991651  0.25000000
   0.57008349  0.42991651  0.25000000
   0.07008349  0.42991651  0.25000000
   0.92992145  0.85983624  0.75000000
   0.42992145  0.85983624  0.75000000
   0.92992145  0.35983624  0.75000000
   0.42992145  0.35983624  0.75000000
   0.64016376  0.57007855  0.75000000
   0.14016376  0.57007855  0.75000000
   0.64016376  0.07007855  0.75000000
   0.14016376  0.07007855  0.75000000
   0.92991651  0.57008349  0.75000000
   0.42991651  0.57008349  0.75000000
   0.92991651  0.07008349  0.75000000
   0.42991651  0.07008349  0.75000000
   0.00000000  0.00000000  0.00000000
   0.50000000  0.00000000  0.00000000
   1.00000000  0.50000000  0.00000000
   0.50000000  0.50000000  0.00000000
   0.00000000  0.00000000  0.50000000
   0.50000000  0.00000000  0.50000000
   1.00000000  0.50000000  0.50000000
   0.50000000  0.50000000  0.50000000
   0.66666713  0.83333287  0.75000000
   0.16666713  0.83333287  0.75000000
   0.66666713  0.33333287  0.75000000
   0.16666713  0.33333287  0.75000000
   0.83333287  0.66666713  0.25000000
   0.33333287  0.66666713  0.25000000
   0.83333287  0.16666713  0.25000000
   0.33333287  0.16666713  0.25000000
 
 position of ions in cartesian coordinates  (Angst):
   3.19376888  7.08258743  1.33103223
  -3.19385391  7.08258743  1.33103223
   6.38758027  1.55073145  1.33103223
  -0.00004252  1.55073145  1.33103223
   5.04463170 10.28838306  1.33103223
  -1.34299108 10.28838306  1.33103223
   8.23844310  4.75652708  1.33103223
   1.85082031  4.75652708  1.33103223
   1.34300064 10.28832845  1.33103223
  -5.04462215 10.28832845  1.33103223
   4.53681203  4.75647247  1.33103223
  -1.85081076  4.75647247  1.33103223
   6.38766530  9.51298052  3.99309670
   0.00004252  9.51298052  3.99309670
   9.58147669  3.98112454  3.99309670
   3.19385391  3.98112454  3.99309670
   4.53680247  6.30718488  3.99309670
  -1.85082031  6.30718488  3.99309670
   7.73061386  0.77532890  3.99309670
   1.34299108  0.77532890  3.99309670
   8.23843354  6.30723949  3.99309670
   1.85081076  6.30723949  3.99309670
  11.43224493  0.77538351  3.99309670
   5.04462215  0.77538351  3.99309670
   0.00000000  0.00000000  0.00000000
   6.38762278  0.00000000  0.00000000
   9.58143418  5.53185598  0.00000000
   3.19381139  5.53185598  0.00000000
   0.00000000  0.00000000  2.66206446
   6.38762278  0.00000000  2.66206446
   9.58143418  5.53185598  2.66206446
   3.19381139  5.53185598  2.66206446
   3.19382031  9.21975482  3.99309670
  -3.19380247  9.21975482  3.99309670
   6.38763170  3.68789884  3.99309670
   0.00000892  3.68789884  3.99309670
   6.38761387  7.37581312  1.33103223
  -0.00000892  7.37581312  1.33103223
   9.58142526  1.84395714  1.33103223
   3.19380247  1.84395714  1.33103223
 


--------------------------------------------------------------------------------------------------------


 k-point  1 :   0.0000 0.0000 0.0000  plane waves:   20197
 k-point  2 :   0.5000 0.0000 0.0000  plane waves:   20226
 k-point  3 :   0.5000 0.5000 0.0000  plane waves:   20226
 k-point  4 :   0.0000 0.0000 0.2500  plane waves:   20294
 k-point  5 :   0.5000 0.0000 0.2500  plane waves:   20258
 k-point  6 :   0.5000 0.5000 0.2500  plane waves:   20258
 k-point  7 :   0.0000 0.0000 0.5000  plane waves:   20240
 k-point  8 :   0.5000 0.0000 0.5000  plane waves:   20320
 k-point  9 :   0.5000 0.5000 0.5000  plane waves:   20320

 maximum and minimum number of plane-waves per node :       882      806

 maximum number of plane-waves:     20320
 maximum index in each direction: 
   IXMAX=   23   IYMAX=   23   IZMAX=    9
   IXMIN=  -24   IYMIN=  -24   IZMIN=  -10


 real space projection operators:
  total allocation   :      19689.81 KBytes
  max/ min on nodes  :        844.06        757.81


 parallel 3D FFT for wavefunctions:
    minimum data exchange during FFTs selected (reduces bandwidth)
 parallel 3D FFT for charge:
    minimum data exchange during FFTs selected (reduces bandwidth)


 total amount of memory used by VASP MPI-rank0    66821. kBytes
=======================================================================

   base      :      30000. kBytes
   nonlr-proj:       7318. kBytes
   fftplans  :       1395. kBytes
   grid      :       3519. kBytes
   one-center:         62. kBytes
   wavefun   :      24527. kBytes
 
     INWAV:  cpu time    0.0000: real time    0.0000
 Broyden mixing: mesh for mixing (old mesh)
   NGX = 47   NGY = 47   NGZ = 19
  (NGX  =140   NGY  =140   NGZ  = 60)
  gives a total of  41971 points

 initial charge density was supplied:
 charge density of overlapping atoms calculated
 number of electron     320.0000000 magnetization       3.2840000
 keeping initial charge density in first step


--------------------------------------------------------------------------------------------------------


 Maximum index for non-local projection operator          385
 Maximum index for augmentation-charges          493 (set IRDMAX)


--------------------------------------------------------------------------------------------------------


 First call to EWALD:  gamma=   0.195
 Maximum number of real-space cells 2x 2x 4
 Maximum number of reciprocal cells 4x 4x 2

    FEWALD:  cpu time    0.0020: real time    0.0020


--------------------------------------- Iteration      1(   1)  ---------------------------------------


    POTLOK:  cpu time    0.0535: real time    0.0554
    SETDIJ:  cpu time    0.0074: real time    0.0074
     EDDAV:  cpu time    8.5616: real time    8.6985
 BZINTS: Fermi energy: 19.912367;320.000000 electrons
         Band energy:1674.525378;  BLOECHL correction: -0.097453
       DOS:  cpu time    0.0134: real time    0.0134
    --------------------------------------------
      LOOP:  cpu time    8.6360: real time    8.7748

 eigenvalue-minimisations  :  6984
 total energy-change (2. order) : 0.3947530E+04  (-0.1457078E+05)
 number of electron     320.0000000 magnetization       3.2840000
 augmentation part      320.0000000 magnetization       3.2840000

 Free energy of the ion-electron system (eV)
  ---------------------------------------------------
  alpha Z        PSCENC =      1278.33848294
  Ewald energy   TEWEN  =    -16011.11606870
  -Hartree energ DENC   =    -12510.24273293
  -exchange      EXHF   =         0.00000000
  -V(xc)+E(xc)   XCENC  =      1221.37863031
  PAW double counting   =     19640.54138542   -20241.63226317
  entropy T*S    EENTRO =         0.00000000
  eigenvalues    EBANDS =      1674.52537755
  atomic energy  EATOM  =     28895.73697308
  Solvation  Ediel_sol  =         0.00000000
  ---------------------------------------------------
  free energy    TOTEN  =      3947.52978451 eV

  energy without entropy =     3947.52978451  energy(sigma->0) =     3947.52978451


--------------------------------------------------------------------------------------------------------




--------------------------------------- Iteration      1(   2)  ---------------------------------------


     EDDAV:  cpu time    9.0172: real time    9.1699
 BZINTS: Fermi energy:  5.589943;320.000000 electrons
         Band energy:***********;  BLOECHL correction: -0.072726
       DOS:  cpu time    0.0120: real time    0.0120
    --------------------------------------------
      LOOP:  cpu time    9.0292: real time    9.1819

 eigenvalue-minimisations  :  7464
 total energy-change (2. order) :-0.3460011E+04  (-0.3189921E+04)
 number of electron     320.0000000 magnetization       3.2840000
 augmentation part      320.0000000 magnetization       3.2840000

 Free energy of the ion-electron system (eV)
  ---------------------------------------------------
  alpha Z        PSCENC =      1278.33848294
  Ewald energy   TEWEN  =    -16011.11606870
  -Hartree energ DENC   =    -12510.24273293
  -exchange      EXHF   =         0.00000000
  -V(xc)+E(xc)   XCENC  =      1221.37863031
  PAW double counting   =     19640.54138542   -20241.63226317
  entropy T*S    EENTRO =         0.00000000
  eigenvalues    EBANDS =     -1785.48596502
  atomic energy  EATOM  =     28895.73697308
  Solvation  Ediel_sol  =         0.00000000
  ---------------------------------------------------
  free energy    TOTEN  =       487.51844194 eV

  energy without entropy =      487.51844194  energy(sigma->0) =      487.51844194


--------------------------------------------------------------------------------------------------------




--------------------------------------- Iteration      1(   3)  ---------------------------------------


     EDDAV:  cpu time    8.8203: real time    8.9514
 BZINTS: Fermi energy:  3.682147;320.000000 electrons
         Band energy:***********;  BLOECHL correction: -0.001122
       DOS:  cpu time    0.0111: real time    0.0111
    --------------------------------------------
      LOOP:  cpu time    8.8313: real time    8.9625

 eigenvalue-minimisations  :  7540
 total energy-change (2. order) :-0.6586045E+03  (-0.6393872E+03)
 number of electron     320.0000000 magnetization       3.2840000
 augmentation part      320.0000000 magnetization       3.2840000

 Free energy of the ion-electron system (eV)
  ---------------------------------------------------
  alpha Z        PSCENC =      1278.33848294
  Ewald energy   TEWEN  =    -16011.11606870
  -Hartree energ DENC   =    -12510.24273293
  -exchange      EXHF   =         0.00000000
  -V(xc)+E(xc)   XCENC  =      1221.37863031
  PAW double counting   =     19640.54138542   -20241.63226317
  entropy T*S    EENTRO =         0.00000000
  eigenvalues    EBANDS =     -2444.09050389
  atomic energy  EATOM  =     28895.73697308
  Solvation  Ediel_sol  =         0.00000000
  ---------------------------------------------------
  free energy    TOTEN  =      -171.08609693 eV

  energy without entropy =     -171.08609693  energy(sigma->0) =     -171.08609693


--------------------------------------------------------------------------------------------------------




--------------------------------------- Iteration      1(   4)  ---------------------------------------


     EDDAV:  cpu time    9.5978: real time    9.7864
 BZINTS: Fermi energy:  3.514940;320.000000 electrons
         Band energy:***********;  BLOECHL correction: -0.008659
       DOS:  cpu time    0.0120: real time    0.0120
    --------------------------------------------
      LOOP:  cpu time    9.6099: real time    9.7984

 eigenvalue-minimisations  :  8072
 total energy-change (2. order) :-0.3773806E+02  (-0.3709216E+02)
 number of electron     320.0000000 magnetization       3.2840000
 augmentation part      320.0000000 magnetization       3.2840000

 Free energy of the ion-electron system (eV)
  ---------------------------------------------------
  alpha Z        PSCENC =      1278.33848294
  Ewald energy   TEWEN  =    -16011.11606870
  -Hartree energ DENC   =    -12510.24273293
  -exchange      EXHF   =         0.00000000
  -V(xc)+E(xc)   XCENC  =      1221.37863031
  PAW double counting   =     19640.54138542   -20241.63226317
  entropy T*S    EENTRO =         0.00000000
  eigenvalues    EBANDS =     -2481.82856152
  atomic energy  EATOM  =     28895.73697308
  Solvation  Ediel_sol  =         0.00000000
  ---------------------------------------------------
  free energy    TOTEN  =      -208.82415457 eV

  energy without entropy =     -208.82415457  energy(sigma->0) =     -208.82415457


--------------------------------------------------------------------------------------------------------




--------------------------------------- Iteration      1(   5)  ---------------------------------------


     EDDAV:  cpu time    9.9848: real time   10.1502
 BZINTS: Fermi energy:  3.502631;320.000000 electrons
         Band energy:***********;  BLOECHL correction: -0.008137
       DOS:  cpu time    0.0115: real time    0.0115
    CHARGE:  cpu time    0.3908: real time    0.4350
    MIXING:  cpu time    0.0013: real time    0.0014
    --------------------------------------------
      LOOP:  cpu time   10.3885: real time   10.5981

 eigenvalue-minimisations  :  8640
 total energy-change (2. order) :-0.1464191E+01  (-0.1456571E+01)
 number of electron     320.0000869 magnetization       3.5781704
 augmentation part       64.5667821 magnetization       2.7073823

 Broyden mixing:
  rms(total) = 0.37806E+01    rms(broyden)= 0.37760E+01
  rms(prec ) = 0.46733E+01
  weight for this iteration     100.00

 Free energy of the ion-electron system (eV)
  ---------------------------------------------------
  alpha Z        PSCENC =      1278.33848294
  Ewald energy   TEWEN  =    -16011.11606870
  -Hartree energ DENC   =    -12510.24273293
  -exchange      EXHF   =         0.00000000
  -V(xc)+E(xc)   XCENC  =      1221.37863031
  PAW double counting   =     19640.54138542   -20241.63226317
  entropy T*S    EENTRO =         0.00000000
  eigenvalues    EBANDS =     -2483.29275293
  atomic energy  EATOM  =     28895.73697308
  Solvation  Ediel_sol  =         0.00000000
  ---------------------------------------------------
  free energy    TOTEN  =      -210.28834597 eV

  energy without entropy =     -210.28834597  energy(sigma->0) =     -210.28834597


--------------------------------------------------------------------------------------------------------




--------------------------------------- Iteration      1(   6)  ---------------------------------------


    POTLOK:  cpu time    0.0525: real time    0.0548
    SETDIJ:  cpu time    0.0072: real time    0.0072
     EDDAV:  cpu time   11.2091: real time   11.4386
 BZINTS: Fermi energy: -0.955350;320.000000 electrons
         Band energy:***********;  BLOECHL correction:  0.000000
       DOS:  cpu time    0.0023: real time    0.0023
    CHARGE:  cpu time    0.4156: real time    0.4160
    MIXING:  cpu time    0.0012: real time    0.0013
    --------------------------------------------
      LOOP:  cpu time   11.6880: real time   11.9202

 eigenvalue-minimisations  :  9812
 total energy-change (2. order) : 0.2754438E+02  (-0.2113350E+02)
 number of electron     320.0000823 magnetization       3.6975407
 augmentation part       66.2893055 magnetization       2.7718540

 Broyden mixing:
  rms(total) = 0.19711E+01    rms(broyden)= 0.19694E+01
  rms(prec ) = 0.21221E+01
  weight for this iteration     100.00

 eigenvalues of (default mixing * dielectric matrix)
  average eigenvalue GAMMA=   0.6182
  0.6182

 Free energy of the ion-electron system (eV)
  ---------------------------------------------------
  alpha Z        PSCENC =      1278.33848294
  Ewald energy   TEWEN  =    -16011.11606870
  -Hartree energ DENC   =    -12660.77985924
  -exchange      EXHF   =         0.00000000
  -V(xc)+E(xc)   XCENC  =      1242.62251870
  PAW double counting   =     20154.10482641   -20726.84471593
  entropy T*S    EENTRO =         0.00000000
  eigenvalues    EBANDS =     -2354.80612758
  atomic energy  EATOM  =     28895.73697308
  Solvation  Ediel_sol  =         0.00000000
  ---------------------------------------------------
  free energy    TOTEN  =      -182.74397033 eV

  energy without entropy =     -182.74397033  energy(sigma->0) =     -182.74397033


--------------------------------------------------------------------------------------------------------




--------------------------------------- Iteration      1(   7)  ---------------------------------------


    POTLOK:  cpu time    0.0498: real time    0.0519
    SETDIJ:  cpu time    0.0073: real time    0.0073
     EDDAV:  cpu time   11.0044: real time   11.1866
 BZINTS: Fermi energy:  0.486926;320.000000 electrons
         Band energy:***********;  BLOECHL correction:  0.000000
       DOS:  cpu time    0.0026: real time    0.0026
    CHARGE:  cpu time    0.4239: real time    0.4242
    MIXING:  cpu time    0.0012: real time    0.0012
    --------------------------------------------
      LOOP:  cpu time   11.4891: real time   11.6737

 eigenvalue-minimisations  :  9752
 total energy-change (2. order) : 0.6759694E-01  (-0.2958425E+01)
 number of electron     320.0000822 magnetization       3.7789484
 augmentation part       64.3335335 magnetization       2.8858314

 Broyden mixing:
  rms(total) = 0.85302E+00    rms(broyden)= 0.85285E+00
  rms(prec ) = 0.92599E+00
  weight for this iteration     100.00

 eigenvalues of (default mixing * dielectric matrix)
  average eigenvalue GAMMA=   0.6671
  0.6671  0.6671

 Free energy of the ion-electron system (eV)
  ---------------------------------------------------
  alpha Z        PSCENC =      1278.33848294
  Ewald energy   TEWEN  =    -16011.11606870
  -Hartree energ DENC   =    -12689.52516966
  -exchange      EXHF   =         0.00000000
  -V(xc)+E(xc)   XCENC  =      1238.79887323
  PAW double counting   =     20306.58927260   -20910.65508532
  entropy T*S    EENTRO =         0.00000000
  eigenvalues    EBANDS =     -2290.84365156
  atomic energy  EATOM  =     28895.73697308
  Solvation  Ediel_sol  =         0.00000000
  ---------------------------------------------------
  free energy    TOTEN  =      -182.67637339 eV

  energy without entropy =     -182.67637339  energy(sigma->0) =     -182.67637339


--------------------------------------------------------------------------------------------------------




--------------------------------------- Iteration      1(   8)  ---------------------------------------


    POTLOK:  cpu time    0.0478: real time    0.2721
    SETDIJ:  cpu time    0.0070: real time    0.0070
     EDDAV:  cpu time    9.9127: real time   10.0410
 BZINTS: Fermi energy:  0.565186;320.000000 electrons
         Band energy:***********;  BLOECHL correction:  0.000000
       DOS:  cpu time    0.0027: real time    0.0028
    CHARGE:  cpu time    0.3905: real time    0.3908
    MIXING:  cpu time    0.0012: real time    0.0012
    --------------------------------------------
      LOOP:  cpu time   10.3619: real time   10.7148

 eigenvalue-minimisations  :  8624
 total energy-change (2. order) :-0.3571697E+00  (-0.4151604E+00)
 number of electron     320.0000828 magnetization       3.9678849
 augmentation part       64.4196584 magnetization       3.1151582

 Broyden mixing:
  rms(total) = 0.45775E+00    rms(broyden)= 0.45763E+00
  rms(prec ) = 0.53430E+00
  weight for this iteration     100.00

 eigenvalues of (default mixing * dielectric matrix)
  average eigenvalue GAMMA=   1.0444
  1.7347  0.6992  0.6992

 Free energy of the ion-electron system (eV)
  ---------------------------------------------------
  alpha Z        PSCENC =      1278.33848294
  Ewald energy   TEWEN  =    -16011.11606870
  -Hartree energ DENC   =    -12676.25264012
  -exchange      EXHF   =         0.00000000
  -V(xc)+E(xc)   XCENC  =      1238.43985446
  PAW double counting   =     20356.41932118   -20966.74187345
  entropy T*S    EENTRO =         0.00000000
  eigenvalues    EBANDS =     -2297.85759247
  atomic energy  EATOM  =     28895.73697308
  Solvation  Ediel_sol  =         0.00000000
  ---------------------------------------------------
  free energy    TOTEN  =      -183.03354307 eV

  energy without entropy =     -183.03354307  energy(sigma->0) =     -183.03354307


--------------------------------------------------------------------------------------------------------




--------------------------------------- Iteration      1(   9)  ---------------------------------------


    POTLOK:  cpu time    0.0502: real time    0.0528
    SETDIJ:  cpu time    0.0072: real time    0.0072
     EDDAV:  cpu time   10.6837: real time   10.8699
 BZINTS: Fermi energy:  0.350952;320.000000 electrons
         Band energy:***********;  BLOECHL correction:  0.000000
       DOS:  cpu time    0.0022: real time    0.0022
    CHARGE:  cpu time    0.3930: real time    0.4011
    MIXING:  cpu time    0.0012: real time    0.0014
    --------------------------------------------
      LOOP:  cpu time   11.1376: real time   11.3346

 eigenvalue-minimisations  :  9392
 total energy-change (2. order) : 0.1014993E+00  (-0.6071393E-01)
 number of electron     320.0000824 magnetization       3.9964569
 augmentation part       64.5917792 magnetization       3.1089943

 Broyden mixing:
  rms(total) = 0.20068E+00    rms(broyden)= 0.20063E+00
  rms(prec ) = 0.21825E+00
  weight for this iteration     100.00

 eigenvalues of (default mixing * dielectric matrix)
  average eigenvalue GAMMA=   1.1153
  2.4612  0.7786  0.6106  0.6106

 Free energy of the ion-electron system (eV)
  ---------------------------------------------------
  alpha Z        PSCENC =      1278.33848294
  Ewald energy   TEWEN  =    -16011.11606870
  -Hartree energ DENC   =    -12687.69276389
  -exchange      EXHF   =         0.00000000
  -V(xc)+E(xc)   XCENC  =      1239.96871626
  PAW double counting   =     20534.67140282   -21157.05629119
  entropy T*S    EENTRO =         0.00000000
  eigenvalues    EBANDS =     -2275.78249506
  atomic energy  EATOM  =     28895.73697308
  Solvation  Ediel_sol  =         0.00000000
  ---------------------------------------------------
  free energy    TOTEN  =      -182.93204374 eV

  energy without entropy =     -182.93204374  energy(sigma->0) =     -182.93204374


--------------------------------------------------------------------------------------------------------




--------------------------------------- Iteration      1(  10)  ---------------------------------------


    POTLOK:  cpu time    0.0489: real time    0.0523
    SETDIJ:  cpu time    0.0071: real time    0.0071
     EDDAV:  cpu time   10.7554: real time   10.9509
 BZINTS: Fermi energy:  0.446202;320.000000 electrons
         Band energy:***********;  BLOECHL correction:  0.000000
       DOS:  cpu time    0.0023: real time    0.0023
    CHARGE:  cpu time    0.4430: real time    0.4431
    MIXING:  cpu time    0.0017: real time    0.0017
    --------------------------------------------
      LOOP:  cpu time   11.2584: real time   11.4575

 eigenvalue-minimisations  :  9360
 total energy-change (2. order) :-0.2394026E-01  (-0.2384980E-01)
 number of electron     320.0000826 magnetization       3.9965659
 augmentation part       64.4859277 magnetization       3.1132995

 Broyden mixing:
  rms(total) = 0.67787E-01    rms(broyden)= 0.67765E-01
  rms(prec ) = 0.82292E-01
  weight for this iteration     100.00

 eigenvalues of (default mixing * dielectric matrix)
  average eigenvalue GAMMA=   1.1052
  2.4630  1.0833  0.6617  0.6617  0.6561

 Free energy of the ion-electron system (eV)
  ---------------------------------------------------
  alpha Z        PSCENC =      1278.33848294
  Ewald energy   TEWEN  =    -16011.11606870
  -Hartree energ DENC   =    -12693.07234493
  -exchange      EXHF   =         0.00000000
  -V(xc)+E(xc)   XCENC  =      1240.04043403
  PAW double counting   =     20560.33955519   -21186.27089497
  entropy T*S    EENTRO =         0.00000000
  eigenvalues    EBANDS =     -2266.95212063
  atomic energy  EATOM  =     28895.73697308
  Solvation  Ediel_sol  =         0.00000000
  ---------------------------------------------------
  free energy    TOTEN  =      -182.95598400 eV

  energy without entropy =     -182.95598400  energy(sigma->0) =     -182.95598400


--------------------------------------------------------------------------------------------------------




--------------------------------------- Iteration      1(  11)  ---------------------------------------


    POTLOK:  cpu time    0.0555: real time    0.0801
    SETDIJ:  cpu time    0.0070: real time    0.0070
     EDDAV:  cpu time   11.2058: real time   11.4429
 BZINTS: Fermi energy:  0.514723;320.000000 electrons
         Band energy:***********;  BLOECHL correction:  0.000000
       DOS:  cpu time    0.0026: real time    0.0026
    CHARGE:  cpu time    0.4037: real time    0.4039
    MIXING:  cpu time    0.0015: real time    0.0015
    --------------------------------------------
      LOOP:  cpu time   11.6761: real time   11.9380

 eigenvalue-minimisations  :  9984
 total energy-change (2. order) :-0.1285880E-02  (-0.3928670E-02)
 number of electron     320.0000827 magnetization       3.9986846
 augmentation part       64.4670508 magnetization       3.1229298

 Broyden mixing:
  rms(total) = 0.23778E-01    rms(broyden)= 0.23703E-01
  rms(prec ) = 0.28060E-01
  weight for this iteration     100.00

 eigenvalues of (default mixing * dielectric matrix)
  average eigenvalue GAMMA=   1.1132
  2.4419  1.3648  0.9051  0.6610  0.6610  0.6453

 Free energy of the ion-electron system (eV)
  ---------------------------------------------------
  alpha Z        PSCENC =      1278.33848294
  Ewald energy   TEWEN  =    -16011.11606870
  -Hartree energ DENC   =    -12694.02958119
  -exchange      EXHF   =         0.00000000
  -V(xc)+E(xc)   XCENC  =      1239.88025605
  PAW double counting   =     20555.73209872   -21182.03545409
  entropy T*S    EENTRO =         0.00000000
  eigenvalues    EBANDS =     -2265.46397668
  atomic energy  EATOM  =     28895.73697308
  Solvation  Ediel_sol  =         0.00000000
  ---------------------------------------------------
  free energy    TOTEN  =      -182.95726988 eV

  energy without entropy =     -182.95726988  energy(sigma->0) =     -182.95726988


--------------------------------------------------------------------------------------------------------




--------------------------------------- Iteration      1(  12)  ---------------------------------------


    POTLOK:  cpu time    0.0509: real time    0.0545
    SETDIJ:  cpu time    0.0070: real time    0.0070
     EDDAV:  cpu time    9.2451: real time    9.3760
 BZINTS: Fermi energy:  0.516420;320.000000 electrons
         Band energy:***********;  BLOECHL correction:  0.000000
       DOS:  cpu time    0.0025: real time    0.0025
    CHARGE:  cpu time    0.3884: real time    0.3886
    MIXING:  cpu time    0.0015: real time    0.0015
    --------------------------------------------
      LOOP:  cpu time    9.6955: real time    9.8301

 eigenvalue-minimisations  :  7680
 total energy-change (2. order) :-0.3227772E-02  (-0.1192605E-02)
 number of electron     320.0000827 magnetization       4.0003177
 augmentation part       64.4758923 magnetization       3.1253759

 Broyden mixing:
  rms(total) = 0.12136E-01    rms(broyden)= 0.12130E-01
  rms(prec ) = 0.14682E-01
  weight for this iteration     100.00

 eigenvalues of (default mixing * dielectric matrix)
  average eigenvalue GAMMA=   1.1755
  2.4760  1.8896  1.0637  0.6695  0.6695  0.8105  0.6495

 Free energy of the ion-electron system (eV)
  ---------------------------------------------------
  alpha Z        PSCENC =      1278.33848294
  Ewald energy   TEWEN  =    -16011.11606870
  -Hartree energ DENC   =    -12696.27111028
  -exchange      EXHF   =         0.00000000
  -V(xc)+E(xc)   XCENC  =      1240.02351022
  PAW double counting   =     20555.67932970   -21181.86748945
  entropy T*S    EENTRO =         0.00000000
  eigenvalues    EBANDS =     -2263.48412516
  atomic energy  EATOM  =     28895.73697308
  Solvation  Ediel_sol  =         0.00000000
  ---------------------------------------------------
  free energy    TOTEN  =      -182.96049765 eV

  energy without entropy =     -182.96049765  energy(sigma->0) =     -182.96049765


--------------------------------------------------------------------------------------------------------




--------------------------------------- Iteration      1(  13)  ---------------------------------------


    POTLOK:  cpu time    0.0550: real time    0.0565
    SETDIJ:  cpu time    0.0069: real time    0.0069
     EDDAV:  cpu time   10.6560: real time   10.7997
 BZINTS: Fermi energy:  0.519818;320.000000 electrons
         Band energy:***********;  BLOECHL correction:  0.000000
       DOS:  cpu time    0.0026: real time    0.0026
    CHARGE:  cpu time    0.3893: real time    0.3896
    MIXING:  cpu time    0.0016: real time    0.0016
    --------------------------------------------
      LOOP:  cpu time   11.1115: real time   11.2569

 eigenvalue-minimisations  :  9160
 total energy-change (2. order) :-0.9217171E-03  (-0.1930255E-03)
 number of electron     320.0000826 magnetization       4.0003507
 augmentation part       64.4722236 magnetization       3.1247726

 Broyden mixing:
  rms(total) = 0.48458E-02    rms(broyden)= 0.48415E-02
  rms(prec ) = 0.55660E-02
  weight for this iteration     100.00

 eigenvalues of (default mixing * dielectric matrix)
  average eigenvalue GAMMA=   1.2185
  2.7180  2.3421  1.0068  1.0068  0.6677  0.6677  0.6876  0.6517

 Free energy of the ion-electron system (eV)
  ---------------------------------------------------
  alpha Z        PSCENC =      1278.33848294
  Ewald energy   TEWEN  =    -16011.11606870
  -Hartree energ DENC   =    -12698.39746492
  -exchange      EXHF   =         0.00000000
  -V(xc)+E(xc)   XCENC  =      1240.13874779
  PAW double counting   =     20556.55312011   -21182.73382977
  entropy T*S    EENTRO =         0.00000000
  eigenvalues    EBANDS =     -2261.48137989
  atomic energy  EATOM  =     28895.73697308
  Solvation  Ediel_sol  =         0.00000000
  ---------------------------------------------------
  free energy    TOTEN  =      -182.96141937 eV

  energy without entropy =     -182.96141937  energy(sigma->0) =     -182.96141937


--------------------------------------------------------------------------------------------------------




--------------------------------------- Iteration      1(  14)  ---------------------------------------


    POTLOK:  cpu time    0.0505: real time    0.0526
    SETDIJ:  cpu time    0.0071: real time    0.0071
     EDDAV:  cpu time   10.2093: real time   10.3940
 BZINTS: Fermi energy:  0.518773;320.000000 electrons
         Band energy:***********;  BLOECHL correction:  0.000000
       DOS:  cpu time    0.0027: real time    0.0027
    CHARGE:  cpu time    0.3896: real time    0.3899
    MIXING:  cpu time    0.0020: real time    0.0020
    --------------------------------------------
      LOOP:  cpu time   10.6614: real time   10.8485

 eigenvalue-minimisations  :  8952
 total energy-change (2. order) :-0.9985098E-04  (-0.1942270E-04)
 number of electron     320.0000827 magnetization       4.0001912
 augmentation part       64.4714920 magnetization       3.1249445

 Broyden mixing:
  rms(total) = 0.23940E-02    rms(broyden)= 0.23935E-02
  rms(prec ) = 0.27810E-02
  weight for this iteration     100.00

 eigenvalues of (default mixing * dielectric matrix)
  average eigenvalue GAMMA=   1.2019
  2.7737  2.4108  1.0831  1.0831  0.6694  0.6694  0.7923  0.6500  0.6853

 Free energy of the ion-electron system (eV)
  ---------------------------------------------------
  alpha Z        PSCENC =      1278.33848294
  Ewald energy   TEWEN  =    -16011.11606870
  -Hartree energ DENC   =    -12698.59050462
  -exchange      EXHF   =         0.00000000
  -V(xc)+E(xc)   XCENC  =      1240.14346510
  PAW double counting   =     20556.16368043   -21182.32798602
  entropy T*S    EENTRO =         0.00000000
  eigenvalues    EBANDS =     -2261.30956142
  atomic energy  EATOM  =     28895.73697308
  Solvation  Ediel_sol  =         0.00000000
  ---------------------------------------------------
  free energy    TOTEN  =      -182.96151922 eV

  energy without entropy =     -182.96151922  energy(sigma->0) =     -182.96151922


--------------------------------------------------------------------------------------------------------




--------------------------------------- Iteration      1(  15)  ---------------------------------------


    POTLOK:  cpu time    0.0507: real time    0.0528
    SETDIJ:  cpu time    0.0073: real time    0.0073
     EDDAV:  cpu time    9.9136: real time   10.0772
 BZINTS: Fermi energy:  0.546697;320.000000 electrons
         Band energy:***********;  BLOECHL correction:  0.000000
       DOS:  cpu time    0.0023: real time    0.0023
    CHARGE:  cpu time    0.4371: real time    0.4374
    MIXING:  cpu time    0.0021: real time    0.0021
    --------------------------------------------
      LOOP:  cpu time   10.4131: real time   10.5791

 eigenvalue-minimisations  :  8496
 total energy-change (2. order) :-0.2043414E-04  (-0.4156649E-05)
 number of electron     320.0000827 magnetization       4.0001190
 augmentation part       64.4727885 magnetization       3.1248425

 Broyden mixing:
  rms(total) = 0.11742E-02    rms(broyden)= 0.11718E-02
  rms(prec ) = 0.14119E-02
  weight for this iteration     100.00

 eigenvalues of (default mixing * dielectric matrix)
  average eigenvalue GAMMA=   1.2194
  2.8604  2.4018  1.3075  1.3075  0.9686  0.6704  0.6704  0.6359  0.6856  0.6856

 Free energy of the ion-electron system (eV)
  ---------------------------------------------------
  alpha Z        PSCENC =      1278.33848294
  Ewald energy   TEWEN  =    -16011.11606870
  -Hartree energ DENC   =    -12698.53322879
  -exchange      EXHF   =         0.00000000
  -V(xc)+E(xc)   XCENC  =      1240.14074571
  PAW double counting   =     20555.85202223   -21182.00219290
  entropy T*S    EENTRO =         0.00000000
  eigenvalues    EBANDS =     -2261.37827323
  atomic energy  EATOM  =     28895.73697308
  Solvation  Ediel_sol  =         0.00000000
  ---------------------------------------------------
  free energy    TOTEN  =      -182.96153965 eV

  energy without entropy =     -182.96153965  energy(sigma->0) =     -182.96153965


--------------------------------------------------------------------------------------------------------




--------------------------------------- Iteration      1(  16)  ---------------------------------------


    POTLOK:  cpu time    0.0505: real time    0.0524
    SETDIJ:  cpu time    0.0074: real time    0.0074
     EDDAV:  cpu time   10.2683: real time   10.4607
 BZINTS: Fermi energy:  0.546654;320.000000 electrons
         Band energy:***********;  BLOECHL correction:  0.000000
       DOS:  cpu time    0.0023: real time    0.0023
    CHARGE:  cpu time    0.3879: real time    0.3882
    MIXING:  cpu time    0.0019: real time    0.0019
    --------------------------------------------
      LOOP:  cpu time   10.7183: real time   10.9129

 eigenvalue-minimisations  :  8912
 total energy-change (2. order) :-0.8746661E-05  (-0.1154181E-05)
 number of electron     320.0000827 magnetization       4.0000689
 augmentation part       64.4735123 magnetization       3.1248080

 Broyden mixing:
  rms(total) = 0.61056E-03    rms(broyden)= 0.61004E-03
  rms(prec ) = 0.74990E-03
  weight for this iteration     100.00

 eigenvalues of (default mixing * dielectric matrix)
  average eigenvalue GAMMA=   1.2102
  2.9511  2.3854  1.7287  1.0759  1.0759  0.6712  0.6712  0.7469  0.7469  0.6485
  0.6108

 Free energy of the ion-electron system (eV)
  ---------------------------------------------------
  alpha Z        PSCENC =      1278.33848294
  Ewald energy   TEWEN  =    -16011.11606870
  -Hartree energ DENC   =    -12698.57168987
  -exchange      EXHF   =         0.00000000
  -V(xc)+E(xc)   XCENC  =      1240.14659192
  PAW double counting   =     20555.84759898   -21181.99682240
  entropy T*S    EENTRO =         0.00000000
  eigenvalues    EBANDS =     -2261.34661435
  atomic energy  EATOM  =     28895.73697308
  Solvation  Ediel_sol  =         0.00000000
  ---------------------------------------------------
  free energy    TOTEN  =      -182.96154840 eV

  energy without entropy =     -182.96154840  energy(sigma->0) =     -182.96154840


--------------------------------------------------------------------------------------------------------




--------------------------------------- Iteration      1(  17)  ---------------------------------------


    POTLOK:  cpu time    0.0491: real time    0.0524
    SETDIJ:  cpu time    0.0072: real time    0.0072
     EDDAV:  cpu time   10.8897: real time   11.0845
 BZINTS: Fermi energy:  0.546563;320.000000 electrons
         Band energy:***********;  BLOECHL correction:  0.000000
       DOS:  cpu time    0.0023: real time    0.0023
    CHARGE:  cpu time    0.3900: real time    0.3902
    MIXING:  cpu time    0.0021: real time    0.0021
    --------------------------------------------
      LOOP:  cpu time   11.3404: real time   11.5387

 eigenvalue-minimisations  :  9448
 total energy-change (2. order) :-0.1720040E-05  (-0.3849367E-06)
 number of electron     320.0000827 magnetization       4.0000285
 augmentation part       64.4732781 magnetization       3.1247070

 Broyden mixing:
  rms(total) = 0.28326E-03    rms(broyden)= 0.28316E-03
  rms(prec ) = 0.37842E-03
  weight for this iteration     100.00

 eigenvalues of (default mixing * dielectric matrix)
  average eigenvalue GAMMA=   1.2091
  3.0217  2.4156  1.9923  1.1031  1.1031  0.8802  0.6714  0.6714  0.7118  0.7118
  0.6357  0.5907

 Free energy of the ion-electron system (eV)
  ---------------------------------------------------
  alpha Z        PSCENC =      1278.33848294
  Ewald energy   TEWEN  =    -16011.11606870
  -Hartree energ DENC   =    -12698.61735845
  -exchange      EXHF   =         0.00000000
  -V(xc)+E(xc)   XCENC  =      1240.15064278
  PAW double counting   =     20555.87636240   -21182.02954143
  entropy T*S    EENTRO =         0.00000000
  eigenvalues    EBANDS =     -2261.30104273
  atomic energy  EATOM  =     28895.73697308
  Solvation  Ediel_sol  =         0.00000000
  ---------------------------------------------------
  free energy    TOTEN  =      -182.96155012 eV

  energy without entropy =     -182.96155012  energy(sigma->0) =     -182.96155012


--------------------------------------------------------------------------------------------------------




--------------------------------------- Iteration      1(  18)  ---------------------------------------


    POTLOK:  cpu time    0.0500: real time    0.0521
    SETDIJ:  cpu time    0.0069: real time    0.0069
     EDDAV:  cpu time    9.1002: real time    9.2507
 BZINTS: Fermi energy:  0.546451;320.000000 electrons
         Band energy:***********;  BLOECHL correction:  0.000000
       DOS:  cpu time    0.0022: real time    0.0022
    CHARGE:  cpu time    0.3879: real time    0.3880
    MIXING:  cpu time    0.0023: real time    0.0023
    --------------------------------------------
      LOOP:  cpu time    9.5495: real time    9.7023

 eigenvalue-minimisations  :  7248
 total energy-change (2. order) :-0.3133064E-06  (-0.5868905E-07)
 number of electron     320.0000827 magnetization       3.9999994
 augmentation part       64.4731698 magnetization       3.1247200

 Broyden mixing:
  rms(total) = 0.13404E-03    rms(broyden)= 0.13387E-03
  rms(prec ) = 0.23010E-03
  weight for this iteration     100.00

 eigenvalues of (default mixing * dielectric matrix)
  average eigenvalue GAMMA=   1.2113
  3.0220  2.4658  2.0925  1.1414  1.1414  0.9578  0.6697  0.6697  0.8481  0.8481
  0.6675  0.6432  0.5797

 Free energy of the ion-electron system (eV)
  ---------------------------------------------------
  alpha Z        PSCENC =      1278.33848294
  Ewald energy   TEWEN  =    -16011.11606870
  -Hartree energ DENC   =    -12698.62731407
  -exchange      EXHF   =         0.00000000
  -V(xc)+E(xc)   XCENC  =      1240.15147397
  PAW double counting   =     20555.86425714   -21182.01900315
  entropy T*S    EENTRO =         0.00000000
  eigenvalues    EBANDS =     -2261.29035164
  atomic energy  EATOM  =     28895.73697308
  Solvation  Ediel_sol  =         0.00000000
  ---------------------------------------------------
  free energy    TOTEN  =      -182.96155043 eV

  energy without entropy =     -182.96155043  energy(sigma->0) =     -182.96155043


--------------------------------------------------------------------------------------------------------




--------------------------------------- Iteration      1(  19)  ---------------------------------------


    POTLOK:  cpu time    0.0537: real time    0.0550
    SETDIJ:  cpu time    0.0069: real time    0.0069
     EDDAV:  cpu time    7.3906: real time    7.4845
 BZINTS: Fermi energy:  0.546404;320.000000 electrons
         Band energy:***********;  BLOECHL correction:  0.000000
       DOS:  cpu time    0.0022: real time    0.0022
    --------------------------------------------
      LOOP:  cpu time    7.4534: real time    7.5486

 eigenvalue-minimisations  :  5528
 total energy-change (2. order) :-0.8616917E-07  (-0.1759595E-07)
 number of electron     320.0000827 magnetization       3.9999994
 augmentation part       64.4731698 magnetization       3.1247200

 Free energy of the ion-electron system (eV)
  ---------------------------------------------------
  alpha Z        PSCENC =      1278.33848294
  Ewald energy   TEWEN  =    -16011.11606870
  -Hartree energ DENC   =    -12698.62544586
  -exchange      EXHF   =         0.00000000
  -V(xc)+E(xc)   XCENC  =      1240.15154755
  PAW double counting   =     20555.85247854   -21182.00843422
  entropy T*S    EENTRO =         0.00000000
  eigenvalues    EBANDS =     -2261.29108384
  atomic energy  EATOM  =     28895.73697308
  Solvation  Ediel_sol  =         0.00000000
  ---------------------------------------------------
  free energy    TOTEN  =      -182.96155052 eV

  energy without entropy =     -182.96155052  energy(sigma->0) =     -182.96155052


--------------------------------------------------------------------------------------------------------




 average (electrostatic) potential at core
  the test charge radii are     0.7167  0.9791  1.1312
  (the norm of the test charge is              1.0000)
       1 -78.4121       2 -78.4146       3 -78.4122       4 -78.4122       5 -78.4121
       6 -78.4122       7 -78.4146       8 -78.4123       9 -78.4120      10 -78.4121
      11 -78.4121      12 -78.4145      13 -78.4122      14 -78.4122      15 -78.4146
      16 -78.4121      17 -78.4123      18 -78.4146      19 -78.4122      20 -78.4121
      21 -78.4145      22 -78.4121      23 -78.4121      24 -78.4120      25 -46.8049
      26 -46.8049      27 -46.7711      28 -46.8049      29 -46.8048      30 -46.8048
      31 -46.7711      32 -46.8048      33 -49.4739      34 -49.4742      35 -49.4742
      36 -49.4742      37 -49.4742      38 -49.4742      39 -49.4742      40 -49.4739
 
 
 
 E-fermi :   0.5464     XC(G=0):  -8.6946     alpha+bet : -7.8451


 spin component 1

 k-point     1 :       0.0000    0.0000    0.0000
  band No.  band energies     occupation 
      1     -22.3670      1.00000
      2     -22.2788      1.00000
      3     -22.2564      1.00000
      4     -22.2564      1.00000
      5     -22.0358      1.00000
      6     -21.9381      1.00000
      7     -21.9300      1.00000
      8     -21.9300      1.00000
      9     -21.9087      1.00000
     10     -21.9086      1.00000
     11     -21.8582      1.00000
     12     -21.8581      1.00000
     13     -21.8210      1.00000
     14     -21.8092      1.00000
     15     -21.8092      1.00000
     16     -21.7945      1.00000
     17     -21.7934      1.00000
     18     -21.7934      1.00000
     19     -21.7564      1.00000
     20     -21.7523      1.00000
     21     -21.7523      1.00000
     22     -21.7461      1.00000
     23     -21.7460      1.00000
     24     -21.7458      1.00000
     25     -19.7360      1.00000
     26     -19.7360      1.00000
     27     -19.7352      1.00000
     28     -19.7349      1.00000
     29     -19.7328      1.00000
     30     -19.7328      1.00000
     31     -19.7324      1.00000
     32     -19.7098      1.00000
     33      -7.0051      1.00000
     34      -7.0051      1.00000
     35      -6.9205      1.00000
     36      -6.8536      1.00000
     37      -6.8536      1.00000
     38      -6.8534      1.00000
     39      -6.7061      1.00000
     40      -6.7061      1.00000
     41      -6.7041      1.00000
     42      -6.6347      1.00000
     43      -6.6304      1.00000
     44      -6.6304      1.00000
     45      -6.5997      1.00000
     46      -6.5997      1.00000
     47      -6.5862      1.00000
     48      -6.5862      1.00000
     49      -6.5862      1.00000
     50      -6.5631      1.00000
     51      -6.5631      1.00000
     52      -6.5613      1.00000
     53      -6.4944      1.00000
     54      -6.4944      1.00000
     55      -6.4944      1.00000
     56      -6.4316      1.00000
     57      -5.7243      1.00000
     58      -5.5874      1.00000
     59      -5.5225      1.00000
     60      -5.5225      1.00000
     61      -5.1633      1.00000
     62      -5.0740      1.00000
     63      -5.0740      1.00000
     64      -4.8134      1.00000
     65      -4.8090      1.00000
     66      -4.8090      1.00000
     67      -4.7257      1.00000
     68      -4.6820      1.00000
     69      -4.6232      1.00000
     70      -4.6232      1.00000
     71      -4.6010      1.00000
     72      -4.5519      1.00000
     73      -4.5459      1.00000
     74      -4.5458      1.00000
     75      -4.5165      1.00000
     76      -4.5163      1.00000
     77      -4.4935      1.00000
     78      -4.4935      1.00000
     79      -4.0833      1.00000
     80      -4.0582      1.00000
     81      -4.0582      1.00000
     82      -4.0312      1.00000
     83      -4.0312      1.00000
     84      -4.0121      1.00000
     85      -3.9642      1.00000
     86      -3.9622      1.00000
     87      -3.9622      1.00000
     88      -3.9509      1.00000
     89      -3.9509      1.00000
     90      -3.8290      1.00000
     91      -3.8290      1.00000
     92      -3.8120      1.00000
     93      -3.7561      1.00000
     94      -3.7561      1.00000
     95      -3.7029      1.00000
     96      -3.6471      1.00000
     97      -3.6470      1.00000
     98      -3.6068      1.00000
     99      -3.6068      1.00000
    100      -3.5762      1.00000
    101      -3.5370      1.00000
    102      -3.5369      1.00000
    103      -3.4892      1.00000
    104      -3.3744      1.00000
    105      -3.3744      1.00000
    106      -3.3131      1.00000
    107      -3.2371      1.00000
    108      -3.2370      1.00000
    109      -3.0925      1.00000
    110      -3.0108      1.00000
    111      -3.0107      1.00000
    112      -2.9730      1.00000
    113      -2.9730      1.00000
    114      -2.9727      1.00000
    115      -2.9575      1.00000
    116      -2.8557      1.00000
    117      -2.8308      1.00000
    118      -2.8308      1.00000
    119      -2.7560      1.00000
    120      -2.6538      1.00000
    121      -2.6537      1.00000
    122      -2.6137      1.00000
    123      -2.6137      1.00000
    124      -2.6134      1.00000
    125      -2.5103      1.00000
    126      -2.4637      1.00000
    127      -2.4637      1.00000
    128      -2.4292      1.00000
    129      -1.5645      1.00000
    130      -1.3357      1.00000
    131      -1.3192      1.00000
    132      -1.3192      1.00000
    133      -1.2902      1.00000
    134      -1.2902      1.00000
    135      -1.0484      1.00000
    136      -1.0435      1.00000
    137      -1.0435      1.00000
    138      -1.0347      1.00000
    139      -1.0347      1.00000
    140      -1.0345      1.00000
    141      -0.8350      1.00000
    142      -0.8349      1.00000
    143      -0.6874      1.00000
    144      -0.5668      1.00000
    145      -0.5568      1.00000
    146      -0.5568      1.00000
    147      -0.5241      1.00000
    148      -0.5223      1.00000
    149      -0.5223      1.00000
    150      -0.4151      1.00000
    151      -0.4150      1.00000
    152      -0.3812      1.00000
    153      -0.3812      1.00000
    154       0.1047      1.00000
    155       0.1072      1.00000
    156       0.1072      1.00000
    157       0.1423      1.00000
    158       0.1514      1.00000
    159       0.1514      1.00000
    160       0.1647      1.00000
    161       0.1647      1.00000
    162       0.1703      1.00000
    163       1.7956      0.00000
    164       1.8139      0.00000
    165       1.8139      0.00000
    166       1.8436      0.00000
    167       1.8436      0.00000
    168       1.8455      0.00000
    169       3.8750      0.00000
    170       5.4078      0.00000
    171       5.4733      0.00000
    172       5.4733      0.00000
    173       5.8047      0.00000
    174       5.8048      0.00000
    175       5.8108      0.00000
    176       6.1434      0.00000
    177       6.4609      0.00000
    178       6.4609      0.00000
    179       6.4709      0.00000
    180       6.9714      0.00000
    181       6.9715      0.00000
    182       6.9752      0.00000
    183       7.0355      0.00000
    184       7.0356      0.00000
    185       7.1459      0.00000
    186       7.1460      0.00000
    187       7.5097      0.00000
    188       7.5097      0.00000
    189       7.5855      0.00000
    190       7.5973      0.00000
    191       7.5974      0.00000
    192       7.6886      0.00000
    193       7.6905      0.00000
    194       7.6905      0.00000

 k-point     2 :       0.5000    0.0000    0.0000
  band No.  band energies     occupation 
      1     -22.3658      1.00000
      2     -22.2735      1.00000
      3     -22.2643      1.00000
      4     -22.2566      1.00000
      5     -22.0357      1.00000
      6     -21.9358      1.00000
      7     -21.9328      1.00000
      8     -21.9300      1.00000
      9     -21.9080      1.00000
     10     -21.9068      1.00000
     11     -21.8583      1.00000
     12     -21.8581      1.00000
     13     -21.8142      1.00000
     14     -21.8065      1.00000
     15     -21.8040      1.00000
     16     -21.8033      1.00000
     17     -21.8011      1.00000
     18     -21.7937      1.00000
     19     -21.7533      1.00000
     20     -21.7512      1.00000
     21     -21.7496      1.00000
     22     -21.7495      1.00000
     23     -21.7483      1.00000
     24     -21.7459      1.00000
     25     -19.7373      1.00000
     26     -19.7370      1.00000
     27     -19.7363      1.00000
     28     -19.7362      1.00000
     29     -19.7315      1.00000
     30     -19.7313      1.00000
     31     -19.7203      1.00000
     32     -19.7200      1.00000
     33      -6.9361      1.00000
     34      -6.9336      1.00000
     35      -6.8404      1.00000
     36      -6.8370      1.00000
     37      -6.8326      1.00000
     38      -6.8294      1.00000
     39      -6.8221      1.00000
     40      -6.8209      1.00000
     41      -6.7181      1.00000
     42      -6.7176      1.00000
     43      -6.6850      1.00000
     44      -6.6841      1.00000
     45      -6.5831      1.00000
     46      -6.5809      1.00000
     47      -6.5779      1.00000
     48      -6.5775      1.00000
[...]
   26        0.296   0.368   8.172   8.837
   27        0.296   0.367   8.176   8.839
   28        0.296   0.368   8.172   8.837
   29        0.296   0.368   8.172   8.837
   30        0.296   0.368   8.172   8.837
   31        0.296   0.367   8.176   8.839
   32        0.296   0.368   8.172   8.837
   33        1.838   4.719   0.017   6.574
   34        1.838   4.719   0.017   6.574
   35        1.838   4.719   0.017   6.574
   36        1.838   4.719   0.017   6.574
   37        1.838   4.719   0.017   6.574
   38        1.838   4.719   0.017   6.574
   39        1.838   4.719   0.017   6.574
   40        1.838   4.719   0.017   6.574
--------------------------------------------------
tot         58.730 144.589  65.526 268.845
 


 magnetization (x)
 
# of ion       s       p       d       tot
------------------------------------------
    1       -0.000   0.000   0.000   0.000
    2        0.004   0.101   0.000   0.105
    3        0.000   0.000   0.000   0.000
    4        0.000   0.000   0.000   0.000
    5        0.000   0.000   0.000   0.000
    6        0.000   0.000   0.000   0.000
    7        0.004   0.101   0.000   0.105
    8        0.000   0.000   0.000   0.000
    9        0.000   0.000   0.000   0.000
   10        0.000   0.000   0.000   0.000
   11        0.000   0.000   0.000   0.000
   12        0.004   0.101   0.000   0.105
   13        0.000   0.000   0.000   0.000
   14        0.000   0.000   0.000   0.000
   15        0.004   0.101   0.000   0.105
   16       -0.000   0.000   0.000   0.000
   17        0.000   0.000   0.000   0.000
   18        0.004   0.101   0.000   0.105
   19        0.000   0.000   0.000   0.000
   20        0.000   0.000   0.000   0.000
   21        0.004   0.101   0.000   0.105
   22        0.000   0.000   0.000   0.000
   23        0.000   0.000   0.000   0.000
   24        0.000   0.000   0.000   0.000
   25        0.002   0.002   1.647   1.651
   26        0.002   0.002   1.647   1.651
   27        0.000  -0.001   1.644   1.642
   28        0.002   0.002   1.647   1.651
   29       -0.002  -0.002  -1.646  -1.650
   30       -0.002  -0.002  -1.646  -1.650
   31        0.000  -0.001   1.644   1.642
   32       -0.002  -0.002  -1.646  -1.651
   33        0.000   0.000   0.000   0.000
   34        0.000   0.000   0.000   0.001
   35        0.000   0.000   0.000   0.001
   36        0.000   0.000   0.000   0.001
   37        0.000   0.000   0.000   0.001
   38        0.000   0.000   0.000   0.001
   39        0.000   0.000   0.000   0.001
   40        0.000   0.000   0.000   0.000
--------------------------------------------------
tot          0.025   0.604   3.288   3.917
 
    CHARGE:  cpu time    0.3848: real time    0.3849
    FORLOC:  cpu time    0.0051: real time    0.0051
    FORNL :  cpu time    1.5496: real time    1.5729
    STRESS:  cpu time    4.6874: real time    4.7408
    FORCOR:  cpu time    0.0464: real time    0.0466
    FORHAR:  cpu time    0.0097: real time    0.0097
    MIXING:  cpu time    0.0022: real time    0.0022
    OFIELD:  cpu time    0.0001: real time    0.0001

  FORCE on cell =-STRESS in cart. coord.  units (eV):
  Direction    XX          YY          ZZ          XY          YZ          ZX
  --------------------------------------------------------------------------------------
  Alpha Z  1278.33848  1278.33848  1278.33848
  Ewald   -7609.75632 -7610.00282  -791.44196    -0.20307    -0.00000     0.00000
  Hartree  2322.02531  2321.81865  8054.77824    -0.18089     0.00000    -0.00001
  E(xc)   -1677.15756 -1677.15862 -1675.09827    -0.00110     0.00000    -0.00000
  Local     556.73136   557.16279-11901.22926     0.37979    -0.00001     0.00002
  n-local -1126.62714 -1126.64769 -1112.77956     0.00598     0.00007     0.00005
  augment   750.36239   750.36702   727.80781     0.00186     0.00000     0.00001
  Kinetic  5506.21764  5506.40429  5419.48249    -0.04966    -0.00004    -0.00003
  Fock        0.00000     0.00000     0.00000     0.00000     0.00000     0.00000
  -------------------------------------------------------------------------------------
  Total       0.21003     0.20623    -0.14201    -0.00329    -0.00001     0.00001
  in kB       0.44717     0.43908    -0.30235    -0.00700    -0.00001     0.00002
  external pressure =        0.19 kB  Pullay stress =        0.00 kB


 VOLUME and BASIS-vectors are now :
 -----------------------------------------------------------------------------
  energy-cutoff  :      520.00
  volume of cell :      752.52
      direct lattice vectors                 reciprocal lattice vectors
    12.775245568  0.000000000  0.000000000     0.078276382  0.045192789  0.000000000
    -6.387622784 11.063711963  0.000000000     0.000000000  0.090385578  0.000000000
     0.000000000  0.000000000  5.324128930     0.000000000  0.000000000  0.187824152

  length of vectors
    12.775245568 12.775267012  5.324128930     0.090385730  0.090385578  0.187824152


 FORCES acting on ions
    electron-ion (+dipol)            ewald-force                    non-local-force                 convergence-correction
 -----------------------------------------------------------------------------------------------
   0.391E-03 -.392E+03 0.647E-04   -.107E-02 0.408E+03 -.641E-08   0.657E-03 -.164E+02 -.108E-04   -.947E-05 0.120E-02 -.759E-04
   0.370E-03 -.392E+03 0.515E-03   -.107E-02 0.408E+03 -.641E-08   0.641E-03 -.163E+02 -.129E-03   0.229E-04 0.240E-02 -.300E-03
   0.140E-02 -.392E+03 0.542E-03   -.107E-02 0.408E+03 -.641E-08   0.113E-02 -.164E+02 -.463E-03   -.131E-02 -.824E-03 0.201E-04
   -.636E-03 -.392E+03 0.596E-03   -.107E-02 0.408E+03 -.641E-08   0.171E-03 -.164E+02 -.434E-03   0.132E-02 -.772E-03 -.768E-04
   0.339E+03 0.196E+03 0.110E-03   -.354E+03 -.204E+03 -.641E-08   0.142E+02 0.818E+01 -.108E-04   -.104E-02 -.591E-03 -.759E-04
   0.339E+03 0.196E+03 0.587E-03   -.354E+03 -.204E+03 -.642E-08   0.142E+02 0.818E+01 -.463E-03   0.569E-04 0.155E-02 0.201E-04
   0.339E+03 0.196E+03 0.560E-03   -.354E+03 -.204E+03 -.642E-08   0.142E+02 0.817E+01 -.129E-03   -.206E-02 -.122E-02 -.300E-03
   0.339E+03 0.196E+03 0.641E-03   -.354E+03 -.204E+03 -.642E-08   0.142E+02 0.818E+01 -.434E-03   0.133E-02 -.760E-03 -.768E-04
   -.339E+03 0.196E+03 0.356E-04   0.354E+03 -.204E+03 -.641E-08   -.142E+02 0.818E+01 -.399E-04   0.968E-03 -.559E-03 0.179E-04
   -.339E+03 0.196E+03 0.619E-03   0.354E+03 -.204E+03 -.641E-08   -.142E+02 0.818E+01 -.435E-03   0.124E-04 0.153E-02 -.762E-04
   -.339E+03 0.196E+03 0.619E-03   0.354E+03 -.204E+03 -.641E-08   -.142E+02 0.818E+01 -.435E-03   -.132E-02 -.776E-03 -.762E-04
   -.339E+03 0.196E+03 0.539E-03   0.354E+03 -.204E+03 -.641E-08   -.142E+02 0.817E+01 -.131E-03   0.205E-02 -.118E-02 -.301E-03
   0.636E-03 0.392E+03 -.596E-03   0.107E-02 -.408E+03 -.641E-08   -.171E-03 0.164E+02 0.434E-03   -.132E-02 0.772E-03 0.768E-04
   -.140E-02 0.392E+03 -.542E-03   0.107E-02 -.408E+03 -.641E-08   -.113E-02 0.164E+02 0.463E-03   0.131E-02 0.824E-03 -.201E-04
   -.370E-03 0.392E+03 -.515E-03   0.107E-02 -.408E+03 -.641E-08   -.641E-03 0.163E+02 0.129E-03   -.229E-04 -.240E-02 0.300E-03
   -.391E-03 0.392E+03 -.649E-04   0.107E-02 -.408E+03 -.641E-08   -.657E-03 0.164E+02 0.108E-04   0.947E-05 -.120E-02 0.759E-04
   -.339E+03 -.196E+03 -.641E-03   0.354E+03 0.204E+03 -.642E-08   -.142E+02 -.818E+01 0.434E-03   -.133E-02 0.760E-03 0.768E-04
   -.339E+03 -.196E+03 -.560E-03   0.354E+03 0.204E+03 -.642E-08   -.142E+02 -.817E+01 0.129E-03   0.206E-02 0.122E-02 0.300E-03
   -.339E+03 -.196E+03 -.587E-03   0.354E+03 0.204E+03 -.642E-08   -.142E+02 -.818E+01 0.463E-03   -.569E-04 -.155E-02 -.201E-04
   -.339E+03 -.196E+03 -.110E-03   0.354E+03 0.204E+03 -.642E-08   -.142E+02 -.818E+01 0.108E-04   0.104E-02 0.591E-03 0.759E-04
   0.339E+03 -.196E+03 -.539E-03   -.354E+03 0.204E+03 -.641E-08   0.142E+02 -.817E+01 0.131E-03   -.205E-02 0.118E-02 0.301E-03
   0.339E+03 -.196E+03 -.619E-03   -.354E+03 0.204E+03 -.641E-08   0.142E+02 -.818E+01 0.435E-03   0.132E-02 0.776E-03 0.762E-04
   0.339E+03 -.196E+03 -.619E-03   -.354E+03 0.204E+03 -.641E-08   0.142E+02 -.818E+01 0.435E-03   -.124E-04 -.153E-02 0.762E-04
   0.339E+03 -.196E+03 -.357E-04   -.354E+03 0.204E+03 -.641E-08   0.142E+02 -.818E+01 0.399E-04   -.968E-03 0.559E-03 -.179E-04
   -.976E-09 -.639E-09 -.322E-08   0.265E-09 -.724E-08 0.206E-07   -.124E-23 0.000E+00 0.000E+00   -.716E-11 0.408E-09 -.103E-10
   -.975E-09 -.639E-09 -.322E-08   0.265E-09 -.724E-08 0.206E-07   0.000E+00 0.000E+00 0.000E+00   -.736E-11 0.407E-09 -.103E-10
   -.252E-08 0.504E-08 -.224E-08   0.874E-08 0.171E-08 0.100E-07   0.827E-24 0.000E+00 0.000E+00   -.112E-10 -.517E-09 0.137E-10
   -.251E-08 0.505E-08 -.221E-08   0.874E-08 0.171E-08 0.100E-07   0.414E-24 0.000E+00 0.000E+00   -.119E-10 -.517E-09 0.137E-10
   -.977E-09 -.639E-09 -.368E-08   0.267E-09 -.724E-08 0.181E-07   -.414E-24 0.000E+00 0.000E+00   -.724E-11 0.408E-09 0.115E-10
   -.975E-09 -.639E-09 -.368E-08   0.267E-09 -.724E-08 0.181E-07   -.827E-24 0.000E+00 0.000E+00   -.741E-11 0.407E-09 0.114E-10
   -.252E-08 0.504E-08 -.469E-08   0.874E-08 0.171E-08 0.287E-07   -.165E-23 0.000E+00 0.000E+00   -.113E-10 -.517E-09 -.126E-10
   -.252E-08 0.505E-08 -.468E-08   0.874E-08 0.171E-08 0.287E-07   0.165E-23 0.000E+00 0.000E+00   -.120E-10 -.517E-09 -.126E-10
   -.766E-02 0.541E-02 -.137E-04   0.754E-02 -.538E-02 -.113E-09   0.153E-03 -.883E-04 0.447E-05   -.283E-04 0.165E-04 0.947E-05
   -.772E-02 0.122E-02 0.916E-05   0.754E-02 -.538E-02 -.113E-09   0.143E-03 -.141E-03 -.124E-03   0.383E-04 0.337E-02 0.265E-04
   -.407E-02 0.755E-02 0.916E-05   0.754E-02 -.538E-02 -.113E-09   0.193E-03 -.532E-04 -.124E-03   -.290E-02 -.172E-02 0.265E-04
   -.113E-01 0.752E-02 0.299E-06   0.754E-02 -.538E-02 -.113E-09   0.102E-03 -.591E-04 -.123E-03   0.291E-02 -.168E-02 0.354E-04
   0.113E-01 -.752E-02 -.354E-06   -.754E-02 0.538E-02 -.113E-09   -.102E-03 0.591E-04 0.123E-03   -.291E-02 0.168E-02 -.354E-04
   0.407E-02 -.755E-02 -.921E-05   -.754E-02 0.538E-02 -.113E-09   -.193E-03 0.532E-04 0.124E-03   0.290E-02 0.172E-02 -.265E-04
   0.772E-02 -.122E-02 -.921E-05   -.754E-02 0.538E-02 -.113E-09   -.143E-03 0.141E-03 0.124E-03   -.383E-04 -.337E-02 -.265E-04
   0.766E-02 -.541E-02 0.136E-04   -.754E-02 0.538E-02 -.113E-09   -.153E-03 0.883E-04 -.447E-05   0.283E-04 -.165E-04 -.947E-05
 -----------------------------------------------------------------------------------------------
   -.252E-06 0.151E-05 -.239E-05   0.541E-12 0.107E-12 -.791E-14   0.355E-14 -.107E-13 0.000E+00   -.113E-09 -.624E-09 -.234E-10
 
 
 POSITION                                       TOTAL-FORCE (eV/Angst)
 -----------------------------------------------------------------------------------
      3.19377      7.08259      1.33103         0.000006      0.012551      0.000001
     -3.19385      7.08259      1.33103         0.000002      0.001601      0.000108
      6.38758      1.55073      1.33103         0.000186      0.012822      0.000121
     -0.00004      1.55073      1.33103        -0.000174      0.012823      0.000108
      5.04463     10.28838      1.33103        -0.010866     -0.006280      0.000001
     -1.34299     10.28838      1.33103        -0.011011     -0.006572      0.000121
      8.23844      4.75653      1.33103        -0.001385     -0.000802      0.000108
      1.85082      4.75653      1.33103        -0.011192     -0.006261      0.000108
      1.34300     10.28833      1.33103         0.010723     -0.006191      0.000014
     -5.04462     10.28833      1.33103         0.010869     -0.006482      0.000108
      4.53681      4.75647      1.33103         0.011048     -0.006172      0.000108
     -1.85081      4.75647      1.33103         0.001249     -0.000721      0.000107
      6.38767      9.51298      3.99310         0.000174     -0.012823     -0.000108
      0.00004      9.51298      3.99310        -0.000186     -0.012822     -0.000121
      9.58148      3.98112      3.99310        -0.000002     -0.001601     -0.000108
      3.19385      3.98112      3.99310        -0.000006     -0.012551     -0.000001
      4.53680      6.30718      3.99310         0.011192      0.006261     -0.000108
     -1.85082      6.30718      3.99310         0.001385      0.000802     -0.000108
      7.73061      0.77533      3.99310         0.011011      0.006572     -0.000121
      1.34299      0.77533      3.99310         0.010866      0.006280     -0.000001
      8.23843      6.30724      3.99310        -0.001249      0.000721     -0.000107
      1.85081      6.30724      3.99310        -0.011048      0.006172     -0.000108
     11.43224      0.77538      3.99310        -0.010869      0.006482     -0.000108
      5.04462      0.77538      3.99310        -0.010723      0.006191     -0.000014
      0.00000      0.00000      0.00000         0.000000     -0.000000      0.000000
      6.38762      0.00000      0.00000         0.000000     -0.000000      0.000000
      9.58143      5.53186      0.00000         0.000000     -0.000000      0.000000
      3.19381      5.53186      0.00000         0.000000     -0.000000      0.000000
      0.00000      0.00000      2.66206         0.000000     -0.000000      0.000000
      6.38762      0.00000      2.66206         0.000000     -0.000000      0.000000
      9.58143      5.53186      2.66206         0.000000     -0.000000      0.000000
      3.19381      5.53186      2.66206         0.000000     -0.000000      0.000000
      3.19382      9.21975      3.99310         0.000021     -0.000012      0.000000
     -3.19380      9.21975      3.99310         0.000021     -0.000894     -0.000088
      6.38763      3.68790      3.99310         0.000785      0.000429     -0.000088
      0.00001      3.68790      3.99310        -0.000742      0.000429     -0.000088
      6.38761      7.37581      1.33103         0.000742     -0.000429      0.000088
     -0.00001      7.37581      1.33103        -0.000785     -0.000429      0.000088
      9.58143      1.84396      1.33103        -0.000021      0.000894      0.000088
      3.19380      1.84396      1.33103        -0.000021      0.000012     -0.000000
 -----------------------------------------------------------------------------------
    total drift:                               -0.000000      0.000002     -0.000002


--------------------------------------------------------------------------------------------------------



  FREE ENERGIE OF THE ION-ELECTRON SYSTEM (eV)
  ---------------------------------------------------
  free  energy   TOTEN  =      -182.96155052 eV

  energy  without entropy=     -182.96155052  energy(sigma->0) =     -182.96155052
 


--------------------------------------------------------------------------------------------------------


    POTLOK:  cpu time    0.0570: real time    0.0570


--------------------------------------------------------------------------------------------------------


     LOOP+:  cpu time  201.8399: real time  205.4410
    4ORBIT:  cpu time    0.0000: real time    0.0000
 


 total charge     
 
# of ion       s       p       d       tot
------------------------------------------
    1        1.736   4.329   0.000   6.065
    2        1.736   4.328   0.000   6.064
    3        1.736   4.329   0.000   6.065
    4        1.736   4.329   0.000   6.065
    5        1.736   4.329   0.000   6.065
    6        1.736   4.329   0.000   6.065
    7        1.736   4.329   0.000   6.065
    8        1.736   4.329   0.000   6.065
    9        1.736   4.329   0.000   6.065
   10        1.736   4.329   0.000   6.065
   11        1.736   4.329   0.000   6.065
   12        1.736   4.329   0.000   6.064
   13        1.736   4.329   0.000   6.065
   14        1.736   4.329   0.000   6.065
   15        1.736   4.328   0.000   6.064
   16        1.736   4.329   0.000   6.065
   17        1.736   4.329   0.000   6.065
   18        1.736   4.329   0.000   6.065
   19        1.736   4.329   0.000   6.065
   20        1.736   4.329   0.000   6.065
   21        1.736   4.329   0.000   6.064
   22        1.736   4.329   0.000   6.065
   23        1.736   4.329   0.000   6.065
   24        1.736   4.329   0.000   6.065
   25        0.296   0.368   8.172   8.836
   26        0.296   0.368   8.172   8.837
   27        0.296   0.367   8.176   8.839
   28        0.296   0.368   8.172   8.837
   29        0.296   0.368   8.172   8.837
   30        0.296   0.368   8.172   8.837
   31        0.296   0.367   8.176   8.839
   32        0.296   0.368   8.172   8.837
   33        1.838   4.719   0.017   6.574
   34        1.838   4.719   0.017   6.574
   35        1.838   4.719   0.017   6.574
   36        1.838   4.719   0.017   6.574
   37        1.838   4.719   0.017   6.574
   38        1.838   4.719   0.017   6.574
   39        1.838   4.719   0.017   6.574
   40        1.838   4.719   0.017   6.574
--------------------------------------------------
tot         58.730 144.589  65.526 268.845
 


 magnetization (x)
 
# of ion       s       p       d       tot
------------------------------------------
    1       -0.000   0.000   0.000   0.000
    2        0.004   0.101   0.000   0.105
    3        0.000   0.000   0.000   0.000
    4        0.000   0.000   0.000   0.000
    5        0.000   0.000   0.000   0.000
    6        0.000   0.000   0.000   0.000
    7        0.004   0.101   0.000   0.105
    8        0.000   0.000   0.000   0.000
    9        0.000   0.000   0.000   0.000
   10        0.000   0.000   0.000   0.000
   11        0.000   0.000   0.000   0.000
   12        0.004   0.101   0.000   0.105
   13        0.000   0.000   0.000   0.000
   14        0.000   0.000   0.000   0.000
   15        0.004   0.101   0.000   0.105
   16       -0.000   0.000   0.000   0.000
   17        0.000   0.000   0.000   0.000
   18        0.004   0.101   0.000   0.105
   19        0.000   0.000   0.000   0.000
   20        0.000   0.000   0.000   0.000
   21        0.004   0.101   0.000   0.105
   22        0.000   0.000   0.000   0.000
   23        0.000   0.000   0.000   0.000
   24        0.000   0.000   0.000   0.000
   25        0.002   0.002   1.647   1.651
   26        0.002   0.002   1.647   1.651
   27        0.000  -0.001   1.644   1.642
   28        0.002   0.002   1.647   1.651
   29       -0.002  -0.002  -1.646  -1.650
   30       -0.002  -0.002  -1.646  -1.650
   31        0.000  -0.001   1.644   1.642
   32       -0.002  -0.002  -1.646  -1.651
   33        0.000   0.000   0.000   0.000
   34        0.000   0.000   0.000   0.001
   35        0.000   0.000   0.000   0.001
   36        0.000   0.000   0.000   0.001
   37        0.000   0.000   0.000   0.001
   38        0.000   0.000   0.000   0.001
   39        0.000   0.000   0.000   0.001
   40        0.000   0.000   0.000   0.000
--------------------------------------------------
tot          0.025   0.604   3.288   3.917
 
 BZINTS: Fermi energy:  0.546404;320.000000 electrons
         Band energy:***********;  BLOECHL correction:  0.000000

 total amount of memory used by VASP MPI-rank0    66821. kBytes
=======================================================================

   base      :      30000. kBytes
   nonlr-proj:       7318. kBytes
   fftplans  :       1395. kBytes
   grid      :       3519. kBytes
   one-center:         62. kBytes
   wavefun   :      24527. kBytes
 
  
  
 General timing and accounting informations for this job:
 ========================================================
  
                  Total CPU time used (sec):      211.720
                            User time (sec):      207.837
                          System time (sec):        3.883
                         Elapsed time (sec):      217.079
  
                   Maximum memory used (kb):      140224.
                   Average memory used (kb):           0.
  
                          Minor page faults:        52452
                          Major page faults:           19
                 Voluntary context switches:         1819
