   36   36    1    2
  0.1314651E+02  0.8250148E-09  0.8250148E-09  0.6953274E-09  0.2000000E-15
  1.000000000000000E-004
  CAR 
 AlMn_pv                                 
    180     52    110
 
  0.0000000E+00  0.0000000E+00  0.0000000E+00  0.6666667E-02
    1       -2.515792     -2.517898   1.000000   1.000000
    2       -0.370582     -0.364390   1.000000   1.000000
    3       -0.343208     -0.352459   1.000000   1.000000
    4       -0.318608     -0.332673   1.000000   1.000000
    5       -0.296859     -0.288573   1.000000   1.000000
    6       -0.111334     -0.112259   1.000000   1.000000
    7        1.376116      1.368320   1.000000   1.000000
    8        1.382182      1.378997   1.000000   1.000000
    9        1.390193      1.385492   1.000000   1.000000
   10        1.398257      1.412131   1.000000   1.000000
   11        1.445798      1.433685   1.000000   1.000000
   12        1.543167      1.541259   1.000000   1.000000
   13        1.562159      1.556490   1.000000   1.000000
   14        1.637936      1.628748   1.000000   1.000000
   15        1.639963      1.643770   1.000000   1.000000
   16        2.723569      2.717903   1.000000   1.000000
   17        2.735352      2.725394   1.000000   1.000000
   18        2.863403      2.866333   1.000000   1.000000
   19        2.877802      2.871378   1.000000   1.000000
   20        3.460536      3.459282   1.000000   1.000000
   21        3.509484      3.507356   1.000000   1.000000
   22        3.582953      3.548475   1.000000   1.000000
   23        3.620264      3.641395   1.000000   1.000000
   24        4.102432      4.069526   1.000000   1.000000
   25        4.144070      4.158694   1.000000   1.000000
   26        4.406665      4.433796   1.000000   1.000000
   27        4.515965      4.468690   1.000000   1.000000
   28        4.541060      4.533159   1.000000   1.000000
   29        4.551398      4.549325   1.000000   1.000000
   30        4.610109      4.600319   1.000000   1.000000
   31        4.637864      4.609277   1.000000   1.000000
   32        4.688883      4.678150   1.000000   1.000000
   33        4.695111      4.695685   1.000000   1.000000
   34        4.729196      4.702832   1.000000   1.000000
   35        4.773857      4.709642   1.000000   1.000000
   36        4.857351      4.917399   1.000000   1.000000
   37        4.995982      4.967135   1.000000   1.000000
   38        5.012545      5.027217   1.000000   1.000000
   39        5.107286      5.131548   1.000000   1.000000
   40        5.235394      5.187810   1.000000   1.000000
   41        5.313748      5.299769   1.000000   1.000000
   42        5.373625      5.358074   1.000000   1.000000
   43        5.392902      5.403598   1.000000   1.000000
   44        5.447783      5.414283   1.000000   1.000000
   45        5.473700      5.434796   1.000000   1.000000
   46        5.496981      5.490611   1.000000   1.000000
   47        5.517354      5.502466   1.000000   1.000000
   48        5.536063      5.524662   1.000000   1.000000
   49        5.573234      5.540179   1.000000   1.000000
   50        5.587343      5.592209   1.000000   1.000000
   51        5.642750      5.608015   1.000000   1.000000
   52        5.660898      5.668161   1.000000   1.000000
   53        5.704543      5.712685   1.000000   1.000000
   54        5.715670      5.719186   1.000000   1.000000
   55        5.801407      5.819516   1.000000   1.000000
   56        5.867246      5.847425   1.000000   1.000000
   57        5.905222      5.880136   1.000000   1.000000
   58        5.954153      5.947027   1.000000   1.000000
   59        6.092478      5.980048   1.000000   1.000000
   60        6.097904      6.089512   1.000000   1.000000
   61        6.164434      6.184057   1.000000   1.000000
   62        6.268958      6.256203   1.000000   1.000000
   63        6.360262      6.327101   1.000000   1.000000
   64        6.376869      6.375792   1.000000   1.000000
   65        6.390975      6.400498   1.000000   1.000000
   66        6.402648      6.435614   1.000000   1.000000
   67        6.428469      6.518978   1.000000   1.000000
   68        6.498495      6.538645   1.000000   1.000000
   69        6.561693      6.552142   1.000000   1.000000
   70        6.592336      6.558439   1.000000   1.000000
   71        6.664588      6.584102   1.000000   1.000000
   72        6.700544      6.648669   1.000000   1.000000
   73        6.733190      6.723735   1.000000   1.000000
   74        6.801865      6.813718   1.000000   1.000000
   75        6.827526      6.835865   1.000000   1.000000
   76        6.925820      6.873623   1.000000   1.000000
   77        6.953147      6.903666   1.000000   1.000000
   78        7.018384      7.037636   1.000001   1.000002
   79        7.131989      7.120331   1.000048   1.000034
   80        7.240396      7.185191   1.000829   1.000211
   81        7.241122      7.259279   1.000842   1.001270
   82        7.272571      7.264359   1.001697   1.001422
   83        7.303475      7.267839   1.003184   1.001532
   84        7.409206      7.347035   1.017275   1.007002
   85        7.423965      7.385981   1.020512   1.012729
   86        7.473621      7.466234   1.031499   1.030042
   87        7.481616      7.544475   1.032887   1.029792
   88        7.597342      7.565828   0.987129   1.018636
   89        7.614228      7.656499   0.961359   0.866176
   90        7.811954      7.772649   0.269723   0.425955
   91        7.822071      7.799757   0.233558   0.316129
   92        7.915717      7.925982   0.009158  -0.002765
   93        8.024227      8.025228  -0.033564  -0.033407
   94        8.067003      8.054353  -0.024944  -0.027819
   95        8.129067      8.092771  -0.011886  -0.019040
   96        8.187851      8.137278  -0.004544  -0.010509
   97        8.202571      8.155991  -0.003455  -0.007870
   98        8.302407      8.301519  -0.000376  -0.000382
   99        8.308546      8.340958  -0.000323  -0.000138
  100        8.319692      8.406696  -0.000242  -0.000020
  101        8.462186      8.437412  -0.000003  -0.000008
  102        8.544409      8.460675  -0.000000  -0.000004
  103        8.596724      8.595037  -0.000000  -0.000000
  104        8.606321      8.671152  -0.000000  -0.000000
  105        8.695127      8.679171  -0.000000  -0.000000
  106        8.750894      8.691525  -0.000000  -0.000000
  107        8.763673      8.781360  -0.000000  -0.000000
  108        8.800500      8.815097  -0.000000  -0.000000
  109        8.860456      8.830617  -0.000000  -0.000000
  110        8.928535      8.916450  -0.000000  -0.000000
 
  0.2000000E+00  0.0000000E+00  0.0000000E+00  0.1333333E-01
    1       -2.425236     -2.427421   1.000000   1.000000
    2       -1.099457     -1.101235   1.000000   1.000000
    3       -0.262485     -0.265922   1.000000   1.000000
    4       -0.236572     -0.238135   1.000000   1.000000
    5       -0.045818     -0.046370   1.000000   1.000000
    6        0.571278      0.568303   1.000000   1.000000
    7        0.891380      0.894258   1.000000   1.000000
    8        0.929679      0.928505   1.000000   1.000000
    9        0.946682      0.943738   1.000000   1.000000
   10        1.447702      1.443948   1.000000   1.000000
   11        1.480692      1.470194   1.000000   1.000000
   12        1.492202      1.476634   1.000000   1.000000
   13        1.922698      1.936833   1.000000   1.000000
   14        2.307917      2.308033   1.000000   1.000000
   15        2.332678      2.325295   1.000000   1.000000
   16        2.337010      2.330251   1.000000   1.000000
   17        2.354965      2.345380   1.000000   1.000000
   18        2.820128      2.815220   1.000000   1.000000
   19        3.238115      3.241803   1.000000   1.000000
   20        3.292670      3.294404   1.000000   1.000000
   21        3.579226      3.570293   1.000000   1.000000
   22        3.635694      3.636419   1.000000   1.000000
   23        3.740140      3.739640   1.000000   1.000000
   24        4.080845      4.046201   1.000000   1.000000
   25        4.116890      4.125460   1.000000   1.000000
   26        4.306396      4.302249   1.000000   1.000000
   27        4.357984      4.371542   1.000000   1.000000
   28        4.470712      4.445061   1.000000   1.000000
   29        4.531375      4.536482   1.000000   1.000000
   30        4.564271      4.559459   1.000000   1.000000
   31        4.583176      4.573261   1.000000   1.000000
   32        4.625358      4.575789   1.000000   1.000000
   33        4.643763      4.598739   1.000000   1.000000
   34        4.678453      4.654448   1.000000   1.000000
   35        4.833234      4.861796   1.000000   1.000000
   36        4.900355      4.926908   1.000000   1.000000
   37        4.987140      5.026366   1.000000   1.000000
   38        5.064789      5.077450   1.000000   1.000000
   39        5.125128      5.089195   1.000000   1.000000
   40        5.183122      5.089466   1.000000   1.000000
   41        5.215255      5.171593   1.000000   1.000000
   42        5.315142      5.295821   1.000000   1.000000
   43        5.338450      5.325584   1.000000   1.000000
   44        5.401370      5.408504   1.000000   1.000000
   45        5.454128      5.424220   1.000000   1.000000
   46        5.489909      5.483123   1.000000   1.000000
   47        5.537754      5.516911   1.000000   1.000000
   48        5.540608      5.517909   1.000000   1.000000
   49        5.574308      5.585441   1.000000   1.000000
   50        5.589555      5.610236   1.000000   1.000000
   51        5.686436      5.666073   1.000000   1.000000
   52        5.691879      5.684331   1.000000   1.000000
   53        5.712784      5.732610   1.000000   1.000000
   54        5.745210      5.793079   1.000000   1.000000
   55        5.834608      5.818587   1.000000   1.000000
   56        5.899455      5.922299   1.000000   1.000000
   57        6.028426      5.938111   1.000000   1.000000
   58        6.066458      5.938150   1.000000   1.000000
   59        6.069913      5.994163   1.000000   1.000000
   60        6.110745      6.121014   1.000000   1.000000
   61        6.163378      6.145338   1.000000   1.000000
   62        6.269296      6.257758   1.000000   1.000000
   63        6.303439      6.276892   1.000000   1.000000
   64        6.324229      6.340419   1.000000   1.000000
   65        6.359698      6.369602   1.000000   1.000000
   66        6.409323      6.412781   1.000000   1.000000
   67        6.419673      6.447452   1.000000   1.000000
   68        6.439356      6.501321   1.000000   1.000000
   69        6.477263      6.504399   1.000000   1.000000
   70        6.576451      6.591083   1.000000   1.000000
   71        6.636269      6.613246   1.000000   1.000000
   72        6.713161      6.656301   1.000000   1.000000
   73        6.723421      6.720847   1.000000   1.000000
   74        6.759732      6.774199   1.000000   1.000000
   75        6.826223      6.817108   1.000000   1.000000
   76        6.866711      6.846411   1.000000   1.000000
   77        6.924165      6.923221   1.000000   1.000000
   78        6.984638      6.981375   1.000000   1.000000
   79        7.107729      7.093094   1.000023   1.000015
   80        7.158433      7.099064   1.000103   1.000018
   81        7.270110      7.191349   1.001608   1.000248
   82        7.278199      7.266256   1.001909   1.001482
   83        7.368612      7.309513   1.009885   1.003577
   84        7.371408      7.383215   1.010310   1.012244
   85        7.425537      7.424224   1.020868   1.020573
   86        7.445713      7.464338   1.025523   1.029646
   87        7.535162      7.531818   1.032618   1.033368
   88        7.575916      7.614848   1.010686   0.960276
   89        7.662412      7.677447   0.849370   0.802662
   90        7.810488      7.779856   0.275366   0.396034
   91        7.821543      7.821281   0.235241   0.236220
   92        7.913682      7.947415   0.011812  -0.020694
   93        8.050208      7.960220  -0.028740  -0.027619
   94        8.073136      8.058256  -0.023525  -0.026943
   95        8.145263      8.059370  -0.009347  -0.026679
   96        8.148487      8.138173  -0.008880  -0.010413
   97        8.204074      8.192953  -0.003358  -0.004141
   98        8.286211      8.236630  -0.000562  -0.001732
   99        8.305531      8.305479  -0.000349  -0.000348
  100        8.331887      8.349425  -0.000176  -0.000109
  101        8.396868      8.408847  -0.000028  -0.000018
  102        8.492116      8.465820  -0.000001  -0.000003
  103        8.542069      8.534659  -0.000000  -0.000000
  104        8.587902      8.649100  -0.000000  -0.000000
  105        8.668519      8.675331  -0.000000  -0.000000
  106        8.722006      8.685756  -0.000000  -0.000000
  107        8.724399      8.745639  -0.000000  -0.000000
  108        8.938457      8.938378  -0.000000  -0.000000
  109        8.979733      8.978167  -0.000000  -0.000000
  110        9.002633      9.045282  -0.000000  -0.000000
 
  0.4000000E+00  0.0000000E+00  0.0000000E+00  0.1333333E-01
    1       -2.155186     -2.157972   1.000000   1.000000
    2       -1.710444     -1.711509   1.000000   1.000000
    3       -0.016980     -0.021482   1.000000   1.000000
    4        0.007028      0.005325   1.000000   1.000000
    5        0.147742      0.149016   1.000000   1.000000
    6        0.388106      0.385383   1.000000   1.000000
    7        0.408689      0.407751   1.000000   1.000000
    8        0.468223      0.467640   1.000000   1.000000
    9        1.587178      1.584533   1.000000   1.000000
   10        1.629825      1.623441   1.000000   1.000000
   11        1.670110      1.648184   1.000000   1.000000
   12        1.760008      1.755721   1.000000   1.000000
   13        1.939559      1.941391   1.000000   1.000000
   14        1.975528      1.957820   1.000000   1.000000
   15        2.216602      2.213289   1.000000   1.000000
   16        2.335980      2.358002   1.000000   1.000000
   17        2.681750      2.679912   1.000000   1.000000
   18        2.934703      2.936660   1.000000   1.000000
   19        3.021331      3.009911   1.000000   1.000000
   20        3.560336      3.580097   1.000000   1.000000
   21        3.704262      3.721200   1.000000   1.000000
   22        3.743630      3.741273   1.000000   1.000000
   23        3.776247      3.785245   1.000000   1.000000
   24        4.017760      3.968287   1.000000   1.000000
   25        4.023158      4.018011   1.000000   1.000000
   26        4.136946      4.124640   1.000000   1.000000
   27        4.185180      4.180850   1.000000   1.000000
   28        4.284382      4.304266   1.000000   1.000000
   29        4.355031      4.344778   1.000000   1.000000
   30        4.475602      4.421216   1.000000   1.000000
   31        4.486443      4.457719   1.000000   1.000000
   32        4.563505      4.556281   1.000000   1.000000
   33        4.666167      4.627251   1.000000   1.000000
   34        4.711603      4.675283   1.000000   1.000000
   35        4.835269      4.844469   1.000000   1.000000
   36        4.862050      4.976313   1.000000   1.000000
   37        5.012199      5.018389   1.000000   1.000000
   38        5.115877      5.050134   1.000000   1.000000
   39        5.120005      5.100516   1.000000   1.000000
   40        5.219224      5.132615   1.000000   1.000000
   41        5.220031      5.206192   1.000000   1.000000
   42        5.282742      5.265687   1.000000   1.000000
   43        5.338476      5.293638   1.000000   1.000000
   44        5.382970      5.413127   1.000000   1.000000
   45        5.467999      5.421931   1.000000   1.000000
   46        5.510282      5.485804   1.000000   1.000000
   47        5.521357      5.541833   1.000000   1.000000
   48        5.543909      5.557968   1.000000   1.000000
   49        5.599528      5.586327   1.000000   1.000000
   50        5.606768      5.607492   1.000000   1.000000
   51        5.664249      5.652487   1.000000   1.000000
   52        5.697459      5.665277   1.000000   1.000000
   53        5.709764      5.754180   1.000000   1.000000
   54        5.749682      5.766155   1.000000   1.000000
   55        5.832431      5.844429   1.000000   1.000000
   56        5.951923      5.860133   1.000000   1.000000
   57        5.965132      5.956346   1.000000   1.000000
   58        6.024974      6.032638   1.000000   1.000000
   59        6.134725      6.035884   1.000000   1.000000
   60        6.170044      6.105873   1.000000   1.000000
   61        6.201246      6.157862   1.000000   1.000000
   62        6.231285      6.197784   1.000000   1.000000
   63        6.239905      6.213819   1.000000   1.000000
   64        6.269264      6.238525   1.000000   1.000000
   65        6.290205      6.336585   1.000000   1.000000
   66        6.349737      6.338334   1.000000   1.000000
   67        6.413195      6.405329   1.000000   1.000000
   68        6.472152      6.469276   1.000000   1.000000
   69        6.496745      6.516460   1.000000   1.000000
   70        6.523178      6.528880   1.000000   1.000000
   71        6.618717      6.650122   1.000000   1.000000
   72        6.677460      6.699364   1.000000   1.000000
   73        6.688238      6.727152   1.000000   1.000000
   74        6.762251      6.761138   1.000000   1.000000
   75        6.807416      6.790418   1.000000   1.000000
   76        6.851369      6.831225   1.000000   1.000000
   77        6.884438      6.928594   1.000000   1.000000
   78        6.922942      6.952218   1.000000   1.000000
   79        7.057605      7.079519   1.000005   1.000010
   80        7.098672      7.127808   1.000018   1.000043
   81        7.216387      7.135191   1.000467   1.000053
   82        7.281764      7.196379   1.002056   1.000283
   83        7.303524      7.225170   1.003187   1.000579
   84        7.351535      7.383558   1.007546   1.012309
   85        7.463296      7.446622   1.029431   1.025711
   86        7.520710      7.525198   1.034997   1.034495
   87        7.520724      7.542113   1.034996   1.030615
   88        7.697902      7.660034   0.731427   0.856173
   89        7.712522      7.768258   0.675694   0.444423
   90        7.832501      7.797138   0.198176   0.326433
   91        7.839540      7.844251   0.175719   0.161049
   92        7.944317      7.889531  -0.018568   0.050223
   93        7.944999      7.937889  -0.019029  -0.013743
   94        8.040019      7.939496  -0.030855  -0.015050
   95        8.066918      8.024293  -0.024956  -0.033550
   96        8.091044      8.143531  -0.019456  -0.009589
   97        8.215589      8.176475  -0.002678  -0.005578
   98        8.247693      8.215564  -0.001366  -0.002677
   99        8.284755      8.234690  -0.000582  -0.001804
  100        8.297894      8.266683  -0.000423  -0.000889
  101        8.322069      8.359258  -0.000228  -0.000083
  102        8.439020      8.457601  -0.000007  -0.000004
  103        8.514342      8.490243  -0.000001  -0.000001
  104        8.589834      8.601354  -0.000000  -0.000000
  105        8.657994      8.660752  -0.000000  -0.000000
  106        8.720841      8.683667  -0.000000  -0.000000
  107        8.733321      8.713659  -0.000000  -0.000000
  108        8.931558      9.030485  -0.000000  -0.000000
  109        9.048293      9.099639  -0.000000  -0.000000
  110        9.181723      9.145218  -0.000000  -0.000000
 
  0.0000000E+00  0.2000000E+00  0.0000000E+00  0.1333333E-01
    1       -2.425336     -2.427344   1.000000   1.000000
    2       -1.098868     -1.101616   1.000000   1.000000
    3       -0.264452     -0.263961   1.000000   1.000000
    4       -0.235291     -0.239787   1.000000   1.000000
    5       -0.045405     -0.046791   1.000000   1.000000
    6        0.570658      0.568946   1.000000   1.000000
    7        0.896231      0.889679   1.000000   1.000000
    8        0.930511      0.927491   1.000000   1.000000
    9        0.946684      0.944126   1.000000   1.000000
   10        1.446504      1.444126   1.000000   1.000000
   11        1.472567      1.476708   1.000000   1.000000
   12        1.480544      1.490039   1.000000   1.000000
   13        1.941269      1.919021   1.000000   1.000000
   14        2.311558      2.304498   1.000000   1.000000
   15        2.330160      2.327729   1.000000   1.000000
   16        2.333118      2.332305   1.000000   1.000000
   17        2.351214      2.350851   1.000000   1.000000
   18        2.820237      2.815588   1.000000   1.000000
   19        3.247794      3.233164   1.000000   1.000000
   20        3.299850      3.285950   1.000000   1.000000
   21        3.576536      3.574853   1.000000   1.000000
   22        3.637839      3.629886   1.000000   1.000000
   23        3.743638      3.737192   1.000000   1.000000
   24        4.080981      4.054035   1.000000   1.000000
   25        4.106774      4.128708   1.000000   1.000000
   26        4.309552      4.298092   1.000000   1.000000
   27        4.363454      4.381137   1.000000   1.000000
   28        4.478329      4.422689   1.000000   1.000000
   29        4.544760      4.516835   1.000000   1.000000
   30        4.564236      4.550646   1.000000   1.000000
   31        4.584744      4.576094   1.000000   1.000000
   32        4.601924      4.606651   1.000000   1.000000
   33        4.612782      4.630707   1.000000   1.000000
   34        4.671498      4.664338   1.000000   1.000000
   35        4.843837      4.835723   1.000000   1.000000
   36        4.947804      4.886229   1.000000   1.000000
   37        5.055035      5.004286   1.000000   1.000000
   38        5.058110      5.062402   1.000000   1.000000
   39        5.069904      5.117719   1.000000   1.000000
   40        5.107621      5.161502   1.000000   1.000000
   41        5.190386      5.209246   1.000000   1.000000
   42        5.290026      5.314896   1.000000   1.000000
   43        5.338348      5.332523   1.000000   1.000000
   44        5.426942      5.388762   1.000000   1.000000
   45        5.467980      5.440716   1.000000   1.000000
   46        5.492154      5.457639   1.000000   1.000000
   47        5.507084      5.520532   1.000000   1.000000
   48        5.547717      5.529695   1.000000   1.000000
   49        5.637558      5.546955   1.000000   1.000000
   50        5.638485      5.584955   1.000000   1.000000
   51        5.677416      5.656736   1.000000   1.000000
   52        5.686164      5.667273   1.000000   1.000000
   53        5.720919      5.716066   1.000000   1.000000
   54        5.772941      5.750220   1.000000   1.000000
   55        5.852955      5.819391   1.000000   1.000000
   56        5.898461      5.905063   1.000000   1.000000
   57        5.936073      5.963018   1.000000   1.000000
   58        5.982519      6.037783   1.000000   1.000000
   59        6.086554      6.038295   1.000000   1.000000
   60        6.127930      6.111363   1.000000   1.000000
   61        6.129501      6.160265   1.000000   1.000000
   62        6.282949      6.254601   1.000000   1.000000
   63        6.301827      6.288329   1.000000   1.000000
   64        6.330248      6.331110   1.000000   1.000000
   65        6.367876      6.349565   1.000000   1.000000
   66        6.398922      6.392953   1.000000   1.000000
   67        6.441800      6.423572   1.000000   1.000000
   68        6.461231      6.492626   1.000000   1.000000
   69        6.494652      6.545125   1.000000   1.000000
   70        6.587770      6.567166   1.000000   1.000000
   71        6.652043      6.592722   1.000000   1.000000
   72        6.732338      6.631742   1.000000   1.000000
   73        6.736040      6.717046   1.000000   1.000000
   74        6.746430      6.783032   1.000000   1.000000
   75        6.830733      6.820708   1.000000   1.000000
   76        6.842514      6.842273   1.000000   1.000000
   77        6.970101      6.869167   1.000000   1.000000
   78        6.992184      7.005060   1.000000   1.000001
   79        7.113860      7.115175   1.000028   1.000029
   80        7.129809      7.138024   1.000045   1.000058
   81        7.209276      7.176257   1.000392   1.000167
   82        7.228520      7.283240   1.000626   1.002122
   83        7.322963      7.331442   1.004595   1.005352
   84        7.429511      7.381781   1.021769   1.012008
   85        7.436913      7.449914   1.023479   1.026479
   86        7.461447      7.462923   1.029041   1.029361
   87        7.596788      7.494243   0.987868   1.034587
   88        7.616375      7.531742   0.957590   1.033388
   89        7.640839      7.667393   0.906703   0.834421
   90        7.809670      7.772444   0.278187   0.426843
   91        7.864090      7.838900   0.106244   0.177587
   92        7.945177      7.891348  -0.019179   0.046803
   93        8.009389      8.034067  -0.035142  -0.031949
   94        8.024226      8.074903  -0.033563  -0.023115
   95        8.138193      8.122179  -0.010405  -0.013114
   96        8.158408      8.146249  -0.007583  -0.009189
   97        8.173325      8.167284  -0.005890  -0.006534
   98        8.219559      8.266058  -0.002472  -0.000902
   99        8.277397      8.337757  -0.000695  -0.000150
  100        8.294048      8.353519  -0.000465  -0.000097
  101        8.420390      8.437643  -0.000013  -0.000008
  102        8.512309      8.449020  -0.000001  -0.000005
  103        8.590636      8.492423  -0.000000  -0.000001
  104        8.666878      8.633053  -0.000000  -0.000000
  105        8.677096      8.637936  -0.000000  -0.000000
  106        8.708353      8.658922  -0.000000  -0.000000
  107        8.710573      8.695479  -0.000000  -0.000000
  108        8.978532      8.944212  -0.000000  -0.000000
  109        8.988305      8.983684  -0.000000  -0.000000
  110        9.006691      8.995916  -0.000000  -0.000000
 
  0.2000000E+00  0.2000000E+00  0.0000000E+00  0.1333333E-01
    1       -2.335057     -2.337151   1.000000   1.000000
    2       -1.032293     -1.029395   1.000000   1.000000
    3       -0.993412     -1.001054   1.000000   1.000000
    4        0.019973      0.018967   1.000000   1.000000
    5        0.229378      0.226703   1.000000   1.000000
    6        0.635540      0.638577   1.000000   1.000000
    7        0.668928      0.662572   1.000000   1.000000
    8        0.942195      0.936442   1.000000   1.000000
    9        0.974118      0.976360   1.000000   1.000000
   10        1.571820      1.570401   1.000000   1.000000
   11        1.711284      1.699981   1.000000   1.000000
   12        1.794464      1.796524   1.000000   1.000000
   13        1.837218      1.835760   1.000000   1.000000
   14        1.997709      1.989078   1.000000   1.000000
   15        2.023806      2.020961   1.000000   1.000000
   16        2.780905      2.778021   1.000000   1.000000
   17        2.843645      2.845687   1.000000   1.000000
   18        2.877390      2.871872   1.000000   1.000000
   19        2.911878      2.906498   1.000000   1.000000
   20        2.964480      2.949875   1.000000   1.000000
   21        3.674599      3.664297   1.000000   1.000000
   22        3.783177      3.774047   1.000000   1.000000
   23        3.794584      3.789062   1.000000   1.000000
   24        3.828075      3.834273   1.000000   1.000000
   25        4.201308      4.141466   1.000000   1.000000
   26        4.259755      4.238870   1.000000   1.000000
   27        4.289739      4.338200   1.000000   1.000000
   28        4.360471      4.371860   1.000000   1.000000
   29        4.392605      4.420543   1.000000   1.000000
   30        4.472426      4.477642   1.000000   1.000000
   31        4.505642      4.487265   1.000000   1.000000
   32        4.606870      4.607779   1.000000   1.000000
   33        4.673103      4.612939   1.000000   1.000000
   34        4.732284      4.658266   1.000000   1.000000
   35        4.843805      4.847862   1.000000   1.000000
   36        4.885280      4.913448   1.000000   1.000000
   37        4.945704      4.935163   1.000000   1.000000
   38        5.024100      4.987924   1.000000   1.000000
   39        5.062665      5.090010   1.000000   1.000000
   40        5.144729      5.116051   1.000000   1.000000
   41        5.263448      5.286322   1.000000   1.000000
   42        5.292272      5.292750   1.000000   1.000000
   43        5.344742      5.339206   1.000000   1.000000
   44        5.355716      5.363496   1.000000   1.000000
   45        5.512066      5.456910   1.000000   1.000000
   46        5.516500      5.479488   1.000000   1.000000
   47        5.518224      5.489588   1.000000   1.000000
   48        5.551870      5.541144   1.000000   1.000000
   49        5.631397      5.613066   1.000000   1.000000
   50        5.661377      5.619685   1.000000   1.000000
   51        5.702209      5.672779   1.000000   1.000000
   52        5.725034      5.716461   1.000000   1.000000
   53        5.732932      5.771153   1.000000   1.000000
   54        5.832812      5.789503   1.000000   1.000000
   55        5.865677      5.848356   1.000000   1.000000
   56        5.919319      5.925308   1.000000   1.000000
   57        5.972229      5.936931   1.000000   1.000000
   58        6.057309      6.041932   1.000000   1.000000
   59        6.089394      6.066147   1.000000   1.000000
   60        6.130575      6.152136   1.000000   1.000000
   61        6.144790      6.158309   1.000000   1.000000
   62        6.238861      6.196270   1.000000   1.000000
   63        6.272996      6.264581   1.000000   1.000000
   64        6.292303      6.289658   1.000000   1.000000
   65        6.355636      6.357905   1.000000   1.000000
   66        6.386329      6.409487   1.000000   1.000000
   67        6.456531      6.421529   1.000000   1.000000
   68        6.483499      6.508516   1.000000   1.000000