       N       E                     dE             d eps       ncg     rms          ort
DAV:   1     0.135203467314E+04    0.13520E+04   -0.58477E+04  5720   0.144E+03
DAV:   2    -0.563700873586E+02   -0.14084E+04   -0.13790E+04  5720   0.446E+02
DAV:   3    -0.237204256475E+03   -0.18083E+03   -0.16365E+03  5720   0.172E+02
DAV:   4    -0.266284419770E+03   -0.29080E+02   -0.26130E+02  5720   0.751E+01
DAV:   5    -0.269611242522E+03   -0.33268E+01   -0.31659E+01  5720   0.224E+01
DAV:   6    -0.269907738808E+03   -0.29650E+00   -0.28738E+00  5720   0.576E+00
DAV:   7    -0.269943906790E+03   -0.36168E-01   -0.35461E-01  5720   0.178E+00
DAV:   8    -0.269948006204E+03   -0.40994E-02   -0.40373E-02  5720   0.489E-01
SDA:   9    -0.604180246465E+02    0.20953E+03   -0.40373E-02  5720   0.235E+04 0.000E+00
CGA:  10    -0.205886346744E+03   -0.14547E+03   -0.14455E+03  5720   0.158E+03 0.432E+03
CGA:  11    -0.217111227106E+03   -0.11225E+02   -0.11170E+02  5720   0.551E+02 0.373E+01
CGA:  12    -0.225281886799E+03   -0.81707E+01   -0.81430E+01  5720   0.980E+02-0.157E+00
CGA:  13    -0.232722666227E+03   -0.74408E+01   -0.75447E+01  5720   0.150E+02 0.415E+00
CGA:  14    -0.233860825791E+03   -0.11382E+01   -0.11490E+01  5720   0.506E+01-0.586E-01
CGA:  15    -0.234616261180E+03   -0.75544E+00   -0.75673E+00  5720   0.760E+01 0.213E-01
CGA:  16    -0.235190110330E+03   -0.57385E+00   -0.57905E+00  5720   0.228E+01-0.292E-01
CGA:  17    -0.235379425908E+03   -0.18932E+00   -0.18903E+00  5720   0.139E+01 0.284E-02
CGA:  18    -0.235543010916E+03   -0.16359E+00   -0.16363E+00  5720   0.154E+01-0.797E-03
CGA:  19    -0.235702006567E+03   -0.15900E+00   -0.15943E+00  5720   0.563E+00-0.180E-02
CGA:  20    -0.235752687578E+03   -0.50681E-01   -0.50839E-01  5720   0.401E+00-0.102E-02
CGA:  21    -0.235815516980E+03   -0.62829E-01   -0.62824E-01  5720   0.536E+00 0.135E-02
CGA:  22    -0.235876526416E+03   -0.61009E-01   -0.61036E-01  5720   0.250E+00-0.205E-03
CGA:  23    -0.235895964167E+03   -0.19438E-01   -0.19424E-01  5720   0.144E+00-0.178E-03
CGA:  24    -0.235915225869E+03   -0.19262E-01   -0.19254E-01  5720   0.187E+00-0.395E-03
CGA:  25    -0.235938501608E+03   -0.23276E-01   -0.23264E-01  5720   0.131E+00-0.503E-03
CGA:  26    -0.235953564527E+03   -0.15063E-01   -0.15059E-01  5720   0.101E+00-0.179E-03
CGA:  27    -0.235967522834E+03   -0.13958E-01   -0.13957E-01  5720   0.968E-01-0.611E-04
CGA:  28    -0.235976520980E+03   -0.89981E-02   -0.89895E-02  5720   0.452E-01 0.165E-03
CGA:  29    -0.235980715806E+03   -0.41948E-02   -0.41966E-02  5720   0.338E-01 0.122E-03
CGA:  30    -0.235985627153E+03   -0.49113E-02   -0.49110E-02  5720   0.377E-01 0.101E-03
CGA:  31    -0.235989842011E+03   -0.42149E-02   -0.42167E-02  5720   0.251E-01 0.123E-03
CGA:  32    -0.235992712942E+03   -0.28709E-02   -0.28727E-02  5720   0.185E-01 0.771E-04
CGA:  33    -0.235995581995E+03   -0.28691E-02   -0.28676E-02  5720   0.182E-01 0.102E-03
CGA:  34    -0.235997245397E+03   -0.16634E-02   -0.16665E-02  5720   0.108E-01 0.851E-04
CGA:  35    -0.235998295790E+03   -0.10504E-02   -0.10526E-02  5720   0.696E-02 0.593E-04
CGA:  36    -0.235999267669E+03   -0.97188E-03   -0.97167E-03  5720   0.573E-02 0.438E-04
CGA:  37    -0.236000020049E+03   -0.75238E-03   -0.75247E-03  5720   0.556E-02 0.170E-04
CGA:  38    -0.236000699056E+03   -0.67901E-03   -0.67913E-03  5720   0.488E-02 0.114E-04
CGA:  39    -0.236001282236E+03   -0.58318E-03   -0.58347E-03  5720   0.280E-02 0.174E-04
SDA:  40    -0.236001507288E+03   -0.22505E-03   -0.22544E-03  5720   0.156E-02 0.672E-05
CGA:  41    -0.236001630615E+03   -0.12333E-03   -0.12322E-03  5720   0.171E-02-0.250E-05
CGA:  42    -0.236001943327E+03   -0.31271E-03   -0.31360E-03  5720   0.103E-02-0.159E-04
CGA:  43    -0.236002044577E+03   -0.10125E-03   -0.10096E-03  5720   0.945E-03-0.916E-05
CGA:  44    -0.236002196534E+03   -0.15196E-03   -0.15252E-03  5720   0.831E-03-0.167E-04
CGA:  45    -0.236002274229E+03   -0.77694E-04   -0.77474E-04  5720   0.515E-03-0.629E-05
CGA:  46    -0.236002382054E+03   -0.10783E-03   -0.10808E-03  5720   0.664E-03-0.320E-05
CGA:  47    -0.236002443130E+03   -0.61076E-04   -0.60929E-04  5720   0.413E-03-0.354E-05
CGA:  48    -0.236002512972E+03   -0.69842E-04   -0.70078E-04  5720   0.554E-03-0.604E-05
CGA:  49    -0.236002557889E+03   -0.44917E-04   -0.44812E-04  5720   0.348E-03-0.140E-05
CGA:  50    -0.236002608851E+03   -0.50961E-04   -0.50896E-04  5720   0.278E-03 0.435E-05
CGA:  51    -0.236002634331E+03   -0.25480E-04   -0.25616E-04  5720   0.106E-03 0.350E-05
CGA:  52    -0.236002654673E+03   -0.20342E-04   -0.20217E-04  5720   0.216E-03 0.227E-05
CGA:  53    -0.236002674459E+03   -0.19786E-04   -0.19852E-04  5720   0.770E-04 0.157E-05
CGA:  54    -0.236002685691E+03   -0.11232E-04   -0.11222E-04  5720   0.114E-03 0.746E-06
CGA:  55    -0.236002703273E+03   -0.17583E-04   -0.17544E-04  5720   0.689E-04 0.178E-05
CGA:  56    -0.236002707781E+03   -0.45076E-05   -0.45205E-05  5720   0.251E-04 0.166E-06
CGA:  57    -0.236002711393E+03   -0.36124E-05   -0.36182E-05  5720   0.482E-04-0.341E-06
CGA:  58    -0.236002719456E+03   -0.80630E-05   -0.81274E-05  5720   0.236E-04-0.159E-05
CGA:  59    -0.236002721374E+03   -0.19182E-05   -0.18978E-05  5720   0.205E-04-0.442E-06
CGA:  60    -0.236002727811E+03   -0.64361E-05   -0.65554E-05  5720   0.126E-04-0.639E-06
CGA:  61    -0.236002728750E+03   -0.93913E-06   -0.94333E-06  5720   0.911E-05 0.604E-07
CGA:  62    -0.236002730055E+03   -0.13055E-05   -0.13028E-05  5720   0.123E-04 0.318E-06
CGA:  63    -0.236002731435E+03   -0.13799E-05   -0.13855E-05  5720   0.679E-05 0.209E-06
CGA:  64    -0.236002732657E+03   -0.12217E-05   -0.12310E-05  5720   0.785E-05-0.192E-06
CGA:  65    -0.236002733173E+03   -0.51610E-06   -0.51242E-06  5720   0.204E-05-0.582E-07
CGA:  66    -0.236002733430E+03   -0.25754E-06   -0.25829E-06  5720   0.267E-05 0.125E-06
CGA:  67    -0.236002733908E+03   -0.47758E-06   -0.47008E-06  5720   0.234E-05 0.251E-06
CGA:  68    -0.236002734186E+03   -0.27816E-06   -0.27739E-06  5720   0.169E-05-0.418E-07
CGA:  69    -0.236002734325E+03   -0.13872E-06   -0.13484E-06  5720   0.617E-06-0.768E-07
CGA:  70    -0.236002734375E+03   -0.50070E-07   -0.51684E-07  5720   0.473E-06 0.548E-07
   1 F= -.23600273E+03 E0= -.23600467E+03  d E =0.580273E-02  mag=    -0.2857
