 vasp.5.4.4.18Apr17-6-g9f103f2a35 (build Dec 20 2018 12:05:58) complex          
  
 executed on             LinuxIFC date 2019.06.20  13:59:03
 running on   32 total cores
 distrk:  each k-point on    8 cores,    4 groups
 distr:  one band on NCORES_PER_BAND=   4 cores,    2 groups


--------------------------------------------------------------------------------------------------------


 INCAR:
 POTCAR:    PAW_PBE Al 04Jan2001                  
 POTCAR:    PAW_PBE Mn 06Sep2000                  

 ----------------------------------------------------------------------------- 
|                                                                             |
|           W    W    AA    RRRRR   N    N  II  N    N   GGGG   !!!           |
|           W    W   A  A   R    R  NN   N  II  NN   N  G    G  !!!           |
|           W    W  A    A  R    R  N N  N  II  N N  N  G       !!!           |
|           W WW W  AAAAAA  RRRRR   N  N N  II  N  N N  G  GGG   !            |
|           WW  WW  A    A  R   R   N   NN  II  N   NN  G    G                |
|           W    W  A    A  R    R  N    N  II  N    N   GGGG   !!!           |
|                                                                             |
|      You have enabled k-point parallelism (KPAR>1).                         |
|      This developmental code was originally  written by Paul Kent at ORNL,  |
|      and carefully double checked in Vienna.                                |
|      GW as well as linear response parallelism added by Martijn Marsman     |
|      and Georg Kresse.                                                      |
|      Carefully verify results versus KPAR=1.                                |
|      Report problems to Paul Kent and Vienna.                               |
|                                                                             |
 ----------------------------------------------------------------------------- 

 POTCAR:    PAW_PBE Al 04Jan2001                  
   VRHFIN =Al: s2p1                                                             
   LEXCH  = PE                                                                  
   EATOM  =    53.5387 eV,    3.9350 Ry                                         
                                                                                
   TITEL  = PAW_PBE Al 04Jan2001                                                
   LULTRA =        F    use ultrasoft PP ?                                      
   IUNSCR =        1    unscreen: 0-lin 1-nonlin 2-no                           
   RPACOR =    1.500    partial core radius                                     
   POMASS =   26.981; ZVAL   =    3.000    mass and valenz                      
   RCORE  =    1.900    outmost cutoff radius                                   
   RWIGS  =    2.650; RWIGS  =    1.402    wigner-seitz radius (au A)           
   ENMAX  =  240.300; ENMIN  =  180.225 eV                                      
   ICORE  =        2    local potential                                         
   LCOR   =        T    correct aug charges                                     
   LPAW   =        T    paw PP                                                  
   EAUG   =  291.052                                                            
   DEXC   =    0.000                                                            
   RMAX   =    1.939    core radius for proj-oper                               
   RAUG   =    1.300    factor for augmentation sphere                          
   RDEP   =    1.966    radius for radial grids                                 
   RDEPT  =    1.856    core radius for aug-charge                              
                                                                                
   Atomic configuration                                                         
    6 entries                                                                   
     n  l   j            E        occ.                                          
     1  0  0.50     -1511.1048   2.0000                                         
     2  0  0.50      -108.1629   2.0000                                         
     2  1  1.50       -69.6402   6.0000                                         
     3  0  0.50        -7.7528   2.0000                                         
     3  1  1.50        -2.7121   1.0000                                         
     3  2  2.50        -2.7212   0.0000                                         
   Description                                                                  
     l       E           TYP  RCUT    TYP  RCUT                                 
     0     -7.7528455     23  1.900                                             
     0     -3.3096929     23  1.900                                             
     1     -2.7120682     23  1.900                                             
     1     13.6058260     23  1.900                                             
     2     -2.7211652      7  1.900                                             
  local pseudopotential read in
  partial core-charges read in
  partial kinetic energy density read in
  atomic valenz-charges read in
  non local Contribution for L=           0  read in
    real space projection operators read in
  non local Contribution for L=           0  read in
    real space projection operators read in
  non local Contribution for L=           1  read in
    real space projection operators read in
  non local Contribution for L=           1  read in
    real space projection operators read in
    PAW grid and wavefunctions read in
 
   number of l-projection  operators is LMAX  =           4
   number of lm-projection operators is LMMAX =           8
 
 POTCAR:    PAW_PBE Mn 06Sep2000                  
   VRHFIN =Mn: d6 s1                                                            
   LEXCH  = PE                                                                  
   EATOM  =   416.7541 eV,   30.6306 Ry                                         
                                                                                
   TITEL  = PAW_PBE Mn 06Sep2000                                                
   LULTRA =        F    use ultrasoft PP ?                                      
   IUNSCR =        1    unscreen: 0-lin 1-nonlin 2-no                           
   RPACOR =    2.000    partial core radius                                     
   POMASS =   54.938; ZVAL   =    7.000    mass and valenz                      
   RCORE  =    2.300    outmost cutoff radius                                   
   RWIGS  =    2.500; RWIGS  =    1.323    wigner-seitz radius (au A)           
   ENMAX  =  269.864; ENMIN  =  202.398 eV                                      
   RCLOC  =    1.725    cutoff for local pot                                    
   LCOR   =        T    correct aug charges                                     
   LPAW   =        T    paw PP                                                  
   EAUG   =  500.711                                                            
   DEXC   =    0.000                                                            
   RMAX   =    2.343    core radius for proj-oper                               
   RAUG   =    1.300    factor for augmentation sphere                          
   RDEP   =    2.338    radius for radial grids                                 
   RDEPT  =    1.911    core radius for aug-charge                              
                                                                                
   Atomic configuration                                                         
    9 entries                                                                   
     n  l   j            E        occ.                                          
     1  0  0.50     -6424.8288   2.0000                                         
     2  0  0.50      -739.1154   2.0000                                         
     2  1  1.50      -625.3949   6.0000                                         
     3  0  0.50       -81.6100   2.0000                                         
     3  1  1.50       -50.4667   6.0000                                         
     3  2  2.50        -3.3745   6.0000                                         
     4  0  0.50        -4.1331   1.0000                                         
     4  1  0.50        -4.0817   0.0000                                         
     4  3  2.50        -1.3606   0.0000                                         
   Description                                                                  
     l       E           TYP  RCUT    TYP  RCUT                                 
     2     -3.3744664     23  2.300                                             
     2     -4.7350490     23  2.300                                             
     0     -4.1331408     23  2.300                                             
     0      7.6656614     23  2.300                                             
     1     -2.7211652     23  2.300                                             
     1     20.4087390     23  2.300                                             
  local pseudopotential read in
  partial core-charges read in
  partial kinetic energy density read in
  atomic valenz-charges read in
  non local Contribution for L=           2  read in
    real space projection operators read in
  non local Contribution for L=           2  read in
    real space projection operators read in
  non local Contribution for L=           0  read in
    real space projection operators read in
  non local Contribution for L=           0  read in
    real space projection operators read in
  non local Contribution for L=           1  read in
    real space projection operators read in
  non local Contribution for L=           1  read in
    real space projection operators read in
    PAW grid and wavefunctions read in
 
   number of l-projection  operators is LMAX  =           6
   number of lm-projection operators is LMMAX =          18
 

 ----------------------------------------------------------------------------- 
|                                                                             |
|  ADVICE TO THIS USER RUNNING 'VASP/VAMP'   (HEAR YOUR MASTER'S VOICE ...):  |
|                                                                             |
|      You have a (more or less) 'large supercell' and for larger cells       |
|      it might be more efficient to use real space projection opertators     |
|      So try LREAL= Auto  in the INCAR   file.                               |
|      Mind:          For very  accurate calculation you might also keep the  |
|      reciprocal projection scheme          (i.e. LREAL=.FALSE.)             |
|                                                                             |
 ----------------------------------------------------------------------------- 

  PAW_PBE Al 04Jan2001                  :
 energy of atom  1       EATOM=  -53.5387
 kinetic energy error for atom=    0.0005 (will be added to EATOM!!)
  PAW_PBE Mn 06Sep2000                  :
 energy of atom  2       EATOM= -416.7541
 kinetic energy error for atom=    0.0080 (will be added to EATOM!!)
 
 
 POSCAR: NewRef: 18, @ ['Mn', array([1.37502469, 
  positions in cartesian coordinates
  velocities in cartesian coordinates
  No initial velocities read in
 exchange correlation table for  LEXCH =        8
   RHO(1)=    0.500       N(1)  =     2000
   RHO(2)=  100.500       N(2)  =     4000
 


--------------------------------------------------------------------------------------------------------


 ion  position               nearest neighbor table
   1  0.000  0.000  0.000-  20 2.61  24 2.61  32 2.61  36 2.61  31 2.61  23 2.61  35 2.61  19 2.61
                             3 2.75   7 2.75   5 2.75  13 2.75
   2  0.000  0.000  0.500-  19 2.61  23 2.61  31 2.61  35 2.61  20 2.61  32 2.61  24 2.61  36 2.61
                             4 2.75   8 2.75   6 2.75  14 2.75
   3  0.000  0.333  0.000-  20 2.61  32 2.61  22 2.61  34 2.61  19 2.61  31 2.61  33 2.61  21 2.61
                             9 2.75   1 2.75   5 2.75  15 2.75
   4  0.000  0.333  0.500-  19 2.61  31 2.61  21 2.61  33 2.61  32 2.61  20 2.61  22 2.61  34 2.61
                            10 2.75   2 2.75   6 2.75  16 2.75
   5  0.000  0.667  0.000-  22 2.61  34 2.61  24 2.61  36 2.61  21 2.61  33 2.61  35 2.61  23 2.61
                             3 2.75  11 2.75   1 2.75  17 2.75
   6  0.000  0.667  0.500-  21 2.61  33 2.61  23 2.61  35 2.61  34 2.61  22 2.61  24 2.61  36 2.61
                             4 2.75  12 2.75   2 2.75  18 2.75
   7  0.333  0.000  0.000-  20 2.61  24 2.61  26 2.61  30 2.61  23 2.61  19 2.61  29 2.61  25 2.61
                            13 2.75   1 2.75   9 2.75  11 2.75
   8  0.333  0.000  0.500-  19 2.61  23 2.61  25 2.61  29 2.61  20 2.61  24 2.61  26 2.61  30 2.61
                            14 2.75   2 2.75  10 2.75  12 2.75
   9  0.333  0.333  0.000-  20 2.61  22 2.61  26 2.61  19 2.61  28 2.61  21 2.61  25 2.61  27 2.61
                             3 2.75   7 2.75  11 2.75  15 2.75
  10  0.333  0.333  0.500-  19 2.61  21 2.61  25 2.61  20 2.61  27 2.61  26 2.61  22 2.61  28 2.61
                             4 2.75   8 2.75  12 2.75  16 2.75
  11  0.333  0.667  0.000-  22 2.61  24 2.61  28 2.61  21 2.61  30 2.61  23 2.61  27 2.61  29 2.61
                            17 2.75   5 2.75   9 2.75   7 2.75
  12  0.333  0.667  0.500-  21 2.61  23 2.61  27 2.61  22 2.61  29 2.61  28 2.61  24 2.61  30 2.61
                            18 2.75   6 2.75  10 2.75   8 2.75
  13  0.667  0.000  0.000-  26 2.61  30 2.61  32 2.61  36 2.61  29 2.61  25 2.61  35 2.61  31 2.61
                             7 2.75  15 2.75   1 2.75  17 2.75
  14  0.667  0.000  0.500-  25 2.61  29 2.61  31 2.61  35 2.61  26 2.61  30 2.61  32 2.61  36 2.61
                             8 2.75  16 2.75   2 2.75  18 2.75
  15  0.667  0.333  0.000-  26 2.61  28 2.61  32 2.61  25 2.61  34 2.61  27 2.61  31 2.61  33 2.61
                            17 2.75   9 2.75  13 2.75   3 2.75
  16  0.667  0.333  0.500-  25 2.61  27 2.61  31 2.61  26 2.61  33 2.61  32 2.61  28 2.61  34 2.61
                            18 2.75  10 2.75  14 2.75   4 2.75
  17  0.667  0.667  0.000-  28 2.61  30 2.61  34 2.61  27 2.61  36 2.61  29 2.61  33 2.61  35 2.61
                            11 2.75  15 2.75  13 2.75   5 2.75
  18  0.667  0.667  0.500-  27 2.61  29 2.61  33 2.61  28 2.61  35 2.61  34 2.61  30 2.61  36 2.61
                            12 2.75  16 2.75  14 2.75   6 2.75
  19  0.167  0.167  0.250-  10 2.61   8 2.61   4 2.61   9 2.61   2 2.61   7 2.61   3 2.61   1 2.61
                            21 2.75  25 2.75  23 2.75  31 2.75
  20  0.167  0.167  0.750-   9 2.61   7 2.61   3 2.61  10 2.61   1 2.61   4 2.61   8 2.61   2 2.61
                            22 2.75  26 2.75  24 2.75  32 2.75
  21  0.167  0.500  0.250-  12 2.61  10 2.61   6 2.61  11 2.61   4 2.61   9 2.61   5 2.61   3 2.61
                            19 2.75  23 2.75  27 2.75  33 2.75
  22  0.167  0.500  0.750-  11 2.61   9 2.61   5 2.61  12 2.61   3 2.61   6 2.61  10 2.61   4 2.61
                            20 2.75  24 2.75  28 2.75  34 2.75
  23  0.167  0.833  0.250-   8 2.61  12 2.61   2 2.61   6 2.61  11 2.61   7 2.61   5 2.61   1 2.61
                            21 2.75  29 2.75  19 2.75  35 2.75
  24  0.167  0.833  0.750-   7 2.61  11 2.61   1 2.61   5 2.61   8 2.61  12 2.61   2 2.61   6 2.61
                            22 2.75  30 2.75  20 2.75  36 2.75
  25  0.500  0.167  0.250-  16 2.61  14 2.61  10 2.61  15 2.61   8 2.61  13 2.61   9 2.61   7 2.61
                            19 2.75  27 2.75  31 2.75  29 2.75
  26  0.500  0.167  0.750-  15 2.61  13 2.61   9 2.61  16 2.61   7 2.61  10 2.61  14 2.61   8 2.61
                            20 2.75  28 2.75  32 2.75  30 2.75
  27  0.500  0.500  0.250-  18 2.61  16 2.61  12 2.61  17 2.61  10 2.61  15 2.61  11 2.61   9 2.61
                            21 2.75  25 2.75  29 2.75  33 2.75
  28  0.500  0.500  0.750-  17 2.61  15 2.61  11 2.61  18 2.61   9 2.61  12 2.61  16 2.61  10 2.61
                            22 2.75  26 2.75  30 2.75  34 2.75
  29  0.500  0.833  0.250-  14 2.61  18 2.61   8 2.61  12 2.61  17 2.61  13 2.61  11 2.61   7 2.61
                            23 2.75  27 2.75  35 2.75  25 2.75
  30  0.500  0.833  0.750-  13 2.61  17 2.61   7 2.61  11 2.61  14 2.61  18 2.61   8 2.61  12 2.61
                            24 2.75  28 2.75  36 2.75  26 2.75
  31  0.833  0.167  0.250-   4 2.61  16 2.61  14 2.61   2 2.61  15 2.61   3 2.61  13 2.61   1 2.61
                            25 2.75  33 2.75  19 2.75  35 2.75
  32  0.833  0.167  0.750-   3 2.61  15 2.61  13 2.61   1 2.61   4 2.61  16 2.61   2 2.61  14 2.61
                            26 2.75  34 2.75  20 2.75  36 2.75
  33  0.833  0.500  0.250-   6 2.61  18 2.61  16 2.61   4 2.61  17 2.61   5 2.61  15 2.61   3 2.61
                            27 2.75  31 2.75  35 2.75  21 2.75
  34  0.833  0.500  0.750-   5 2.61  17 2.61  15 2.61   3 2.61   6 2.61  18 2.61   4 2.61  16 2.61
                            28 2.75  32 2.75  36 2.75  22 2.75
  35  0.833  0.833  0.250-   2 2.61   6 2.61  14 2.61  18 2.61  13 2.61   5 2.61  17 2.61   1 2.61
                            29 2.75  33 2.75  31 2.75  23 2.75
  36  0.833  0.833  0.750-   1 2.61   5 2.61  13 2.61  17 2.61   2 2.61  14 2.61   6 2.61  18 2.61
                            30 2.75  34 2.75  32 2.75  24 2.75
 
  LATTYP: Found a simple tetragonal cell.
 ALAT       =     8.2501481662
 C/A-ratio  =     0.8428059861
  
  Lattice vectors:
  
 A1 = (   8.2501481662,   0.0000000000,   0.0000000000)
 A2 = (   0.0000000000,   8.2501481662,   0.0000000000)
 A3 = (   0.0000000000,   0.0000000000,   6.9532742610)


Analysis of symmetry for initial positions (statically):
=====================================================================
 Subroutine PRICEL returns following result:
 
  LATTYP: Found a simple tetragonal cell.
 ALAT       =     2.7500493888
 C/A-ratio  =     1.2642089792
  
  Lattice vectors:
  
 A1 = (   2.7500493888,   0.0000000000,   0.0000000000)
 A2 = (   0.0000000000,   2.7500493888,   0.0000000000)
 A3 = (   0.0000000000,   0.0000000000,   3.4766371305)
 
  18 primitive cells build up your supercell.
 

 Routine SETGRP: Setting up the symmetry group for a 
 simple tetragonal supercell.


 Subroutine GETGRP returns: Found 16 space group operations
 (whereof 16 operations were pure point group operations)
 out of a pool of 16 trial point group operations.


The static configuration has the point symmetry D_4h.


Analysis of symmetry for dynamics (positions and initial velocities):
=====================================================================
 Subroutine PRICEL returns following result:
 
  LATTYP: Found a simple tetragonal cell.
 ALAT       =     2.7500493888
 C/A-ratio  =     1.2642089792
  
  Lattice vectors:
  
 A1 = (   2.7500493888,   0.0000000000,   0.0000000000)
 A2 = (   0.0000000000,   2.7500493888,   0.0000000000)
 A3 = (   0.0000000000,   0.0000000000,   3.4766371305)
 
  18 primitive cells build up your supercell.
 

 Routine SETGRP: Setting up the symmetry group for a 
 simple tetragonal supercell.


 Subroutine GETGRP returns: Found 16 space group operations
 (whereof 16 operations were pure point group operations)
 out of a pool of 16 trial point group operations.


The dynamic configuration has the point symmetry D_4h.


Analysis of structural, dynamic, and magnetic symmetry:
=====================================================================
 Subroutine PRICEL returns:
 Original cell was already a primitive cell.
 

 Routine SETGRP: Setting up the symmetry group for a 
 simple tetragonal supercell.


 Subroutine GETGRP returns: Found  2 space group operations
 (whereof  1 operations were pure point group operations)
 out of a pool of 16 trial point group operations.


The magnetic configuration has the point symmetry C_1 .
 The point group associated with its full space group is C_1h.


 Subroutine INISYM returns: Found  2 space group operations
 (whereof  1 operations are pure point group operations),
 and found     1 'primitive' translations

 
 
 KPOINTS: automatic KPOINTS                       

Automatic generation of k-mesh.
 generate k-points for:    5    5    6
Space group operators:
 irot       det(A)        alpha          n_x          n_y          n_z        tau_x        tau_y        tau_z
    1     1.000000     0.000001     1.000000     0.000000     0.000000     0.000000     0.000000     0.000000
    2    -1.000000   179.999999     0.000000     0.000000     1.000000     0.000000     0.000000     0.500000
 
 Subroutine IBZKPT returns following result:
 ===========================================
 
 Found     52 irreducible k-points:
 
 Following reciprocal coordinates:
            Coordinates               Weight
  0.000000  0.000000  0.000000      1.000000
  0.200000  0.000000  0.000000      2.000000
  0.400000  0.000000  0.000000      2.000000
  0.000000  0.200000  0.000000      2.000000
  0.200000  0.200000  0.000000      2.000000
  0.400000  0.200000  0.000000      2.000000
 -0.400000  0.200000  0.000000      2.000000
 -0.200000  0.200000  0.000000      2.000000
  0.000000  0.400000  0.000000      2.000000
  0.200000  0.400000  0.000000      2.000000
  0.400000  0.400000  0.000000      2.000000
 -0.400000  0.400000  0.000000      2.000000
 -0.200000  0.400000  0.000000      2.000000
  0.000000  0.000000  0.166667      2.000000
  0.200000  0.000000  0.166667      4.000000
  0.400000  0.000000  0.166667      4.000000
  0.000000  0.200000  0.166667      4.000000
  0.200000  0.200000  0.166667      4.000000
  0.400000  0.200000  0.166667      4.000000
 -0.400000  0.200000  0.166667      4.000000
 -0.200000  0.200000  0.166667      4.000000
  0.000000  0.400000  0.166667      4.000000
  0.200000  0.400000  0.166667      4.000000
  0.400000  0.400000  0.166667      4.000000
 -0.400000  0.400000  0.166667      4.000000
 -0.200000  0.400000  0.166667      4.000000
  0.000000  0.000000  0.333333      2.000000
  0.200000  0.000000  0.333333      4.000000
  0.400000  0.000000  0.333333      4.000000
  0.000000  0.200000  0.333333      4.000000
  0.200000  0.200000  0.333333      4.000000
  0.400000  0.200000  0.333333      4.000000
 -0.400000  0.200000  0.333333      4.000000
 -0.200000  0.200000  0.333333      4.000000
  0.000000  0.400000  0.333333      4.000000
  0.200000  0.400000  0.333333      4.000000
  0.400000  0.400000  0.333333      4.000000
 -0.400000  0.400000  0.333333      4.000000
 -0.200000  0.400000  0.333333      4.000000
  0.000000  0.000000  0.500000      1.000000
  0.200000  0.000000  0.500000      2.000000
  0.400000  0.000000  0.500000      2.000000
  0.000000  0.200000  0.500000      2.000000
  0.200000  0.200000  0.500000      2.000000
  0.400000  0.200000  0.500000      2.000000
 -0.400000  0.200000  0.500000      2.000000
 -0.200000  0.200000  0.500000      2.000000
  0.000000  0.400000  0.500000      2.000000
  0.200000  0.400000  0.500000      2.000000
  0.400000  0.400000  0.500000      2.000000
 -0.400000  0.400000  0.500000      2.000000
 -0.200000  0.400000  0.500000      2.000000
 
 Following cartesian coordinates:
            Coordinates               Weight
  0.000000  0.000000  0.000000      1.000000
  0.024242  0.000000  0.000000      2.000000
  0.048484  0.000000  0.000000      2.000000
  0.000000  0.024242  0.000000      2.000000
  0.024242  0.024242  0.000000      2.000000
  0.048484  0.024242  0.000000      2.000000
 -0.048484  0.024242  0.000000      2.000000
 -0.024242  0.024242  0.000000      2.000000
  0.000000  0.048484  0.000000      2.000000
  0.024242  0.048484  0.000000      2.000000
  0.048484  0.048484  0.000000      2.000000
 -0.048484  0.048484  0.000000      2.000000
 -0.024242  0.048484  0.000000      2.000000
  0.000000  0.000000  0.023970      2.000000
  0.024242  0.000000  0.023970      4.000000
  0.048484  0.000000  0.023970      4.000000
  0.000000  0.024242  0.023970      4.000000
  0.024242  0.024242  0.023970      4.000000
  0.048484  0.024242  0.023970      4.000000
 -0.048484  0.024242  0.023970      4.000000
 -0.024242  0.024242  0.023970      4.000000
  0.000000  0.048484  0.023970      4.000000
  0.024242  0.048484  0.023970      4.000000
  0.048484  0.048484  0.023970      4.000000
 -0.048484  0.048484  0.023970      4.000000
 -0.024242  0.048484  0.023970      4.000000
  0.000000  0.000000  0.047939      2.000000
  0.024242  0.000000  0.047939      4.000000
  0.048484  0.000000  0.047939      4.000000
  0.000000  0.024242  0.047939      4.000000
  0.024242  0.024242  0.047939      4.000000
  0.048484  0.024242  0.047939      4.000000
 -0.048484  0.024242  0.047939      4.000000
 -0.024242  0.024242  0.047939      4.000000
  0.000000  0.048484  0.047939      4.000000
  0.024242  0.048484  0.047939      4.000000
  0.048484  0.048484  0.047939      4.000000
 -0.048484  0.048484  0.047939      4.000000
 -0.024242  0.048484  0.047939      4.000000
  0.000000  0.000000  0.071909      1.000000
  0.024242  0.000000  0.071909      2.000000
  0.048484  0.000000  0.071909      2.000000
  0.000000  0.024242  0.071909      2.000000
  0.024242  0.024242  0.071909      2.000000
  0.048484  0.024242  0.071909      2.000000
 -0.048484  0.024242  0.071909      2.000000
 -0.024242  0.024242  0.071909      2.000000
  0.000000  0.048484  0.071909      2.000000
  0.024242  0.048484  0.071909      2.000000
  0.048484  0.048484  0.071909      2.000000
 -0.048484  0.048484  0.071909      2.000000
 -0.024242  0.048484  0.071909      2.000000
 


--------------------------------------------------------------------------------------------------------




 Dimension of arrays:
   k-points           NKPTS =     52   k-points in BZ     NKDIM =     52   number of bands    NBANDS=    110
   number of dos      NEDOS =    301   number of ions     NIONS =     36
   non local maximal  LDIM  =      6   non local SUM 2l+1 LMDIM =     18
   total plane-waves  NPLWV = 139968
   max r-space proj   IRMAX =      1   max aug-charges    IRDMAX=  92271
   dimension x,y,z NGX =    54 NGY =   54 NGZ =   48
   dimension x,y,z NGXF=   108 NGYF=  108 NGZF=   96
   support grid    NGXF=   216 NGYF=  216 NGZF=  192
   ions per type =              18  18
   NGX,Y,Z   is equivalent  to a cutoff of  10.88, 10.88, 11.48 a.u.
   NGXF,Y,Z  is equivalent  to a cutoff of  21.76, 21.76, 22.95 a.u.

 SYSTEM =  AlMn_pv                                 
 POSCAR =  NewRef: 18, @ ['Mn', array([1.37502469, 

 Startparameter for this run:
   NWRITE =      2    write-flag & timer
   PREC   = accura    normal or accurate (medium, high low for compatibility)
   ISTART =      0    job   : 0-new  1-cont  2-samecut
   ICHARG =      2    charge: 1-file 2-atom 10-const
   ISPIN  =      2    spin polarized calculation?
   LNONCOLLINEAR =      F non collinear calculations
   LSORBIT =      F    spin-orbit coupling
   INIWAV =      1    electr: 0-lowe 1-rand  2-diag
   LASPH  =      F    aspherical Exc in radial PAW
   METAGGA=      F    non-selfconsistent MetaGGA calc.

 Electronic Relaxation 1
   ENCUT  =  404.8 eV  29.75 Ry    5.45 a.u.  13.53 13.53 11.41*2*pi/ulx,y,z
   ENINI  =  404.8     initial cutoff
   ENAUG  =  500.7 eV  augmentation charge cutoff
   NELM   =    100;   NELMIN=  4; NELMDL= -8     # of ELM steps 
   EDIFF  = 0.1E-06   stopping-criterion for ELM
   LREAL  =      F    real-space projection
   NLSPLINE    = F    spline interpolate recip. space projectors
   LCOMPAT=      F    compatible to vasp.4.4
   GGA_COMPAT  = T    GGA compatible to vasp.4.4-vasp.4.6
   LMAXPAW     = -100 max onsite density
   LMAXMIX     =    2 max onsite mixed and CHGCAR
   VOSKOWN=      0    Vosko Wilk Nusair interpolation
   ROPT   =    0.00000   0.00000
 Ionic relaxation
   EDIFFG = 0.1E-05   stopping-criterion for IOM
   NSW    =      0    number of steps for IOM
   NBLOCK =      1;   KBLOCK =      1    inner block; outer block 
   IBRION =     -1    ionic relax: 0-MD 1-quasi-New 2-CG
   NFREE  =      0    steps in history (QN), initial steepest desc. (CG)
   ISIF   =      2    stress and relaxation
   IWAVPR =     10    prediction:  0-non 1-charg 2-wave 3-comb
   ISYM   =      2    0-nonsym 1-usesym 2-fastsym
   LCORR  =      T    Harris-Foulkes like correction to forces

   POTIM  = 0.2000    time-step for ionic-motion
   TEIN   =    0.0    initial temperature
   TEBEG  =    0.0;   TEEND  =   0.0 temperature during run
   SMASS  =  -3.00    Nose mass-parameter (am)
   estimated Nose-frequenzy (Omega)   =  0.10E-29 period in steps =****** mass=  -0.156E-26a.u.
   SCALEE = 1.0000    scale energy and forces
   NPACO  =    256;   APACO  = 16.0  distance and # of slots for P.C.
   PSTRESS=    0.0 pullay stress

  Mass of Ions in am
   POMASS =  26.98 54.94
  Ionic Valenz
   ZVAL   =   3.00  7.00
  Atomic Wigner-Seitz radii
   RWIGS  =  -1.00 -1.00
  virtual crystal weights 
   VCA    =   1.00  1.00
   NELECT =     180.0000    total number of electrons
   NUPDOWN=      -1.0000    fix difference up-down

 DOS related values:
   EMIN   =  10.00;   EMAX   =-10.00  energy-range for DOS
   EFERMI =   0.00
   ISMEAR =     1;   SIGMA  =   0.20  broadening in eV -4-tet -1-fermi 0-gaus

 Electronic relaxation 2 (details)
   IALGO  =     58    algorithm
   LDIAG  =      T    sub-space diagonalisation (order eigenvalues)
   LSUBROT=      F    optimize rotation matrix (better conditioning)
   TURBO    =      0    0=normal 1=particle mesh
   IRESTART =      0    0=no restart 2=restart with 2 vectors
   NREBOOT  =      0    no. of reboots
   NMIN     =      0    reboot dimension
   EREF     =   0.00    reference energy to select bands
   IMIX   =      4    mixing-type and parameters
     AMIX     =   0.40;   BMIX     =  1.00
     AMIX_MAG =   1.60;   BMIX_MAG =  1.00
     AMIN     =   0.10
     WC   =   100.;   INIMIX=   1;  MIXPRE=   1;  MAXMIX= -45

 Intra band minimization:
   WEIMIN = 0.0000     energy-eigenvalue tresh-hold
   EBREAK =  0.23E-09  absolut break condition
   DEPER  =   0.30     relativ break condition  

   TIME   =   0.40     timestep for ELM

  volume/ion in A,a.u.               =      13.15        88.72
  Fermi-wavevector in a.u.,A,eV,Ry     =   1.186118  2.241439 19.141722  1.406877
  Thomas-Fermi vector in A             =   2.322298
 
 Write flags
   LWAVE        =      F    write WAVECAR
   LDOWNSAMPLE  =      F    k-point downsampling of WAVECAR
   LCHARG       =      F    write CHGCAR
   LVTOT        =      F    write LOCPOT, total local potential
   LVHAR        =      F    write LOCPOT, Hartree potential only
   LELF         =      F    write electronic localiz. function (ELF)
   LORBIT       =     10    0 simple, 1 ext, 2 COOP (PROOUT), +10 PAW based schemes


 Dipole corrections
   LMONO  =      F    monopole corrections only (constant potential shift)
   LDIPOL =      F    correct potential (dipole corrections)
   IDIPOL =      0    1-x, 2-y, 3-z, 4-all directions 
   EPSILON=  1.0000000 bulk dielectric constant

 Exchange correlation treatment:
   GGA     =    --    GGA type
   LEXCH   =     8    internal setting for exchange type
   VOSKOWN=      0    Vosko Wilk Nusair interpolation
   LHFCALC =     F    Hartree Fock is set to
   LHFONE  =     F    Hartree Fock one center treatment
   AEXX    =    0.0000 exact exchange contribution

 Linear response parameters
   LEPSILON=     F    determine dielectric tensor
   LRPA    =     F    only Hartree local field effects (RPA)
   LNABLA  =     F    use nabla operator in PAW spheres
   LVEL    =     F    velocity operator in full k-point grid
   LINTERFAST=   F  fast interpolation
   KINTER  =     0    interpolate to denser k-point grid
   CSHIFT  =0.1000    complex shift for real part using Kramers Kronig
   OMEGAMAX=  -1.0    maximum frequency
   DEG_THRESHOLD= 0.2000000E-02 threshold for treating states as degnerate
   RTIME   =   -0.100 relaxation time in fs
  (WPLASMAI=    0.000 imaginary part of plasma frequency in eV, 0.658/RTIME)
   DFIELD  = 0.0000000 0.0000000 0.0000000 field for delta impulse in time
 
 Orbital magnetization related:
   ORBITALMAG=     F  switch on orbital magnetization
   LCHIMAG   =     F  perturbation theory with respect to B field
   DQ        =  0.001000  dq finite difference perturbation B field
   LLRAUG    =     F  two centre corrections for induced B field



--------------------------------------------------------------------------------------------------------


 Static calculation
 charge density and potential will be updated during run
 spin polarized calculation
 Conjugate gradient for all bands (Freysoldt, et al. PRB 79, 241103 (2009))
 preconditioned conjugated gradient                                        
 perform sub-space diagonalisation
    before iterative eigenvector-optimisation
 modified Broyden-mixing scheme, WC =      100.0
 initial mixing is a Kerker type mixing with AMIX =  0.4000 and BMIX =      1.0000
 Hartree-type preconditioning will be used
 using additional bands           20
 reciprocal scheme for non local part
 use partial core corrections
 no Harris-corrections to forces 
 use gradient corrections 
 use of overlap-Matrix (Vanderbilt PP)
 Methfessel and Paxton  Order N= 1 SIGMA  =   0.20


--------------------------------------------------------------------------------------------------------


  energy-cutoff  :      404.80
  volume of cell :      473.27
      direct lattice vectors                 reciprocal lattice vectors
     8.250148166  0.000000000  0.000000000     0.121209944  0.000000000  0.000000000
     0.000000000  8.250148166  0.000000000     0.000000000  0.121209944  0.000000000
     0.000000000  0.000000000  6.953274261     0.000000000  0.000000000  0.143817137

  length of vectors
     8.250148166  8.250148166  6.953274261     0.121209944  0.121209944  0.143817137


 
 k-points in units of 2pi/SCALE and weight: automatic KPOINTS                       
   0.00000000  0.00000000  0.00000000       0.007
   0.02424199  0.00000000  0.00000000       0.013
   0.04848398  0.00000000  0.00000000       0.013
   0.00000000  0.02424199  0.00000000       0.013
   0.02424199  0.02424199  0.00000000       0.013
   0.04848398  0.02424199  0.00000000       0.013
  -0.04848398  0.02424199  0.00000000       0.013
  -0.02424199  0.02424199  0.00000000       0.013
   0.00000000  0.04848398  0.00000000       0.013
   0.02424199  0.04848398  0.00000000       0.013
   0.04848398  0.04848398  0.00000000       0.013
  -0.04848398  0.04848398  0.00000000       0.013
  -0.02424199  0.04848398  0.00000000       0.013
   0.00000000  0.00000000  0.02396952       0.013
   0.02424199  0.00000000  0.02396952       0.027
   0.04848398  0.00000000  0.02396952       0.027
   0.00000000  0.02424199  0.02396952       0.027
   0.02424199  0.02424199  0.02396952       0.027
   0.04848398  0.02424199  0.02396952       0.027
  -0.04848398  0.02424199  0.02396952       0.027
  -0.02424199  0.02424199  0.02396952       0.027
   0.00000000  0.04848398  0.02396952       0.027
   0.02424199  0.04848398  0.02396952       0.027
   0.04848398  0.04848398  0.02396952       0.027
  -0.04848398  0.04848398  0.02396952       0.027
  -0.02424199  0.04848398  0.02396952       0.027
   0.00000000  0.00000000  0.04793905       0.013
   0.02424199  0.00000000  0.04793905       0.027
   0.04848398  0.00000000  0.04793905       0.027
   0.00000000  0.02424199  0.04793905       0.027
   0.02424199  0.02424199  0.04793905       0.027
   0.04848398  0.02424199  0.04793905       0.027
  -0.04848398  0.02424199  0.04793905       0.027
  -0.02424199  0.02424199  0.04793905       0.027
   0.00000000  0.04848398  0.04793905       0.027
   0.02424199  0.04848398  0.04793905       0.027
   0.04848398  0.04848398  0.04793905       0.027
  -0.04848398  0.04848398  0.04793905       0.027
  -0.02424199  0.04848398  0.04793905       0.027
   0.00000000  0.00000000  0.07190857       0.007
   0.02424199  0.00000000  0.07190857       0.013
   0.04848398  0.00000000  0.07190857       0.013
   0.00000000  0.02424199  0.07190857       0.013
   0.02424199  0.02424199  0.07190857       0.013
   0.04848398  0.02424199  0.07190857       0.013
  -0.04848398  0.02424199  0.07190857       0.013
  -0.02424199  0.02424199  0.07190857       0.013
   0.00000000  0.04848398  0.07190857       0.013
   0.02424199  0.04848398  0.07190857       0.013
   0.04848398  0.04848398  0.07190857       0.013
  -0.04848398  0.04848398  0.07190857       0.013
  -0.02424199  0.04848398  0.07190857       0.013
 
 k-points in reciprocal lattice and weights: automatic KPOINTS                       
   0.00000000  0.00000000  0.00000000       0.007
   0.20000000  0.00000000  0.00000000       0.013
   0.40000000  0.00000000  0.00000000       0.013
   0.00000000  0.20000000  0.00000000       0.013
   0.20000000  0.20000000  0.00000000       0.013
   0.40000000  0.20000000  0.00000000       0.013
  -0.40000000  0.20000000  0.00000000       0.013
  -0.20000000  0.20000000  0.00000000       0.013
   0.00000000  0.40000000  0.00000000       0.013
   0.20000000  0.40000000  0.00000000       0.013
   0.40000000  0.40000000  0.00000000       0.013
  -0.40000000  0.40000000  0.00000000       0.013
  -0.20000000  0.40000000  0.00000000       0.013
   0.00000000  0.00000000  0.16666667       0.013
   0.20000000  0.00000000  0.16666667       0.027
   0.40000000  0.00000000  0.16666667       0.027
   0.00000000  0.20000000  0.16666667       0.027
   0.20000000  0.20000000  0.16666667       0.027
   0.40000000  0.20000000  0.16666667       0.027
  -0.40000000  0.20000000  0.16666667       0.027
  -0.20000000  0.20000000  0.16666667       0.027
   0.00000000  0.40000000  0.16666667       0.027
   0.20000000  0.40000000  0.16666667       0.027
   0.40000000  0.40000000  0.16666667       0.027
  -0.40000000  0.40000000  0.16666667       0.027
  -0.20000000  0.40000000  0.16666667       0.027
   0.00000000  0.00000000  0.33333333       0.013
   0.20000000  0.00000000  0.33333333       0.027
   0.40000000  0.00000000  0.33333333       0.027
   0.00000000  0.20000000  0.33333333       0.027
   0.20000000  0.20000000  0.33333333       0.027
   0.40000000  0.20000000  0.33333333       0.027
  -0.40000000  0.20000000  0.33333333       0.027
  -0.20000000  0.20000000  0.33333333       0.027
   0.00000000  0.40000000  0.33333333       0.027
   0.20000000  0.40000000  0.33333333       0.027
   0.40000000  0.40000000  0.33333333       0.027
  -0.40000000  0.40000000  0.33333333       0.027
  -0.20000000  0.40000000  0.33333333       0.027
   0.00000000  0.00000000  0.50000000       0.007
   0.20000000  0.00000000  0.50000000       0.013
   0.40000000  0.00000000  0.50000000       0.013
   0.00000000  0.20000000  0.50000000       0.013
   0.20000000  0.20000000  0.50000000       0.013
   0.40000000  0.20000000  0.50000000       0.013
  -0.40000000  0.20000000  0.50000000       0.013
  -0.20000000  0.20000000  0.50000000       0.013
   0.00000000  0.40000000  0.50000000       0.013
   0.20000000  0.40000000  0.50000000       0.013
   0.40000000  0.40000000  0.50000000       0.013
  -0.40000000  0.40000000  0.50000000       0.013
  -0.20000000  0.40000000  0.50000000       0.013
 
 position of ions in fractional coordinates (direct lattice) 
   0.00000000  0.00000000  0.00000000
   0.00000000  0.00000000  0.50000000
   0.00000000  0.33333333  0.00000000
   0.00000000  0.33333333  0.50000000
   0.00000000  0.66666667  0.00000000
   0.00000000  0.66666667  0.50000000
   0.33333333  0.00000000  0.00000000
   0.33333333  0.00000000  0.50000000
   0.33333333  0.33333333  0.00000000
   0.33333333  0.33333333  0.50000000
   0.33333333  0.66666667  0.00000000
   0.33333333  0.66666667  0.50000000
   0.66666667  0.00000000  0.00000000
   0.66666667  0.00000000  0.50000000
   0.66666667  0.33333333  0.00000000
   0.66666667  0.33333333  0.50000000
   0.66666667  0.66666667  0.00000000
   0.66666667  0.66666667  0.50000000
   0.16666667  0.16666667  0.25000000
   0.16666667  0.16666667  0.75000000
   0.16666667  0.50000000  0.25000000
   0.16666667  0.50000000  0.75000000
   0.16666667  0.83333333  0.25000000
   0.16666667  0.83333333  0.75000000
   0.50000000  0.16666667  0.25000000
   0.50000000  0.16666667  0.75000000
   0.50000000  0.50000000  0.25000000
   0.50000000  0.50000000  0.75000000
   0.50000000  0.83333333  0.25000000
   0.50000000  0.83333333  0.75000000
   0.83333333  0.16666667  0.25000000
   0.83333333  0.16666667  0.75000000
   0.83333333  0.50000000  0.25000000
   0.83333333  0.50000000  0.75000000
   0.83333333  0.83333333  0.25000000
   0.83333333  0.83333333  0.75000000
 
 position of ions in cartesian coordinates  (Angst):
   0.00000000  0.00000000  0.00000000
   0.00000000  0.00000000  3.47663713
   0.00000000  2.75004939  0.00000000
   0.00000000  2.75004939  3.47663713
   0.00000000  5.50009878  0.00000000
   0.00000000  5.50009878  3.47663713
   2.75004939  0.00000000  0.00000000
   2.75004939  0.00000000  3.47663713
   2.75004939  2.75004939  0.00000000
   2.75004939  2.75004939  3.47663713
   2.75004939  5.50009878  0.00000000
   2.75004939  5.50009878  3.47663713
   5.50009878  0.00000000  0.00000000
   5.50009878  0.00000000  3.47663713
   5.50009878  2.75004939  0.00000000
   5.50009878  2.75004939  3.47663713
   5.50009878  5.50009878  0.00000000
   5.50009878  5.50009878  3.47663713
   1.37502469  1.37502469  1.73831857
   1.37502469  1.37502469  5.21495570
   1.37502469  4.12507408  1.73831857
   1.37502469  4.12507408  5.21495570
   1.37502469  6.87512347  1.73831857
   1.37502469  6.87512347  5.21495570
   4.12507408  1.37502469  1.73831857
   4.12507408  1.37502469  5.21495570
   4.12507408  4.12507408  1.73831857
   4.12507408  4.12507408  5.21495570
   4.12507408  6.87512347  1.73831857
   4.12507408  6.87512347  5.21495570
   6.87512347  1.37502469  1.73831857
   6.87512347  1.37502469  5.21495570
   6.87512347  4.12507408  1.73831857
   6.87512347  4.12507408  5.21495570
   6.87512347  6.87512347  1.73831857
   6.87512347  6.87512347  5.21495570
 


--------------------------------------------------------------------------------------------------------


 k-point  1 :   0.0000 0.0000 0.0000  plane waves:    8799
 k-point  2 :   0.2000 0.0000 0.0000  plane waves:    8753
 k-point  3 :   0.4000 0.0000 0.0000  plane waves:    8757
 k-point  4 :   0.0000 0.2000 0.0000  plane waves:    8753
 k-point  5 :   0.2000 0.2000 0.0000  plane waves:    8767
 k-point  6 :   0.4000 0.2000 0.0000  plane waves:    8761
 k-point  7 :  -0.4000 0.2000 0.0000  plane waves:    8761
 k-point  8 :  -0.2000 0.2000 0.0000  plane waves:    8767
 k-point  9 :   0.0000 0.4000 0.0000  plane waves:    8757
 k-point 10 :   0.2000 0.4000 0.0000  plane waves:    8761
 k-point 11 :   0.4000 0.4000 0.0000  plane waves:    8731
 k-point 12 :  -0.4000 0.4000 0.0000  plane waves:    8731
 k-point 13 :  -0.2000 0.4000 0.0000  plane waves:    8761
 k-point 14 :   0.0000 0.0000 0.1667  plane waves:    8763
 k-point 15 :   0.2000 0.0000 0.1667  plane waves:    8771
 k-point 16 :   0.4000 0.0000 0.1667  plane waves:    8747
 k-point 17 :   0.0000 0.2000 0.1667  plane waves:    8771
 k-point 18 :   0.2000 0.2000 0.1667  plane waves:    8764
 k-point 19 :   0.4000 0.2000 0.1667  plane waves:    8768
 k-point 20 :  -0.4000 0.2000 0.1667  plane waves:    8768
 k-point 21 :  -0.2000 0.2000 0.1667  plane waves:    8764
 k-point 22 :   0.0000 0.4000 0.1667  plane waves:    8747
 k-point 23 :   0.2000 0.4000 0.1667  plane waves:    8768
 k-point 24 :   0.4000 0.4000 0.1667  plane waves:    8740
 k-point 25 :  -0.4000 0.4000 0.1667  plane waves:    8740
 k-point 26 :  -0.2000 0.4000 0.1667  plane waves:    8768
 k-point 27 :   0.0000 0.0000 0.3333  plane waves:    8743
 k-point 28 :   0.2000 0.0000 0.3333  plane waves:    8736
 k-point 29 :   0.4000 0.0000 0.3333  plane waves:    8753
 k-point 30 :   0.0000 0.2000 0.3333  plane waves:    8736
 k-point 31 :   0.2000 0.2000 0.3333  plane waves:    8753
 k-point 32 :   0.4000 0.2000 0.3333  plane waves:    8743
 k-point 33 :  -0.4000 0.2000 0.3333  plane waves:    8743
 k-point 34 :  -0.2000 0.2000 0.3333  plane waves:    8753
 k-point 35 :   0.0000 0.4000 0.3333  plane waves:    8753
 k-point 36 :   0.2000 0.4000 0.3333  plane waves:    8743
 k-point 37 :   0.4000 0.4000 0.3333  plane waves:    8755
 k-point 38 :  -0.4000 0.4000 0.3333  plane waves:    8755
 k-point 39 :  -0.2000 0.4000 0.3333  plane waves:    8743
 k-point 40 :   0.0000 0.0000 0.5000  plane waves:    8742
 k-point 41 :   0.2000 0.0000 0.5000  plane waves:    8756
 k-point 42 :   0.4000 0.0000 0.5000  plane waves:    8744
 k-point 43 :   0.0000 0.2000 0.5000  plane waves:    8756
 k-point 44 :   0.2000 0.2000 0.5000  plane waves:    8762
 k-point 45 :   0.4000 0.2000 0.5000  plane waves:    8732
 k-point 46 :  -0.4000 0.2000 0.5000  plane waves:    8732
 k-point 47 :  -0.2000 0.2000 0.5000  plane waves:    8762
 k-point 48 :   0.0000 0.4000 0.5000  plane waves:    8744
 k-point 49 :   0.2000 0.4000 0.5000  plane waves:    8732
 k-point 50 :   0.4000 0.4000 0.5000  plane waves:    8736
 k-point 51 :  -0.4000 0.4000 0.5000  plane waves:    8736
 k-point 52 :  -0.2000 0.4000 0.5000  plane waves:    8732

 maximum and minimum number of plane-waves per node :      2210     2164

 maximum number of plane-waves:      8799
 maximum index in each direction: 
   IXMAX=   13   IYMAX=   13   IZMAX=   11
   IXMIN=  -13   IYMIN=  -13   IZMIN=  -11


 parallel 3D FFT for wavefunctions:
    minimum data exchange during FFTs selected (reduces bandwidth)
 parallel 3D FFT for charge:
    minimum data exchange during FFTs selected (reduces bandwidth)


 total amount of memory used by VASP MPI-rank0   740218. kBytes
=======================================================================

   base      :      30000. kBytes
   nonl-proj :      34307. kBytes
   fftplans  :      21726. kBytes
   grid      :      14732. kBytes
   one-center:        279. kBytes
   wavefun   :     639174. kBytes
 
     INWAV:  cpu time    0.0001: real time    0.0001
 Broyden mixing: mesh for mixing (old mesh)
   NGX = 27   NGY = 27   NGZ = 23
  (NGX  =108   NGY  =108   NGZ  = 96)
  gives a total of  16767 points

 initial charge density was supplied:
 charge density of overlapping atoms calculated
 number of electron     180.0000000 magnetization       0.0000000
 keeping initial charge density in first step


--------------------------------------------------------------------------------------------------------


 Maximum index for augmentation-charges        11261 (set IRDMAX)


--------------------------------------------------------------------------------------------------------


 First call to EWALD:  gamma=   0.227
 Maximum number of real-space cells 3x 3x 3
 Maximum number of reciprocal cells 3x 3x 3

    FEWALD:  cpu time    0.0021: real time    0.0021


--------------------------------------- Iteration      1(   1)  ---------------------------------------


    POTLOK:  cpu time    0.2512: real time    0.2522
    SETDIJ:  cpu time    0.3181: real time    0.3189
    TRIAL :  cpu time   18.3472: real time   18.4827
    CORREC:  cpu time    0.0063: real time    0.0064
    --------------------------------------------
      LOOP:  cpu time   19.1387: real time   19.2827

 eigenvalue-minimisations  : 22880
 total energy-change (2. order) : 0.1352035E+04  (-0.5847732E+04)
 number of electron     180.0000000 magnetization       0.0000000
 augmentation part      180.0000000 magnetization       0.0000000

 Free energy of the ion-electron system (eV)
  ---------------------------------------------------
  alpha Z        PSCENC =       532.25742704
  Ewald energy   TEWEN  =     -8601.05107233
  -Hartree energ DENC   =     -1903.73857242
  -exchange      EXHF   =         0.00000000
  -V(xc)+E(xc)   XCENC  =      -664.80991434
  PAW double counting   =      8494.55058411    -7650.81563588
  entropy T*S    EENTRO =        -0.00113267
  eigenvalues    EBANDS =      2680.52698116
  atomic energy  EATOM  =      8465.11600846
  ---------------------------------------------------
  free energy    TOTEN  =      1352.03467314 eV

  energy without entropy =     1352.03580581  energy(sigma->0) =     1352.03505070


--------------------------------------------------------------------------------------------------------




--------------------------------------- Iteration      1(   2)  ---------------------------------------


    TRIAL :  cpu time   18.2632: real time   18.4056
    CORREC:  cpu time    0.0083: real time    0.0084
    --------------------------------------------
      LOOP:  cpu time   18.2728: real time   18.4173

 eigenvalue-minimisations  : 22880
 total energy-change (2. order) :-0.1408405E+04  (-0.1378986E+04)
 number of electron     180.0000000 magnetization       0.0000000
 augmentation part      180.0000000 magnetization       0.0000000

 Free energy of the ion-electron system (eV)
  ---------------------------------------------------
  alpha Z        PSCENC =       532.25742704
  Ewald energy   TEWEN  =     -8601.05107233
  -Hartree energ DENC   =     -1903.73857242
  -exchange      EXHF   =         0.00000000
  -V(xc)+E(xc)   XCENC  =      -664.80991434
  PAW double counting   =      8494.55058411    -7650.81563588
  entropy T*S    EENTRO =         0.00212579
  eigenvalues    EBANDS =      1272.11896221
  atomic energy  EATOM  =      8465.11600846
  ---------------------------------------------------
  free energy    TOTEN  =       -56.37008736 eV

  energy without entropy =      -56.37221315  energy(sigma->0) =      -56.37079595


--------------------------------------------------------------------------------------------------------




--------------------------------------- Iteration      1(   3)  ---------------------------------------


    TRIAL :  cpu time   25.3841: real time   26.2558
    CORREC:  cpu time    0.0091: real time    0.0100
    --------------------------------------------
      LOOP:  cpu time   25.3945: real time   26.2695

 eigenvalue-minimisations  : 35016
 total energy-change (2. order) :-0.1808342E+03  (-0.1636515E+03)
 number of electron     180.0000000 magnetization       0.0000000
 augmentation part      180.0000000 magnetization       0.0000000

 Free energy of the ion-electron system (eV)
  ---------------------------------------------------
  alpha Z        PSCENC =       532.25742704
  Ewald energy   TEWEN  =     -8601.05107233
  -Hartree energ DENC   =     -1903.73857242
  -exchange      EXHF   =         0.00000000
  -V(xc)+E(xc)   XCENC  =      -664.80991434
  PAW double counting   =      8494.55058411    -7650.81563588
  entropy T*S    EENTRO =        -0.00175834
  eigenvalues    EBANDS =      1091.28867722
  atomic energy  EATOM  =      8465.11600846
  ---------------------------------------------------
  free energy    TOTEN  =      -237.20425647 eV

  energy without entropy =     -237.20249814  energy(sigma->0) =     -237.20367036


--------------------------------------------------------------------------------------------------------




--------------------------------------- Iteration      1(   4)  ---------------------------------------


    TRIAL :  cpu time   26.7929: real time   26.9988
    CORREC:  cpu time    0.0101: real time    0.0102
    --------------------------------------------
      LOOP:  cpu time   26.8037: real time   27.0125

 eigenvalue-minimisations  : 37392
 total energy-change (2. order) :-0.2908016E+02  (-0.2613008E+02)
 number of electron     180.0000000 magnetization       0.0000000
 augmentation part      180.0000000 magnetization       0.0000000

 Free energy of the ion-electron system (eV)
  ---------------------------------------------------
  alpha Z        PSCENC =       532.25742704
  Ewald energy   TEWEN  =     -8601.05107233
  -Hartree energ DENC   =     -1903.73857242
  -exchange      EXHF   =         0.00000000
  -V(xc)+E(xc)   XCENC  =      -664.80991434
  PAW double counting   =      8494.55058411    -7650.81563588
  entropy T*S    EENTRO =         0.00187950
  eigenvalues    EBANDS =      1062.20487608
  atomic energy  EATOM  =      8465.11600846
  ---------------------------------------------------
  free energy    TOTEN  =      -266.28441977 eV

  energy without entropy =     -266.28629927  energy(sigma->0) =     -266.28504627


--------------------------------------------------------------------------------------------------------




--------------------------------------- Iteration      1(   5)  ---------------------------------------


    TRIAL :  cpu time   27.4680: real time   28.4499
    CORREC:  cpu time    0.0101: real time    0.0109
    --------------------------------------------
      LOOP:  cpu time   27.4795: real time   28.4644

 eigenvalue-minimisations  : 38504
 total energy-change (2. order) :-0.3326823E+01  (-0.3165861E+01)
 number of electron     180.0000000 magnetization       0.0000000
 augmentation part      180.0000000 magnetization       0.0000000

 Free energy of the ion-electron system (eV)
  ---------------------------------------------------
  alpha Z        PSCENC =       532.25742704
  Ewald energy   TEWEN  =     -8601.05107233
  -Hartree energ DENC   =     -1903.73857242
  -exchange      EXHF   =         0.00000000
  -V(xc)+E(xc)   XCENC  =      -664.80991434
  PAW double counting   =      8494.55058411    -7650.81563588
  entropy T*S    EENTRO =         0.00720049
  eigenvalues    EBANDS =      1058.87273235
  atomic energy  EATOM  =      8465.11600846
  ---------------------------------------------------
  free energy    TOTEN  =      -269.61124252 eV

  energy without entropy =     -269.61844301  energy(sigma->0) =     -269.61364268


--------------------------------------------------------------------------------------------------------




--------------------------------------- Iteration      1(   6)  ---------------------------------------


    TRIAL :  cpu time   27.3071: real time   27.4879
    CORREC:  cpu time    0.0219: real time    0.0232
    --------------------------------------------
      LOOP:  cpu time   27.3298: real time   27.5144

 eigenvalue-minimisations  : 38208
 total energy-change (2. order) :-0.2964963E+00  (-0.2873777E+00)
 number of electron     180.0000000 magnetization       0.0000000
 augmentation part      180.0000000 magnetization       0.0000000

 Free energy of the ion-electron system (eV)
  ---------------------------------------------------
  alpha Z        PSCENC =       532.25742704
  Ewald energy   TEWEN  =     -8601.05107233
  -Hartree energ DENC   =     -1903.73857242
  -exchange      EXHF   =         0.00000000
  -V(xc)+E(xc)   XCENC  =      -664.80991434
  PAW double counting   =      8494.55058411    -7650.81563588
  entropy T*S    EENTRO =         0.00847167
  eigenvalues    EBANDS =      1058.57496488
  atomic energy  EATOM  =      8465.11600846
  ---------------------------------------------------
  free energy    TOTEN  =      -269.90773881 eV

  energy without entropy =     -269.91621048  energy(sigma->0) =     -269.91056270


--------------------------------------------------------------------------------------------------------




--------------------------------------- Iteration      1(   7)  ---------------------------------------


    TRIAL :  cpu time   27.7758: real time   28.6131
    CORREC:  cpu time    0.0103: real time    0.0103
    --------------------------------------------
      LOOP:  cpu time   27.7889: real time   28.6269

 eigenvalue-minimisations  : 39152
 total energy-change (2. order) :-0.3616798E-01  (-0.3546136E-01)
 number of electron     180.0000000 magnetization       0.0000000
 augmentation part      180.0000000 magnetization       0.0000000

 Free energy of the ion-electron system (eV)
  ---------------------------------------------------
  alpha Z        PSCENC =       532.25742704
  Ewald energy   TEWEN  =     -8601.05107233
  -Hartree energ DENC   =     -1903.73857242
  -exchange      EXHF   =         0.00000000
  -V(xc)+E(xc)   XCENC  =      -664.80991434
  PAW double counting   =      8494.55058411    -7650.81563588
  entropy T*S    EENTRO =         0.00890211
  eigenvalues    EBANDS =      1058.53836646
  atomic energy  EATOM  =      8465.11600846
  ---------------------------------------------------
  free energy    TOTEN  =      -269.94390679 eV

  energy without entropy =     -269.95280890  energy(sigma->0) =     -269.94687416


--------------------------------------------------------------------------------------------------------




--------------------------------------- Iteration      1(   8)  ---------------------------------------


    TRIAL :  cpu time   26.9171: real time   27.1463
    CORREC:  cpu time    0.0106: real time    0.0115
    CHARGE:  cpu time    1.1054: real time    1.1053
    --------------------------------------------
      LOOP:  cpu time   28.0351: real time   28.2667

 eigenvalue-minimisations  : 37416
 total energy-change (2. order) :-0.4099413E-02  (-0.4037331E-02)
 number of electron     179.9999997 magnetization      -0.0821374
 augmentation part       42.4947346 magnetization      -0.0367699

 Free energy of the ion-electron system (eV)
  ---------------------------------------------------
  alpha Z        PSCENC =       532.25742704
  Ewald energy   TEWEN  =     -8601.05107233
  -Hartree energ DENC   =     -1903.73857242
  -exchange      EXHF   =         0.00000000
  -V(xc)+E(xc)   XCENC  =      -664.80991434
  PAW double counting   =      8494.55058411    -7650.81563588
  entropy T*S    EENTRO =         0.00914612
  eigenvalues    EBANDS =      1058.53402303
  atomic energy  EATOM  =      8465.11600846
  ---------------------------------------------------
  free energy    TOTEN  =      -269.94800620 eV

  energy without entropy =     -269.95715233  energy(sigma->0) =     -269.95105491


--------------------------------------------------------------------------------------------------------




--------------------------------------- Iteration      1(   9)  ---------------------------------------


    POTLOK:  cpu time    0.2519: real time    0.2519
    SETDIJ:  cpu time    0.3282: real time    0.3282
    TRIAL :  cpu time    9.0874: real time    9.2053
    CORREC:  cpu time    3.3868: real time    3.3971
    CHARGE:  cpu time    1.0620: real time    1.0621
    --------------------------------------------
      LOOP:  cpu time   14.1195: real time   14.2497

 eigenvalue-minimisations  :     0
 total energy-change (2. order) : 0.2095300E+03  (-0.1445528E+03)
 number of electron     179.9999997 magnetization      -0.0999591
 augmentation part       53.9560869 magnetization      -0.0474209

 Free energy of the ion-electron system (eV)
  ---------------------------------------------------
  alpha Z        PSCENC =       532.25742704
  Ewald energy   TEWEN  =     -8601.05107233
  -Hartree energ DENC   =      -838.33064628
  -exchange      EXHF   =         0.00000000
  -V(xc)+E(xc)   XCENC  =      -694.82256855
  PAW double counting   =     12742.82233320   -11795.65066667
  entropy T*S    EENTRO =        -0.01812699
  eigenvalues    EBANDS =       129.23201436
  atomic energy  EATOM  =      8465.11600846
  ---------------------------------------------------
  free energy    TOTEN  =       -60.41802465 eV

  energy without entropy =      -60.39989765  energy(sigma->0) =      -60.41198231


--------------------------------------------------------------------------------------------------------




--------------------------------------- Iteration      1(  10)  ---------------------------------------


    POTLOK:  cpu time    0.2480: real time    0.2479
    SETDIJ:  cpu time    0.3208: real time    0.3208
    TRIAL :  cpu time    9.7552: real time    9.7662
    CORREC:  cpu time    3.4279: real time    4.1777
    CHARGE:  cpu time    1.0830: real time    1.0829
    --------------------------------------------
      LOOP:  cpu time   14.8388: real time   15.6006

 eigenvalue-minimisations  :     0
 total energy-change (2. order) :-0.1454683E+03  (-0.1117027E+02)
 number of electron     179.9999996 magnetization      -0.0919230
 augmentation part       57.4494906 magnetization      -0.0491722

 Free energy of the ion-electron system (eV)
  ---------------------------------------------------
  alpha Z        PSCENC =       532.25742704
  Ewald energy   TEWEN  =     -8601.05107233
  -Hartree energ DENC   =     -1350.80083334
  -exchange      EXHF   =         0.00000000
  -V(xc)+E(xc)   XCENC  =      -677.47165215
  PAW double counting   =     13532.78658717   -12697.34591933
  entropy T*S    EENTRO =        -0.02473962
  eigenvalues    EBANDS =       590.64123474
  atomic energy  EATOM  =      8465.11600846
  ---------------------------------------------------
  free energy    TOTEN  =      -205.88634674 eV

  energy without entropy =     -205.86160713  energy(sigma->0) =     -205.87810021


--------------------------------------------------------------------------------------------------------




--------------------------------------- Iteration      1(  11)  ---------------------------------------


    POTLOK:  cpu time    0.2474: real time    0.2482
    SETDIJ:  cpu time    0.3225: real time    0.3225
    TRIAL :  cpu time    9.1248: real time    9.2924
    CORREC:  cpu time    3.3018: real time    3.4191
    CHARGE:  cpu time    1.0813: real time    1.0814
    --------------------------------------------
      LOOP:  cpu time   14.0843: real time   14.3714

 eigenvalue-minimisations  :     0
 total energy-change (2. order) :-0.1122488E+02  (-0.8143048E+01)
 number of electron     179.9999996 magnetization      -0.1509130
 augmentation part       59.0943031 magnetization      -0.0845754

 Free energy of the ion-electron system (eV)
  ---------------------------------------------------
  alpha Z        PSCENC =       532.25742704
  Ewald energy   TEWEN  =     -8601.05107233
  -Hartree energ DENC   =     -1545.86692164
  -exchange      EXHF   =         0.00000000
  -V(xc)+E(xc)   XCENC  =      -670.40014965
  PAW double counting   =     14364.19683613   -13565.28338790
  entropy T*S    EENTRO =        -0.01968692
  eigenvalues    EBANDS =       803.94477241
  atomic energy  EATOM  =      8465.11600846
  ---------------------------------------------------
  free energy    TOTEN  =      -217.11122711 eV

  energy without entropy =     -217.09154018  energy(sigma->0) =     -217.10466480


--------------------------------------------------------------------------------------------------------




--------------------------------------- Iteration      1(  12)  ---------------------------------------


    POTLOK:  cpu time    0.2488: real time    0.2488
    SETDIJ:  cpu time    0.3198: real time    0.3256
    TRIAL :  cpu time    9.0374: real time    9.0504
    CORREC:  cpu time    3.4413: real time    3.4597
    CHARGE:  cpu time    1.0765: real time    1.0846
    --------------------------------------------
      LOOP:  cpu time   14.1288: real time   14.1742

 eigenvalue-minimisations  :     0
 total energy-change (2. order) :-0.8170660E+01  (-0.7544732E+01)
 number of electron     179.9999996 magnetization      -0.1161276
 augmentation part       58.4014266 magnetization      -0.0673095

 Free energy of the ion-electron system (eV)
  ---------------------------------------------------
  alpha Z        PSCENC =       532.25742704
  Ewald energy   TEWEN  =     -8601.05107233
  -Hartree energ DENC   =     -1686.97818437
  -exchange      EXHF   =         0.00000000
  -V(xc)+E(xc)   XCENC  =      -665.64295319
  PAW double counting   =     14479.74019420   -13686.77158062
  entropy T*S    EENTRO =        -0.00831321
  eigenvalues    EBANDS =       938.06796094
  atomic energy  EATOM  =      8465.11600846
  ---------------------------------------------------
  free energy    TOTEN  =      -225.28188680 eV

  energy without entropy =     -225.27357359  energy(sigma->0) =     -225.27911573


--------------------------------------------------------------------------------------------------------




--------------------------------------- Iteration      1(  13)  ---------------------------------------


    POTLOK:  cpu time    0.2473: real time    0.2473
    SETDIJ:  cpu time    0.3237: real time    0.3237
    TRIAL :  cpu time    9.0143: real time    9.1151
    CORREC:  cpu time    3.3613: real time    3.3619
    CHARGE:  cpu time    1.0748: real time    1.0901
    --------------------------------------------
      LOOP:  cpu time   14.0247: real time   14.1420

 eigenvalue-minimisations  :     0
 total energy-change (2. order) :-0.7440779E+01  (-0.1149041E+01)
 number of electron     179.9999997 magnetization      -0.1352919
 augmentation part       57.3988151 magnetization      -0.0778004

 Free energy of the ion-electron system (eV)
  ---------------------------------------------------
  alpha Z        PSCENC =       532.25742704
  Ewald energy   TEWEN  =     -8601.05107233
  -Hartree energ DENC   =     -1708.69694607
  -exchange      EXHF   =         0.00000000
  -V(xc)+E(xc)   XCENC  =      -665.17408374
  PAW double counting   =     14223.69486798   -13406.21486495
  entropy T*S    EENTRO =        -0.00411218
  eigenvalues    EBANDS =       927.35431059
  atomic energy  EATOM  =      8465.11600846
  ---------------------------------------------------
  free energy    TOTEN  =      -232.72266623 eV

  energy without entropy =     -232.71855405  energy(sigma->0) =     -232.72129550


--------------------------------------------------------------------------------------------------------




--------------------------------------- Iteration      1(  14)  ---------------------------------------


    POTLOK:  cpu time    0.2486: real time    0.2486
    SETDIJ:  cpu time    0.3241: real time    0.3241
    TRIAL :  cpu time    9.8036: real time    9.8166
    CORREC:  cpu time    3.3965: real time    4.0593
    CHARGE:  cpu time    1.0688: real time    1.0687
    --------------------------------------------
      LOOP:  cpu time   14.8427: real time   15.5188

 eigenvalue-minimisations  :     0
 total energy-change (2. order) :-0.1138160E+01  (-0.7567307E+00)
 number of electron     179.9999997 magnetization      -0.1351472
 augmentation part       57.2271225 magnetization      -0.0737201

 Free energy of the ion-electron system (eV)
  ---------------------------------------------------
  alpha Z        PSCENC =       532.25742704
  Ewald energy   TEWEN  =     -8601.05107233
  -Hartree energ DENC   =     -1658.99049081
  -exchange      EXHF   =         0.00000000
  -V(xc)+E(xc)   XCENC  =      -667.00706904
  PAW double counting   =     13911.88006926   -13079.47384006
  entropy T*S    EENTRO =        -0.00130723
  eigenvalues    EBANDS =       863.41225387
  atomic energy  EATOM  =      8465.11600846
  ---------------------------------------------------
  free energy    TOTEN  =      -233.86082579 eV

  energy without entropy =     -233.85951856  energy(sigma->0) =     -233.86039005


--------------------------------------------------------------------------------------------------------




--------------------------------------- Iteration      1(  15)  ---------------------------------------


    POTLOK:  cpu time    0.2770: real time    0.2770
    SETDIJ:  cpu time    0.3313: real time    0.3313
    TRIAL :  cpu time    9.0363: real time    9.2019
    CORREC:  cpu time    3.3911: real time    3.4490
    CHARGE:  cpu time    1.1164: real time    1.1165
    --------------------------------------------
      LOOP:  cpu time   14.1710: real time   14.3946

 eigenvalue-minimisations  :     0
 total energy-change (2. order) :-0.7554354E+00  (-0.5790500E+00)
 number of electron     179.9999996 magnetization      -0.1258912
 augmentation part       57.6369056 magnetization      -0.0698943

 Free energy of the ion-electron system (eV)
  ---------------------------------------------------
  alpha Z        PSCENC =       532.25742704
  Ewald energy   TEWEN  =     -8601.05107233
  -Hartree energ DENC   =     -1641.07079533
  -exchange      EXHF   =         0.00000000
  -V(xc)+E(xc)   XCENC  =      -667.58018568
  PAW double counting   =     13422.07373407   -12584.67648699
  entropy T*S    EENTRO =         0.00235300
  eigenvalues    EBANDS =       840.31641681
  atomic energy  EATOM  =      8465.11600846
  ---------------------------------------------------
  free energy    TOTEN  =      -234.61626118 eV

  energy without entropy =     -234.61861418  energy(sigma->0) =     -234.61704552


--------------------------------------------------------------------------------------------------------




--------------------------------------- Iteration      1(  16)  ---------------------------------------


    POTLOK:  cpu time    0.2490: real time    0.2490
    SETDIJ:  cpu time    0.3067: real time    0.3280
    TRIAL :  cpu time    9.0660: real time    9.0866
    CORREC:  cpu time    3.4375: real time    3.4560
    CHARGE:  cpu time    1.0883: real time    1.0887
    --------------------------------------------
      LOOP:  cpu time   14.1494: real time   14.2111

 eigenvalue-minimisations  :     0
 total energy-change (2. order) :-0.5738491E+00  (-0.1890339E+00)
 number of electron     179.9999996 magnetization      -0.1695275
 augmentation part       58.0467682 magnetization      -0.0905517

 Free energy of the ion-electron system (eV)
  ---------------------------------------------------
  alpha Z        PSCENC =       532.25742704
  Ewald energy   TEWEN  =     -8601.05107233
  -Hartree energ DENC   =     -1652.89939888
  -exchange      EXHF   =         0.00000000
  -V(xc)+E(xc)   XCENC  =      -667.02798387
  PAW double counting   =     13088.55712023   -12253.52058488
  entropy T*S    EENTRO =         0.00437828
  eigenvalues    EBANDS =       853.37602090
  atomic energy  EATOM  =      8465.11600846
  ---------------------------------------------------
  free energy    TOTEN  =      -235.19011033 eV

  energy without entropy =     -235.19448861  energy(sigma->0) =     -235.19156976


--------------------------------------------------------------------------------------------------------




--------------------------------------- Iteration      1(  17)  ---------------------------------------


    POTLOK:  cpu time    0.2480: real time    0.2480
    SETDIJ:  cpu time    0.3227: real time    0.3227
    TRIAL :  cpu time    8.9989: real time    9.1039
    CORREC:  cpu time    3.3684: real time    3.3931
    CHARGE:  cpu time    1.0760: real time    1.0761
    --------------------------------------------
      LOOP:  cpu time   14.0161: real time   14.1462

 eigenvalue-minimisations  :     0
 total energy-change (2. order) :-0.1893156E+00  (-0.1636260E+00)
 number of electron     179.9999996 magnetization      -0.1235094
 augmentation part       58.2480937 magnetization      -0.0701538

 Free energy of the ion-electron system (eV)
  ---------------------------------------------------
  alpha Z        PSCENC =       532.25742704
  Ewald energy   TEWEN  =     -8601.05107233
  -Hartree energ DENC   =     -1670.76721783
  -exchange      EXHF   =         0.00000000
  -V(xc)+E(xc)   XCENC  =      -666.27505564
  PAW double counting   =     13017.47115853   -12186.60018351
  entropy T*S    EENTRO =         0.00522224
  eigenvalues    EBANDS =       874.46513110
  atomic energy  EATOM  =      8465.11600846
  ---------------------------------------------------
  free energy    TOTEN  =      -235.37942591 eV

  energy without entropy =     -235.38464815  energy(sigma->0) =     -235.38116666


--------------------------------------------------------------------------------------------------------




--------------------------------------- Iteration      1(  18)  ---------------------------------------


    POTLOK:  cpu time    0.2478: real time    0.2478
    SETDIJ:  cpu time    0.3249: real time    0.3249
    TRIAL :  cpu time    9.7815: real time    9.7922
    CORREC:  cpu time    3.3432: real time    3.3632
    CHARGE:  cpu time    1.0713: real time    1.0859
    --------------------------------------------
      LOOP:  cpu time   14.7954: real time   14.8414

 eigenvalue-minimisations  :     0
 total energy-change (2. order) :-0.1635850E+00  (-0.1594282E+00)
 number of electron     179.9999996 magnetization      -0.1749017
 augmentation part       58.0985979 magnetization      -0.0976958

 Free energy of the ion-electron system (eV)
  ---------------------------------------------------
  alpha Z        PSCENC =       532.25742704
  Ewald energy   TEWEN  =     -8601.05107233
  -Hartree energ DENC   =     -1678.46273098
  -exchange      EXHF   =         0.00000000
  -V(xc)+E(xc)   XCENC  =      -665.81656601
  PAW double counting   =     12980.13646755   -12151.59250555
  entropy T*S    EENTRO =         0.00640785
  eigenvalues    EBANDS =       883.86473867
  atomic energy  EATOM  =      8465.11600846
  ---------------------------------------------------
  free energy    TOTEN  =      -235.54301092 eV

  energy without entropy =     -235.54941877  energy(sigma->0) =     -235.54514687


--------------------------------------------------------------------------------------------------------




--------------------------------------- Iteration      1(  19)  ---------------------------------------


    POTLOK:  cpu time    0.2557: real time    0.2641
    SETDIJ:  cpu time    0.3773: real time    1.0811
    TRIAL :  cpu time    9.0199: real time    9.1867
    CORREC:  cpu time    3.4172: real time    3.4267
    CHARGE:  cpu time    1.0724: real time    1.1293
    --------------------------------------------
      LOOP:  cpu time   14.1461: real time   15.0916

 eigenvalue-minimisations  :     0
 total energy-change (2. order) :-0.1589957E+00  (-0.5083910E-01)
 number of electron     179.9999996 magnetization      -0.1646049
 augmentation part       57.9118855 magnetization      -0.0949173

 Free energy of the ion-electron system (eV)
  ---------------------------------------------------
  alpha Z        PSCENC =       532.25742704
  Ewald energy   TEWEN  =     -8601.05107233
  -Hartree energ DENC   =     -1668.58826201
  -exchange      EXHF   =         0.00000000
  -V(xc)+E(xc)   XCENC  =      -665.96333152
  PAW double counting   =     12949.56364038   -12119.65892546
  entropy T*S    EENTRO =         0.00569297
  eigenvalues    EBANDS =       872.61610101
  atomic energy  EATOM  =      8465.11600846
  ---------------------------------------------------
  free energy    TOTEN  =      -235.70200657 eV

  energy without entropy =     -235.70769953  energy(sigma->0) =     -235.70390422


--------------------------------------------------------------------------------------------------------




--------------------------------------- Iteration      1(  20)  ---------------------------------------


    POTLOK:  cpu time    0.2485: real time    0.2491
    SETDIJ:  cpu time    0.3235: real time    0.3235
    TRIAL :  cpu time    8.9951: real time    9.0386
    CORREC:  cpu time    3.4084: real time    3.4121
    CHARGE:  cpu time    1.1589: real time    1.1829
    --------------------------------------------
      LOOP:  cpu time   14.1357: real time   14.2082

 eigenvalue-minimisations  :     0
 total energy-change (2. order) :-0.5068101E-01  (-0.6282374E-01)
 number of electron     179.9999996 magnetization      -0.1838041
 augmentation part       57.7592015 magnetization      -0.1056629

 Free energy of the ion-electron system (eV)
  ---------------------------------------------------
  alpha Z        PSCENC =       532.25742704
  Ewald energy   TEWEN  =     -8601.05107233
  -Hartree energ DENC   =     -1659.24791498
  -exchange      EXHF   =         0.00000000
  -V(xc)+E(xc)   XCENC  =      -666.22465433
  PAW double counting   =     12938.48150928   -12106.70994840
  entropy T*S    EENTRO =         0.00594107
  eigenvalues    EBANDS =       861.62026473
  atomic energy  EATOM  =      8465.11600846
  ---------------------------------------------------
  free energy    TOTEN  =      -235.75268758 eV

  energy without entropy =     -235.75862865  energy(sigma->0) =     -235.75466793


--------------------------------------------------------------------------------------------------------




--------------------------------------- Iteration      1(  21)  ---------------------------------------


    POTLOK:  cpu time    0.2502: real time    0.2502
    SETDIJ:  cpu time    0.3206: real time    0.3206
    TRIAL :  cpu time    8.9998: real time    9.0454
    CORREC:  cpu time    3.3646: real time    3.4167
    CHARGE:  cpu time    1.0665: real time    1.0666
    --------------------------------------------
      LOOP:  cpu time   14.0036: real time   14.1024

 eigenvalue-minimisations  :     0
 total energy-change (2. order) :-0.6282940E-01  (-0.6103587E-01)
 number of electron     179.9999996 magnetization      -0.1843693
 augmentation part       57.8296100 magnetization      -0.1077015

 Free energy of the ion-electron system (eV)
  ---------------------------------------------------
  alpha Z        PSCENC =       532.25742704
  Ewald energy   TEWEN  =     -8601.05107233
  -Hartree energ DENC   =     -1653.64278334
  -exchange      EXHF   =         0.00000000
  -V(xc)+E(xc)   XCENC  =      -666.33212172
  PAW double counting   =     12941.59018736   -12108.51955962
  entropy T*S    EENTRO =         0.00475598
  eigenvalues    EBANDS =       854.76045610
  atomic energy  EATOM  =      8465.11600846
  ---------------------------------------------------
  free energy    TOTEN  =      -235.81551698 eV

  energy without entropy =     -235.82027297  energy(sigma->0) =     -235.81710231


--------------------------------------------------------------------------------------------------------




--------------------------------------- Iteration      1(  22)  ---------------------------------------


    POTLOK:  cpu time    0.2472: real time    0.2471
    SETDIJ:  cpu time    0.3760: real time    0.3760
    TRIAL :  cpu time    9.7537: real time    9.7634
    CORREC:  cpu time    3.3289: real time    3.3305
    CHARGE:  cpu time    1.0796: real time    1.0910
    --------------------------------------------
      LOOP:  cpu time   14.8123: real time   14.8355

 eigenvalue-minimisations  :     0
 total energy-change (2. order) :-0.6100944E-01  (-0.1942426E-01)
 number of electron     179.9999996 magnetization      -0.1995302
 augmentation part       57.9240440 magnetization      -0.1151988

 Free energy of the ion-electron system (eV)
  ---------------------------------------------------
  alpha Z        PSCENC =       532.25742704
  Ewald energy   TEWEN  =     -8601.05107233
  -Hartree energ DENC   =     -1660.29203650
  -exchange      EXHF   =         0.00000000
  -V(xc)+E(xc)   XCENC  =      -665.99735240
  PAW double counting   =     12970.35533862   -12138.50877676
  entropy T*S    EENTRO =         0.00497629
  eigenvalues    EBANDS =       862.23918147
  atomic energy  EATOM  =      8465.11600846
  ---------------------------------------------------
  free energy    TOTEN  =      -235.87652642 eV

  energy without entropy =     -235.88150271  energy(sigma->0) =     -235.87818518


--------------------------------------------------------------------------------------------------------




--------------------------------------- Iteration      1(  23)  ---------------------------------------


    POTLOK:  cpu time    0.2478: real time    0.2478
    SETDIJ:  cpu time    0.3209: real time    0.3209
    TRIAL :  cpu time    9.0569: real time    9.9279
    CORREC:  cpu time    3.3599: real time    3.3818
    CHARGE:  cpu time    1.0666: real time    1.0667
    --------------------------------------------
[...]
  8.438  14.380   0.000  -0.000  -0.000   0.000  -0.001  -0.001
 14.380  24.506   0.000  -0.000  -0.000   0.000  -0.001  -0.001
  0.000   0.000   1.996   0.000   0.000   5.748   0.000   0.000
 -0.000  -0.000   0.000   1.995  -0.000   0.000   5.747  -0.000
 -0.000  -0.000   0.000  -0.000   1.996   0.000  -0.000   5.748
  0.000   0.000   5.748   0.000   0.000  16.473   0.000   0.000
 -0.001  -0.001   0.000   5.747  -0.000   0.000  16.469  -0.000
 -0.001  -0.001   0.000  -0.000   5.748   0.000  -0.000  16.473
 total augmentation occupancy for first ion, spin component:           1
  4.372  -1.249   0.000   0.000  -0.004  -0.000  -0.000   0.000
 -1.249   0.376  -0.001   0.002   0.004   0.000  -0.000  -0.000
  0.000  -0.001   1.420   0.004   0.000  -0.101  -0.000  -0.000
  0.000   0.002   0.004   1.497   0.006  -0.000  -0.101  -0.000
 -0.004   0.004   0.000   0.006   1.413  -0.000  -0.000  -0.101
 -0.000   0.000  -0.101  -0.000  -0.000   0.008  -0.000   0.000
 -0.000  -0.000  -0.000  -0.101  -0.000  -0.000   0.007   0.000
  0.000  -0.000  -0.000  -0.000  -0.101   0.000   0.000   0.008
 total augmentation occupancy for first ion, spin component:           2
 -0.012   0.004  -0.036   0.001  -0.003   0.001   0.000  -0.000
  0.004  -0.002  -0.004   0.001  -0.002   0.000  -0.000   0.000
 -0.036  -0.004  -0.003  -0.045  -0.029   0.000   0.001   0.000
  0.001   0.001  -0.045  -0.006   0.000   0.001   0.000  -0.000
 -0.003  -0.002  -0.029   0.000  -0.005   0.000  -0.000   0.000
  0.001   0.000   0.000   0.001   0.000  -0.000   0.000   0.000
  0.000  -0.000   0.001   0.000  -0.000   0.000  -0.000  -0.000
 -0.000   0.000   0.000  -0.000   0.000   0.000  -0.000  -0.000


------------------------ aborting loop because EDIFF is reached ----------------------------------------


 


 total charge     
 
# of ion       s       p       d       tot
------------------------------------------
    1        0.405   0.428   0.000   0.833
    2        0.405   0.428   0.000   0.833
    3        0.406   0.425   0.000   0.830
    4        0.405   0.425   0.000   0.830
    5        0.405   0.428   0.000   0.833
    6        0.404   0.429   0.000   0.833
    7        0.404   0.428   0.000   0.832
    8        0.405   0.428   0.000   0.832
    9        0.406   0.425   0.000   0.830
   10        0.405   0.424   0.000   0.830
   11        0.404   0.431   0.000   0.834
   12        0.404   0.430   0.000   0.834
   13        0.407   0.427   0.000   0.834
   14        0.407   0.427   0.000   0.834
   15        0.406   0.426   0.000   0.832
   16        0.406   0.426   0.000   0.832
   17        0.405   0.424   0.000   0.829
   18        0.405   0.424   0.000   0.829
   19        0.336   0.354   5.132   5.822
   20        0.336   0.355   5.127   5.819
   21        0.338   0.354   5.128   5.820
   22        0.338   0.358   5.120   5.816
   23        0.339   0.355   5.121   5.814
   24        0.338   0.360   5.114   5.812
   25        0.331   0.357   5.140   5.827
   26        0.333   0.358   5.124   5.815
   27        0.337   0.354   5.128   5.819
   28        0.336   0.356   5.131   5.823
   29        0.335   0.360   5.123   5.818
   30        0.338   0.352   5.128   5.818
   31        0.332   0.356   5.134   5.822
   32        0.332   0.356   5.134   5.822
   33        0.336   0.355   5.128   5.819
   34        0.336   0.353   5.129   5.819
   35        0.333   0.358   5.124   5.815
   36        0.331   0.356   5.145   5.831
--------------------------------------------------
tot         13.329  14.087  92.309 119.725
 


 magnetization (x)
 
# of ion       s       p       d       tot
------------------------------------------
    1       -0.001  -0.001   0.000  -0.003
    2       -0.001  -0.002   0.000  -0.003
    3       -0.002  -0.008   0.000  -0.010
    4       -0.002  -0.008   0.000  -0.010
    5        0.004   0.009   0.000   0.012
    6        0.004   0.009   0.000   0.012
    7       -0.005  -0.010   0.000  -0.016
    8       -0.005  -0.010   0.000  -0.015
    9       -0.004  -0.009   0.000  -0.014
   10       -0.004  -0.010   0.000  -0.014
   11        0.000   0.000   0.000   0.000
   12       -0.000   0.000   0.000   0.000
   13       -0.002  -0.006   0.000  -0.008
   14       -0.002  -0.006   0.000  -0.008
   15        0.006   0.016   0.000   0.021
   16        0.006   0.015   0.000   0.021
   17        0.006   0.011   0.000   0.017
   18        0.006   0.011   0.000   0.016
   19        0.024   0.011   2.356   2.391
   20        0.026   0.019   2.352   2.397
   21        0.037   0.014   2.444   2.495
   22        0.039   0.022   2.413   2.474
   23       -0.043  -0.018  -2.538  -2.599
   24       -0.047  -0.028  -2.485  -2.561
   25       -0.026  -0.034  -2.033  -2.093
   26        0.016   0.034   2.324   2.375
   27       -0.031  -0.013  -2.414  -2.458
   28       -0.034  -0.023  -2.301  -2.358
   29        0.043   0.035   2.280   2.358
   30        0.034   0.007   2.521   2.562
   31        0.022   0.038   2.182   2.241
   32       -0.023  -0.036  -2.186  -2.245
   33       -0.026  -0.022  -2.397  -2.445
   34       -0.024  -0.013  -2.411  -2.448
   35       -0.017  -0.031  -2.285  -2.333
   36        0.025   0.033   1.927   1.985
--------------------------------------------------
tot         -0.004  -0.004  -0.254  -0.262
 
    FORLOC:  cpu time    0.0276: real time    0.0276
    FORNL :  cpu time   13.0024: real time   13.0627
    STRESS:  cpu time   18.0421: real time   18.8971
    FORCOR:  cpu time    0.2696: real time    0.2696
    OFIELD:  cpu time    0.0018: real time    0.0018

  FORCE on cell =-STRESS in cart. coord.  units (eV):
  Direction    XX          YY          ZZ          XY          YZ          ZX
  --------------------------------------------------------------------------------------
  Alpha Z   532.25743   532.25743   532.25743
  Ewald   -2702.40749 -2702.40749 -3196.26924    -0.00000    -0.00000    -0.00000
  Hartree   718.17092   718.25098   229.15164    -0.19134    -0.00000    -0.00000
  E(xc)    -760.07643  -760.09584  -761.26496     0.08617     0.00000     0.00000
  Local     253.98596   253.67068  1253.56988     0.70883    -0.00000    -0.00000
  n-local  -107.40448  -107.37489  -120.91081     0.22434    -0.06858    -0.22642
  augment   519.67539   519.73953   518.11872    -0.24525     0.00001     0.00001
  Kinetic  1552.00342  1552.21197  1547.93862    -0.54074     0.26873     0.27674
  Fock        0.00000     0.00000     0.00000     0.00000     0.00000     0.00000
  -------------------------------------------------------------------------------------
  Total       6.20471     6.25237     2.59128     0.04202     0.00000     0.00000
  in kB      21.00485    21.16618     8.77227     0.14224     0.00000     0.00000
  external pressure =       16.98 kB  Pullay stress =        0.00 kB


 VOLUME and BASIS-vectors are now :
 -----------------------------------------------------------------------------
  energy-cutoff  :      404.80
  volume of cell :      473.27
      direct lattice vectors                 reciprocal lattice vectors
     8.250148166  0.000000000  0.000000000     0.121209944  0.000000000  0.000000000
     0.000000000  8.250148166  0.000000000     0.000000000  0.121209944  0.000000000
     0.000000000  0.000000000  6.953274261     0.000000000  0.000000000  0.143817137

  length of vectors
     8.250148166  8.250148166  6.953274261     0.121209944  0.121209944  0.143817137


 FORCES acting on ions:
    Electron-Ion                     Ewald-Force                    Non-Local-Force
 -----------------------------------------------------------------------------------------------
   0.113E+00 0.427E-01 0.143E+00   -.239E-08 -.239E-08 0.411E-08   -.202E-01 -.123E-01 -.577E-01
   0.113E+00 0.427E-01 -.143E+00   -.239E-08 -.239E-08 0.411E-08   -.202E-01 -.123E-01 0.577E-01
   -.107E+00 -.814E-02 -.700E-02   -.239E-08 -.802E-09 0.411E-08   0.104E+00 -.214E-01 -.214E-02
   -.107E+00 -.814E-02 0.700E-02   -.239E-08 -.802E-09 0.411E-08   0.104E+00 -.214E-01 0.214E-02
   -.975E-01 -.663E-01 0.106E+00   -.239E-08 0.631E-08 0.411E-08   0.516E-01 0.901E-01 -.366E-01
   -.975E-01 -.663E-01 -.106E+00   -.239E-08 0.631E-08 0.411E-08   0.516E-01 0.901E-01 0.366E-01
   0.176E-01 0.278E-01 -.790E-01   -.802E-09 -.239E-08 0.411E-08   0.247E-01 -.237E-01 -.214E-02
   0.176E-01 0.278E-01 0.790E-01   -.802E-09 -.239E-08 0.411E-08   0.247E-01 -.237E-01 0.214E-02
   0.112E+00 -.176E-01 0.695E-01   -.802E-09 -.802E-09 0.411E-08   -.140E+00 -.859E-02 -.391E-01
   0.112E+00 -.176E-01 -.695E-01   -.802E-09 -.802E-09 0.411E-08   -.140E+00 -.859E-02 0.391E-01
   0.824E-01 -.359E-01 0.115E-01   -.802E-09 0.631E-08 0.411E-08   -.480E-01 0.582E-01 -.759E-02
   0.824E-01 -.359E-01 -.115E-01   -.802E-09 0.631E-08 0.411E-08   -.480E-01 0.582E-01 0.759E-02
   -.144E+00 -.134E+00 -.138E+00   0.631E-08 -.239E-08 0.411E-08   0.278E-01 -.330E-02 0.522E-01
   -.144E+00 -.134E+00 0.138E+00   0.631E-08 -.239E-08 0.411E-08   0.278E-01 -.330E-02 -.522E-01
   0.131E-02 0.861E-01 0.904E-02   0.631E-08 -.802E-09 0.411E-08   0.662E-02 0.658E-01 0.194E-01
   0.131E-02 0.861E-01 -.904E-02   0.631E-08 -.802E-09 0.411E-08   0.662E-02 0.658E-01 -.194E-01
   -.385E-01 0.662E-01 -.337E-01   0.631E-08 0.631E-08 0.411E-08   0.338E-01 -.102E+00 0.467E-01
   -.385E-01 0.662E-01 0.337E-01   0.631E-08 0.631E-08 0.411E-08   0.338E-01 -.102E+00 -.467E-01
   -.386E+00 0.268E+00 0.442E-11   -.169E-07 -.169E-07 -.411E-08   0.227E+00 -.101E+00 0.000E+00
   0.624E+00 0.365E+00 -.348E-08   -.169E-07 -.169E-07 -.411E-08   -.384E+00 -.214E+00 0.000E+00
   0.205E+00 -.404E+00 -.146E-08   -.169E-07 0.802E-09 -.411E-08   -.179E+00 0.990E-01 0.000E+00
   0.446E-01 -.366E+00 -.189E-08   -.169E-07 0.802E-09 -.411E-08   0.743E-02 0.109E+00 0.000E+00
   -.335E+00 -.975E-01 0.305E-08   -.169E-07 0.130E-07 -.411E-08   0.171E+00 0.712E-01 0.000E+00
   0.117E+00 -.162E+00 -.392E-08   -.169E-07 0.130E-07 -.411E-08   -.197E+00 0.129E+00 0.000E+00
   -.369E+00 0.282E+00 0.122E-08   0.802E-09 -.169E-07 -.411E-08   0.378E+00 -.191E+00 0.000E+00
   -.797E+00 -.410E+00 -.734E-08   0.802E-09 -.169E-07 -.411E-08   0.597E+00 0.267E+00 0.000E+00
   0.296E+00 -.232E+00 -.261E-09   0.802E-09 0.802E-09 -.411E-08   -.139E+00 0.169E+00 0.000E+00
   0.413E+00 0.467E+00 -.557E-08   0.802E-09 0.802E-09 -.411E-08   -.207E+00 -.367E+00 0.000E+00
   -.393E+00 -.124E+00 0.440E-08   0.802E-09 0.130E-07 -.411E-08   0.330E+00 0.149E+00 0.000E+00
   0.223E+00 0.285E+00 -.775E-08   0.802E-09 0.130E-07 -.411E-08   -.153E+00 -.164E+00 0.000E+00
   0.660E+00 0.103E+00 -.304E-08   0.130E-07 -.169E-07 -.411E-08   -.385E+00 -.169E-01 0.000E+00
   0.437E+00 0.585E+00 -.361E-08   0.130E-07 -.169E-07 -.411E-08   -.377E+00 -.380E+00 0.000E+00
   -.475E+00 0.730E+00 -.450E-08   0.130E-07 0.802E-09 -.411E-08   0.322E+00 -.475E+00 0.000E+00
   -.247E+00 -.277E+00 -.200E-08   0.130E-07 0.802E-09 -.411E-08   0.124E+00 0.882E-01 0.000E+00
   0.284E+00 -.675E+00 -.178E-09   0.130E-07 0.130E-07 -.411E-08   -.176E+00 0.502E+00 0.000E+00
   -.163E+00 -.276E+00 -.419E-08   0.130E-07 0.130E-07 -.411E-08   -.516E-01 0.261E+00 0.000E+00
 -----------------------------------------------------------------------------------------------
   0.121E-01 -.235E-01 -.761E-07   -.197E-14 0.275E-13 0.265E-14   -.121E-01 0.235E-01 0.000E+00
 
 
 POSITION                                       TOTAL-FORCE (eV/Angst)
 -----------------------------------------------------------------------------------
      0.00000      0.00000      0.00000         0.093248      0.032047      0.090134
      0.00000      0.00000      3.47664         0.093248      0.032047     -0.090134
      0.00000      2.75005      0.00000        -0.013452     -0.028492     -0.009145
      0.00000      2.75005      3.47664        -0.013452     -0.028492      0.009145
      0.00000      5.50010      0.00000        -0.051529      0.016455      0.072685
      0.00000      5.50010      3.47664        -0.051529      0.016455     -0.072685
      2.75005      0.00000      0.00000         0.040931      0.006909     -0.080869
      2.75005      0.00000      3.47664         0.040931      0.006909      0.080869
      2.75005      2.75005      0.00000        -0.015298     -0.026411      0.033811
      2.75005      2.75005      3.47664        -0.015298     -0.026411     -0.033811
      2.75005      5.50010      0.00000         0.038665      0.017352      0.004572
      2.75005      5.50010      3.47664         0.038665      0.017352     -0.004572
      5.50010      0.00000      0.00000        -0.118518     -0.136909     -0.090052
      5.50010      0.00000      3.47664        -0.118518     -0.136909      0.090052
      5.50010      2.75005      0.00000         0.007579      0.145158      0.026602
      5.50010      2.75005      3.47664         0.007579      0.145158     -0.026602
      5.50010      5.50010      0.00000        -0.007181     -0.026181      0.009276
      5.50010      5.50010      3.47664        -0.007181     -0.026181     -0.009276
      1.37502      1.37502      1.73832        -0.169852      0.168559      0.000000
      1.37502      1.37502      5.21496         0.255644      0.153756      0.000000
      1.37502      4.12507      1.73832         0.030831     -0.313985      0.000000
      1.37502      4.12507      5.21496         0.052552     -0.264216      0.000000
      1.37502      6.87512      1.73832        -0.173317     -0.030853      0.000000
      1.37502      6.87512      5.21496        -0.075678     -0.038663      0.000000
      4.12507      1.37502      1.73832         0.007514      0.092364      0.000000
      4.12507      1.37502      5.21496        -0.211152     -0.143837      0.000000
      4.12507      4.12507      1.73832         0.165230     -0.067422      0.000000
      4.12507      4.12507      5.21496         0.219083      0.109660      0.000000
      4.12507      6.87512      1.73832        -0.072691      0.025779      0.000000
      4.12507      6.87512      5.21496         0.069550      0.129419      0.000000
      6.87512      1.37502      1.73832         0.283878      0.088073      0.000000
      6.87512      1.37502      5.21496         0.067023      0.217900      0.000000
      6.87512      4.12507      1.73832        -0.163462      0.270254      0.000000
      6.87512      4.12507      5.21496        -0.126719     -0.198714      0.000000
      6.87512      6.87512      1.73832         0.101956     -0.182328      0.000000
      6.87512      6.87512      5.21496        -0.209278     -0.015603      0.000000
 -----------------------------------------------------------------------------------
    total drift:                               -0.000025     -0.000004     -0.000000


--------------------------------------------------------------------------------------------------------



  FREE ENERGIE OF THE ION-ELECTRON SYSTEM (eV)
  ---------------------------------------------------
  free  energy   TOTEN  =      -236.00273437 eV

  energy  without entropy=     -236.00853711  energy(sigma->0) =     -236.00466862
 


--------------------------------------------------------------------------------------------------------


    POTLOK:  cpu time    0.6029: real time    0.6028


--------------------------------------------------------------------------------------------------------


     LOOP+:  cpu time 1120.0884: real time 1142.1269
    4ORBIT:  cpu time    0.0000: real time    0.0000
 


 total charge     
 
# of ion       s       p       d       tot
------------------------------------------
    1        0.405   0.428   0.000   0.833
    2        0.405   0.428   0.000   0.833
    3        0.406   0.425   0.000   0.830
    4        0.405   0.425   0.000   0.830
    5        0.405   0.428   0.000   0.833
    6        0.404   0.429   0.000   0.833
    7        0.404   0.428   0.000   0.832
    8        0.405   0.428   0.000   0.832
    9        0.406   0.425   0.000   0.830
   10        0.405   0.424   0.000   0.830
   11        0.404   0.431   0.000   0.834
   12        0.404   0.430   0.000   0.834
   13        0.407   0.427   0.000   0.834
   14        0.407   0.427   0.000   0.834
   15        0.406   0.426   0.000   0.832
   16        0.406   0.426   0.000   0.832
   17        0.405   0.424   0.000   0.829
   18        0.405   0.424   0.000   0.829
   19        0.336   0.354   5.132   5.822
   20        0.336   0.355   5.127   5.819
   21        0.338   0.354   5.128   5.820
   22        0.338   0.358   5.120   5.816
   23        0.339   0.355   5.121   5.814
   24        0.338   0.360   5.114   5.812
   25        0.331   0.357   5.140   5.827
   26        0.333   0.358   5.124   5.815
   27        0.337   0.354   5.128   5.819
   28        0.336   0.356   5.131   5.823
   29        0.335   0.360   5.123   5.818
   30        0.338   0.352   5.128   5.818
   31        0.332   0.356   5.134   5.822
   32        0.332   0.356   5.134   5.822
   33        0.336   0.355   5.128   5.819
   34        0.336   0.353   5.129   5.819
   35        0.333   0.358   5.124   5.815
   36        0.331   0.356   5.145   5.831
--------------------------------------------------
tot         13.329  14.087  92.309 119.725
 


 magnetization (x)
 
# of ion       s       p       d       tot
------------------------------------------
    1       -0.001  -0.001   0.000  -0.003
    2       -0.001  -0.002   0.000  -0.003
    3       -0.002  -0.008   0.000  -0.010
    4       -0.002  -0.008   0.000  -0.010
    5        0.004   0.009   0.000   0.012
    6        0.004   0.009   0.000   0.012
    7       -0.005  -0.010   0.000  -0.016
    8       -0.005  -0.010   0.000  -0.015
    9       -0.004  -0.009   0.000  -0.014
   10       -0.004  -0.010   0.000  -0.014
   11        0.000   0.000   0.000   0.000
   12       -0.000   0.000   0.000   0.000
   13       -0.002  -0.006   0.000  -0.008
   14       -0.002  -0.006   0.000  -0.008
   15        0.006   0.016   0.000   0.021
   16        0.006   0.015   0.000   0.021
   17        0.006   0.011   0.000   0.017
   18        0.006   0.011   0.000   0.016
   19        0.024   0.011   2.356   2.391
   20        0.026   0.019   2.352   2.397
   21        0.037   0.014   2.444   2.495
   22        0.039   0.022   2.413   2.474
   23       -0.043  -0.018  -2.538  -2.599
   24       -0.047  -0.028  -2.485  -2.561
   25       -0.026  -0.034  -2.033  -2.093
   26        0.016   0.034   2.324   2.375
   27       -0.031  -0.013  -2.414  -2.458
   28       -0.034  -0.023  -2.301  -2.358
   29        0.043   0.035   2.280   2.358
   30        0.034   0.007   2.521   2.562
   31        0.022   0.038   2.182   2.241
   32       -0.023  -0.036  -2.186  -2.245
   33       -0.026  -0.022  -2.397  -2.445
   34       -0.024  -0.013  -2.411  -2.448
   35       -0.017  -0.031  -2.285  -2.333
   36        0.025   0.033   1.927   1.985
--------------------------------------------------
tot         -0.004  -0.004  -0.254  -0.262
 

 total amount of memory used by VASP MPI-rank0   740218. kBytes
=======================================================================

   base      :      30000. kBytes
   nonl-proj :      34307. kBytes
   fftplans  :      21726. kBytes
   grid      :      14732. kBytes
   one-center:        279. kBytes
   wavefun   :     639174. kBytes
 
  
  
 General timing and accounting informations for this job:
 ========================================================
  
                  Total CPU time used (sec):     1145.501
                            User time (sec):     1124.277
                          System time (sec):       21.224
                         Elapsed time (sec):     1170.562
  
                   Maximum memory used (kb):      879480.
                   Average memory used (kb):           0.
  
                          Minor page faults:       502846
                          Major page faults:           19
                 Voluntary context switches:         3182
