  36  36   1   0
  0.1314651E+02  0.8250148E-09  0.8250148E-09  0.6953274E-09  0.2000000E-15
  1.000000000000000E-004
  CAR 
 AlMn_pv                                 
     11.65588697     -4.52521631  301      7.73109316      1.00000000
     -4.525  0.0000E+00  0.0000E+00  0.0000E+00  0.0000E+00
     -4.471  0.0000E+00  0.0000E+00  0.0000E+00  0.0000E+00
     -4.417  0.0000E+00  0.0000E+00  0.0000E+00  0.0000E+00
     -4.363  0.0000E+00  0.0000E+00  0.0000E+00  0.0000E+00
     -4.309  0.0000E+00  0.0000E+00  0.0000E+00  0.0000E+00
     -4.256  0.0000E+00  0.0000E+00  0.0000E+00  0.0000E+00
     -4.202  0.0000E+00  0.0000E+00  0.0000E+00  0.0000E+00
     -4.148 -0.4036E-29 -0.7440E-29 -0.2177E-30 -0.4013E-30
     -4.094 -0.2903E-27 -0.5241E-27 -0.1588E-28 -0.2867E-28
     -4.040 -0.1835E-25 -0.3246E-25 -0.1006E-26 -0.1779E-26
     -3.986 -0.9970E-24 -0.1728E-23 -0.5478E-25 -0.9496E-25
     -3.932 -0.4678E-22 -0.7940E-22 -0.2578E-23 -0.4377E-23
     -3.878 -0.1895E-20 -0.3151E-20 -0.1048E-21 -0.1743E-21
     -3.824 -0.6628E-19 -0.1080E-18 -0.3680E-20 -0.5997E-20
     -3.770 -0.2002E-17 -0.3193E-17 -0.1116E-18 -0.1782E-18
     -3.716 -0.5218E-16 -0.8155E-16 -0.2926E-17 -0.4577E-17
     -3.662 -0.1140E-14 -0.1743E-14 -0.6443E-16 -0.9860E-16
     -3.608 -0.2205E-13 -0.3308E-13 -0.1254E-14 -0.1883E-14
     -3.554 -0.3691E-12 -0.5419E-12 -0.2116E-13 -0.3111E-13
     -3.500 -0.5326E-11 -0.7661E-11 -0.3085E-12 -0.4443E-12
     -3.446 -0.6636E-10 -0.9349E-10 -0.3888E-11 -0.5487E-11
     -3.393 -0.7138E-09 -0.9851E-09 -0.4239E-10 -0.5862E-10
     -3.339 -0.6631E-08 -0.8965E-08 -0.4001E-09 -0.5422E-09
     -3.285 -0.5322E-07 -0.7048E-07 -0.3270E-08 -0.4344E-08
     -3.231 -0.3691E-06 -0.4790E-06 -0.2318E-07 -0.3018E-07
     -3.177 -0.2213E-05 -0.2814E-05 -0.1426E-06 -0.1820E-06
     -3.123 -0.1148E-04 -0.1430E-04 -0.7616E-06 -0.9532E-06
     -3.069 -0.5149E-04 -0.6285E-04 -0.3539E-05 -0.4343E-05
     -3.015 -0.1997E-03 -0.2388E-03 -0.1431E-04 -0.1723E-04
     -2.961 -0.6687E-03 -0.7832E-03 -0.5038E-04 -0.5947E-04
     -2.907 -0.1926E-02 -0.2208E-02 -0.1543E-03 -0.1785E-03
     -2.853 -0.4737E-02 -0.5305E-02 -0.4098E-03 -0.4647E-03
     -2.799 -0.9791E-02 -0.1068E-01 -0.9379E-03 -0.1041E-02
     -2.745 -0.1642E-01 -0.1730E-01 -0.1823E-02 -0.1974E-02
     -2.691 -0.2025E-01 -0.2006E-01 -0.2916E-02 -0.3055E-02
     -2.637 -0.1097E-01 -0.7769E-02 -0.3507E-02 -0.3474E-02
     -2.583  0.2682E-01  0.3531E-01 -0.2061E-02 -0.1570E-02
     -2.530  0.1068E+00  0.1217E+00  0.3701E-02  0.4996E-02
     -2.476  0.2294E+00  0.2491E+00  0.1607E-01  0.1843E-01
     -2.422  0.3738E+00  0.3939E+00  0.3623E-01  0.3968E-01
     -2.368  0.5059E+00  0.5219E+00  0.6352E-01  0.6783E-01
     -2.314  0.6035E+00  0.6149E+00  0.9607E-01  0.1010E+00
     -2.260  0.6803E+00  0.6922E+00  0.1328E+00  0.1383E+00
     -2.206  0.7806E+00  0.7996E+00  0.1749E+00  0.1815E+00
     -2.152  0.9362E+00  0.9626E+00  0.2254E+00  0.2334E+00
     -2.098  0.1119E+01  0.1143E+01  0.2857E+00  0.2950E+00
     -2.044  0.1246E+01  0.1254E+01  0.3529E+00  0.3627E+00
     -1.990  0.1244E+01  0.1233E+01  0.4200E+00  0.4292E+00
     -1.936  0.1131E+01  0.1113E+01  0.4810E+00  0.4892E+00
     -1.882  0.1023E+01  0.1017E+01  0.5362E+00  0.5440E+00
     -1.828  0.1046E+01  0.1063E+01  0.5926E+00  0.6014E+00
     -1.774  0.1233E+01  0.1268E+01  0.6591E+00  0.6698E+00
     -1.720  0.1500E+01  0.1535E+01  0.7400E+00  0.7525E+00
     -1.667  0.1710E+01  0.1726E+01  0.8322E+00  0.8457E+00
     -1.613  0.1774E+01  0.1770E+01  0.9279E+00  0.9411E+00
     -1.559  0.1714E+01  0.1702E+01  0.1020E+01  0.1033E+01
     -1.505  0.1635E+01  0.1630E+01  0.1109E+01  0.1121E+01
     -1.451  0.1640E+01  0.1652E+01  0.1197E+01  0.1210E+01
     -1.397  0.1745E+01  0.1764E+01  0.1291E+01  0.1305E+01
     -1.343  0.1852E+01  0.1860E+01  0.1391E+01  0.1405E+01
     -1.289  0.1841E+01  0.1826E+01  0.1490E+01  0.1504E+01
     -1.235  0.1696E+01  0.1671E+01  0.1582E+01  0.1594E+01
     -1.181  0.1553E+01  0.1544E+01  0.1666E+01  0.1677E+01
     -1.127  0.1588E+01  0.1613E+01  0.1751E+01  0.1764E+01
     -1.073  0.1852E+01  0.1902E+01  0.1851E+01  0.1867E+01
     -1.019  0.2225E+01  0.2273E+01  0.1971E+01  0.1990E+01
     -0.965  0.2521E+01  0.2547E+01  0.2107E+01  0.2127E+01
     -0.911  0.2646E+01  0.2649E+01  0.2250E+01  0.2270E+01
     -0.857  0.2638E+01  0.2631E+01  0.2392E+01  0.2412E+01
     -0.804  0.2582E+01  0.2575E+01  0.2531E+01  0.2551E+01
     -0.750  0.2509E+01  0.2498E+01  0.2667E+01  0.2685E+01
     -0.696  0.2380E+01  0.2356E+01  0.2795E+01  0.2812E+01
     -0.642  0.2168E+01  0.2134E+01  0.2912E+01  0.2928E+01
     -0.588  0.1943E+01  0.1916E+01  0.3017E+01  0.3031E+01
     -0.534  0.1849E+01  0.1853E+01  0.3116E+01  0.3131E+01
     -0.480  0.1994E+01  0.2036E+01  0.3224E+01  0.3241E+01
     -0.426  0.2358E+01  0.2424E+01  0.3351E+01  0.3371E+01
     -0.372  0.2805E+01  0.2868E+01  0.3503E+01  0.3526E+01
     -0.318  0.3176E+01  0.3216E+01  0.3674E+01  0.3700E+01
     -0.264  0.3387E+01  0.3399E+01  0.3856E+01  0.3883E+01
     -0.210  0.3440E+01  0.3435E+01  0.4042E+01  0.4068E+01
     -0.156  0.3393E+01  0.3383E+01  0.4225E+01  0.4251E+01
     -0.102  0.3308E+01  0.3300E+01  0.4403E+01  0.4429E+01
     -0.048  0.3223E+01  0.3217E+01  0.4577E+01  0.4602E+01
      0.005  0.3154E+01  0.3147E+01  0.4747E+01  0.4772E+01
      0.059  0.3105E+01  0.3100E+01  0.4915E+01  0.4939E+01
      0.113  0.3086E+01  0.3090E+01  0.5081E+01  0.5106E+01
      0.167  0.3118E+01  0.3138E+01  0.5250E+01  0.5275E+01
      0.221  0.3216E+01  0.3248E+01  0.5423E+01  0.5450E+01
      0.275  0.3354E+01  0.3383E+01  0.5604E+01  0.5633E+01
      0.329  0.3457E+01  0.3466E+01  0.5790E+01  0.5820E+01
      0.383  0.3437E+01  0.3416E+01  0.5976E+01  0.6004E+01
      0.437  0.3262E+01  0.3224E+01  0.6152E+01  0.6178E+01
      0.491  0.3021E+01  0.2994E+01  0.6315E+01  0.6339E+01
      0.545  0.2881E+01  0.2888E+01  0.6470E+01  0.6495E+01
      0.599  0.2965E+01  0.3007E+01  0.6630E+01  0.6657E+01
      0.653  0.3250E+01  0.3310E+01  0.6805E+01  0.6836E+01
      0.707  0.3594E+01  0.3650E+01  0.6999E+01  0.7033E+01
      0.761  0.3862E+01  0.3903E+01  0.7207E+01  0.7243E+01
      0.815  0.4005E+01  0.4029E+01  0.7423E+01  0.7460E+01
      0.868  0.4036E+01  0.4040E+01  0.7641E+01  0.7678E+01
      0.922  0.3959E+01  0.3939E+01  0.7855E+01  0.7891E+01
      0.976  0.3777E+01  0.3740E+01  0.8058E+01  0.8092E+01
      1.030  0.3546E+01  0.3516E+01  0.8250E+01  0.8282E+01
      1.084  0.3383E+01  0.3381E+01  0.8432E+01  0.8464E+01
      1.138  0.3363E+01  0.3389E+01  0.8613E+01  0.8647E+01
      1.192  0.3440E+01  0.3471E+01  0.8799E+01  0.8834E+01
      1.246  0.3499E+01  0.3517E+01  0.8988E+01  0.9024E+01
      1.300  0.3487E+01  0.3499E+01  0.9176E+01  0.9213E+01
      1.354  0.3460E+01  0.3483E+01  0.9362E+01  0.9401E+01
      1.408  0.3486E+01  0.3519E+01  0.9550E+01  0.9591E+01
      1.462  0.3539E+01  0.3559E+01  0.9741E+01  0.9782E+01
      1.516  0.3540E+01  0.3536E+01  0.9932E+01  0.9973E+01
      1.570  0.3495E+01  0.3490E+01  0.1012E+02  0.1016E+02
      1.624  0.3542E+01  0.3585E+01  0.1031E+02  0.1035E+02
      1.678  0.3842E+01  0.3957E+01  0.1052E+02  0.1057E+02
      1.731  0.4397E+01  0.4558E+01  0.1076E+02  0.1081E+02
      1.785  0.5008E+01  0.5149E+01  0.1103E+02  0.1109E+02
      1.839  0.5397E+01  0.5463E+01  0.1132E+02  0.1139E+02
      1.893  0.5413E+01  0.5399E+01  0.1161E+02  0.1168E+02
      1.947  0.5126E+01  0.5072E+01  0.1189E+02  0.1195E+02
      2.001  0.4753E+01  0.4712E+01  0.1214E+02  0.1221E+02
      2.055  0.4507E+01  0.4516E+01  0.1239E+02  0.1245E+02
      2.109  0.4505E+01  0.4584E+01  0.1263E+02  0.1270E+02
      2.163  0.4761E+01  0.4909E+01  0.1289E+02  0.1296E+02
      2.217  0.5196E+01  0.5389E+01  0.1317E+02  0.1325E+02
      2.271  0.5643E+01  0.5824E+01  0.1347E+02  0.1357E+02
      2.325  0.5893E+01  0.5997E+01  0.1379E+02  0.1389E+02
      2.379  0.5810E+01  0.5800E+01  0.1410E+02  0.1420E+02
      2.433  0.5427E+01  0.5318E+01  0.1439E+02  0.1449E+02
      2.487  0.4931E+01  0.4776E+01  0.1466E+02  0.1475E+02
      2.541  0.4542E+01  0.4407E+01  0.1490E+02  0.1498E+02
      2.594  0.4399E+01  0.4333E+01  0.1514E+02  0.1522E+02
      2.648  0.4520E+01  0.4543E+01  0.1539E+02  0.1546E+02
      2.702  0.4832E+01  0.4931E+01  0.1565E+02  0.1573E+02
      2.756  0.5224E+01  0.5357E+01  0.1593E+02  0.1602E+02
      2.810  0.5588E+01  0.5705E+01  0.1623E+02  0.1633E+02
      2.864  0.5834E+01  0.5901E+01  0.1654E+02  0.1664E+02
      2.918  0.5906E+01  0.5926E+01  0.1686E+02  0.1696E+02
      2.972  0.5822E+01  0.5842E+01  0.1718E+02  0.1728E+02
      3.026  0.5698E+01  0.5774E+01  0.1748E+02  0.1759E+02
      3.080  0.5681E+01  0.5824E+01  0.1779E+02  0.1790E+02
      3.134  0.5805E+01  0.5959E+01  0.1810E+02  0.1823E+02
      3.188  0.5950E+01  0.6030E+01  0.1842E+02  0.1855E+02
      3.242  0.5958E+01  0.5931E+01  0.1875E+02  0.1887E+02
      3.296  0.5797E+01  0.5705E+01  0.1906E+02  0.1918E+02
      3.350  0.5572E+01  0.5485E+01  0.1936E+02  0.1947E+02
      3.404  0.5387E+01  0.5338E+01  0.1965E+02  0.1976E+02
      3.457  0.5252E+01  0.5229E+01  0.1993E+02  0.2004E+02
      3.511  0.5129E+01  0.5120E+01  0.2021E+02  0.2032E+02
      3.565  0.5054E+01  0.5077E+01  0.2048E+02  0.2059E+02
      3.619  0.5140E+01  0.5222E+01  0.2076E+02  0.2088E+02
      3.673  0.5465E+01  0.5608E+01  0.2105E+02  0.2118E+02
      3.727  0.5976E+01  0.6157E+01  0.2138E+02  0.2151E+02
      3.781  0.6522E+01  0.6719E+01  0.2173E+02  0.2187E+02
      3.835  0.6971E+01  0.7180E+01  0.2210E+02  0.2226E+02
      3.889  0.7298E+01  0.7529E+01  0.2250E+02  0.2267E+02
      3.943  0.7580E+01  0.7853E+01  0.2291E+02  0.2309E+02
      3.997  0.7929E+01  0.8285E+01  0.2333E+02  0.2354E+02
      4.051  0.8443E+01  0.8938E+01  0.2379E+02  0.2402E+02
      4.105  0.9162E+01  0.9822E+01  0.2428E+02  0.2455E+02
      4.159  0.1004E+02  0.1082E+02  0.2483E+02  0.2513E+02
      4.213  0.1093E+02  0.1173E+02  0.2541E+02  0.2576E+02
      4.267  0.1170E+02  0.1243E+02  0.2605E+02  0.2643E+02
      4.320  0.1233E+02  0.1296E+02  0.2671E+02  0.2713E+02
      4.374  0.1290E+02  0.1343E+02  0.2741E+02  0.2786E+02
      4.428  0.1350E+02  0.1387E+02  0.2814E+02  0.2861E+02
      4.482  0.1407E+02  0.1424E+02  0.2889E+02  0.2937E+02
      4.536  0.1451E+02  0.1448E+02  0.2968E+02  0.3016E+02
      4.590  0.1473E+02  0.1463E+02  0.3047E+02  0.3094E+02
      4.644  0.1478E+02  0.1481E+02  0.3127E+02  0.3174E+02
      4.698  0.1476E+02  0.1511E+02  0.3206E+02  0.3256E+02
      4.752  0.1476E+02  0.1549E+02  0.3286E+02  0.3339E+02
      4.806  0.1475E+02  0.1584E+02  0.3366E+02  0.3425E+02
      4.860  0.1471E+02  0.1603E+02  0.3445E+02  0.3511E+02
      4.914  0.1463E+02  0.1612E+02  0.3524E+02  0.3598E+02
      4.968  0.1467E+02  0.1635E+02  0.3603E+02  0.3686E+02
      5.022  0.1505E+02  0.1699E+02  0.3684E+02  0.3778E+02
      5.076  0.1599E+02  0.1812E+02  0.3770E+02  0.3876E+02
      5.130  0.1751E+02  0.1959E+02  0.3865E+02  0.3981E+02
      5.183  0.1939E+02  0.2102E+02  0.3969E+02  0.4095E+02
      5.237  0.2125E+02  0.2198E+02  0.4084E+02  0.4213E+02
      5.291  0.2272E+02  0.2219E+02  0.4207E+02  0.4333E+02
      5.345  0.2356E+02  0.2164E+02  0.4334E+02  0.4450E+02
      5.399  0.2366E+02  0.2060E+02  0.4461E+02  0.4561E+02
      5.453  0.2309E+02  0.1953E+02  0.4586E+02  0.4666E+02
      5.507  0.2200E+02  0.1876E+02  0.4704E+02  0.4767E+02
      5.561  0.2067E+02  0.1850E+02  0.4816E+02  0.4867E+02
      5.615  0.1953E+02  0.1872E+02  0.4921E+02  0.4968E+02
      5.669  0.1892E+02  0.1932E+02  0.5023E+02  0.5072E+02
      5.723  0.1895E+02  0.2008E+02  0.5126E+02  0.5181E+02
      5.777  0.1932E+02  0.2070E+02  0.5230E+02  0.5292E+02
      5.831  0.1953E+02  0.2080E+02  0.5335E+02  0.5405E+02
      5.885  0.1914E+02  0.2010E+02  0.5438E+02  0.5513E+02
      5.939  0.1806E+02  0.1862E+02  0.5536E+02  0.5613E+02
      5.993  0.1658E+02  0.1673E+02  0.5625E+02  0.5704E+02
      6.046  0.1513E+02  0.1508E+02  0.5707E+02  0.5785E+02
      6.100  0.1415E+02  0.1429E+02  0.5783E+02  0.5862E+02
      6.154  0.1391E+02  0.1474E+02  0.5858E+02  0.5942E+02
      6.208  0.1454E+02  0.1636E+02  0.5937E+02  0.6030E+02
      6.262  0.1596E+02  0.1875E+02  0.6023E+02  0.6131E+02
      6.316  0.1801E+02  0.2132E+02  0.6120E+02  0.6246E+02
      6.370  0.2038E+02  0.2352E+02  0.6230E+02  0.6373E+02
      6.424  0.2274E+02  0.2505E+02  0.6352E+02  0.6508E+02
      6.478  0.2486E+02  0.2585E+02  0.6486E+02  0.6647E+02
      6.532  0.2669E+02  0.2605E+02  0.6630E+02  0.6788E+02
      6.586  0.2826E+02  0.2590E+02  0.6783E+02  0.6927E+02
      6.640  0.2948E+02  0.2566E+02  0.6942E+02  0.7066E+02
      6.694  0.3002E+02  0.2550E+02  0.7104E+02  0.7203E+02
      6.748  0.2954E+02  0.2541E+02  0.7263E+02  0.7340E+02
      6.802  0.2799E+02  0.2510E+02  0.7414E+02  0.7476E+02
      6.855  0.2572E+02  0.2424E+02  0.7553E+02  0.7607E+02
      6.909  0.2331E+02  0.2268E+02  0.7678E+02  0.7729E+02
      6.963  0.2117E+02  0.2065E+02  0.7793E+02  0.7840E+02
      7.017  0.1938E+02  0.1861E+02  0.7897E+02  0.7941E+02
      7.071  0.1781E+02  0.1706E+02  0.7993E+02  0.8033E+02
      7.125  0.1642E+02  0.1622E+02  0.8082E+02  0.8120E+02
      7.179  0.1535E+02  0.1603E+02  0.8165E+02  0.8207E+02
      7.233  0.1475E+02  0.1620E+02  0.8244E+02  0.8294E+02
      7.287  0.1460E+02  0.1642E+02  0.8323E+02  0.8383E+02
      7.341  0.1464E+02  0.1646E+02  0.8402E+02  0.8471E+02
      7.395  0.1461E+02  0.1624E+02  0.8481E+02  0.8559E+02
      7.449  0.1440E+02  0.1581E+02  0.8558E+02  0.8644E+02
      7.503  0.1408E+02  0.1529E+02  0.8634E+02  0.8727E+02
      7.557  0.1378E+02  0.1480E+02  0.8709E+02  0.8806E+02
      7.611  0.1355E+02  0.1447E+02  0.8782E+02  0.8885E+02
      7.665  0.1336E+02  0.1437E+02  0.8854E+02  0.8962E+02
      7.718  0.1320E+02  0.1447E+02  0.8925E+02  0.9040E+02
      7.772  0.1315E+02  0.1469E+02  0.8996E+02  0.9119E+02
      7.826  0.1337E+02  0.1488E+02  0.9068E+02  0.9200E+02
      7.880  0.1395E+02  0.1499E+02  0.9143E+02  0.9280E+02
      7.934  0.1487E+02  0.1500E+02  0.9223E+02  0.9361E+02
      7.988  0.1590E+02  0.1492E+02  0.9309E+02  0.9442E+02
      8.042  0.1673E+02  0.1476E+02  0.9399E+02  0.9521E+02
      8.096  0.1714E+02  0.1458E+02  0.9492E+02  0.9600E+02
      8.150  0.1711E+02  0.1448E+02  0.9584E+02  0.9678E+02
      8.204  0.1680E+02  0.1453E+02  0.9675E+02  0.9757E+02
      8.258  0.1642E+02  0.1466E+02  0.9763E+02  0.9836E+02
      8.312  0.1604E+02  0.1470E+02  0.9850E+02  0.9915E+02
      8.366  0.1560E+02  0.1451E+02  0.9934E+02  0.9993E+02
      8.420  0.1502E+02  0.1406E+02  0.1002E+03  0.1007E+03
      8.474  0.1442E+02  0.1349E+02  0.1009E+03  0.1014E+03
      8.528  0.1407E+02  0.1308E+02  0.1017E+03  0.1021E+03
      8.581  0.1421E+02  0.1308E+02  0.1025E+03  0.1028E+03
      8.635  0.1478E+02  0.1361E+02  0.1033E+03  0.1036E+03
      8.689  0.1545E+02  0.1454E+02  0.1041E+03  0.1043E+03
      8.743  0.1584E+02  0.1554E+02  0.1049E+03  0.1052E+03
      8.797  0.1571E+02  0.1615E+02  0.1058E+03  0.1061E+03
      8.851  0.1511E+02  0.1601E+02  0.1066E+03  0.1069E+03
      8.905  0.1416E+02  0.1497E+02  0.1074E+03  0.1077E+03
      8.959  0.1295E+02  0.1312E+02  0.1081E+03  0.1084E+03
      9.013  0.1142E+02  0.1073E+02  0.1087E+03  0.1090E+03
      9.067  0.9482E+01  0.8117E+01  0.1092E+03  0.1095E+03
      9.121  0.7185E+01  0.5581E+01  0.1096E+03  0.1098E+03
      9.175  0.4778E+01  0.3360E+01  0.1098E+03  0.1099E+03
      9.229  0.2627E+01  0.1637E+01  0.1100E+03  0.1100E+03
      9.283  0.1038E+01  0.5022E+00  0.1100E+03  0.1100E+03
      9.337  0.1104E+00 -0.8482E-01  0.1100E+03  0.1100E+03
      9.391 -0.2648E+00 -0.2736E+00  0.1100E+03  0.1100E+03
      9.444 -0.3037E+00 -0.2500E+00  0.1100E+03  0.1100E+03
      9.498 -0.2059E+00 -0.1607E+00  0.1100E+03  0.1100E+03
      9.552 -0.9208E-01 -0.8211E-01  0.1100E+03  0.1100E+03
      9.606 -0.9445E-02 -0.3477E-01  0.1100E+03  0.1100E+03
      9.660  0.3467E-01 -0.1242E-01  0.1100E+03  0.1100E+03
      9.714  0.4723E-01 -0.3782E-02  0.1100E+03  0.1100E+03
      9.768  0.3938E-01 -0.9863E-03  0.1100E+03  0.1100E+03
      9.822  0.2325E-01 -0.2211E-03  0.1100E+03  0.1100E+03
      9.876  0.8607E-02 -0.4267E-04  0.1100E+03  0.1100E+03
      9.930  0.2334E-04 -0.7104E-05  0.1100E+03  0.1100E+03
      9.984 -0.2862E-02 -0.1021E-05  0.1100E+03  0.1100E+03
     10.038 -0.2632E-02 -0.1267E-06  0.1100E+03  0.1100E+03
     10.092 -0.1556E-02 -0.1359E-07  0.1100E+03  0.1100E+03
     10.146 -0.7035E-03 -0.1260E-08  0.1100E+03  0.1100E+03
     10.200 -0.2566E-03 -0.1010E-09  0.1100E+03  0.1100E+03
     10.254 -0.7742E-04 -0.7001E-11  0.1100E+03  0.1100E+03
     10.307 -0.1958E-04 -0.4196E-12  0.1100E+03  0.1100E+03
     10.361 -0.4184E-05 -0.2174E-13  0.1100E+03  0.1100E+03
     10.415 -0.7596E-06 -0.9880E-15  0.1100E+03  0.1100E+03
     10.469 -0.1176E-06  0.0000E+00  0.1100E+03  0.1100E+03
     10.523 -0.1556E-07  0.0000E+00  0.1100E+03  0.1100E+03
     10.577 -0.1763E-08  0.0000E+00  0.1100E+03  0.1100E+03
     10.631 -0.1714E-09  0.0000E+00  0.1100E+03  0.1100E+03
     10.685 -0.1431E-10  0.0000E+00  0.1100E+03  0.1100E+03
     10.739 -0.1028E-11  0.0000E+00  0.1100E+03  0.1100E+03
     10.793 -0.6351E-13  0.0000E+00  0.1100E+03  0.1100E+03
     10.847 -0.3348E-14  0.0000E+00  0.1100E+03  0.1100E+03
     10.901 -0.1647E-15  0.0000E+00  0.1100E+03  0.1100E+03
     10.955  0.0000E+00  0.0000E+00  0.1100E+03  0.1100E+03
     11.009  0.0000E+00  0.0000E+00  0.1100E+03  0.1100E+03
     11.063  0.0000E+00  0.0000E+00  0.1100E+03  0.1100E+03
     11.117  0.0000E+00  0.0000E+00  0.1100E+03  0.1100E+03
     11.170  0.0000E+00  0.0000E+00  0.1100E+03  0.1100E+03
     11.224  0.0000E+00  0.0000E+00  0.1100E+03  0.1100E+03
     11.278  0.0000E+00  0.0000E+00  0.1100E+03  0.1100E+03
     11.332  0.0000E+00  0.0000E+00  0.1100E+03  0.1100E+03
     11.386  0.0000E+00  0.0000E+00  0.1100E+03  0.1100E+03
     11.440  0.0000E+00  0.0000E+00  0.1100E+03  0.1100E+03
     11.494  0.0000E+00  0.0000E+00  0.1100E+03  0.1100E+03
     11.548  0.0000E+00  0.0000E+00  0.1100E+03  0.1100E+03
     11.602  0.0000E+00  0.0000E+00  0.1100E+03  0.1100E+03
     11.656  0.0000E+00  0.0000E+00  0.1100E+03  0.1100E+03
     11.65588697     -4.52521631  301      7.73109316      1.00000000
     -4.525  0.0000E+00  0.0000E+00  0.0000E+00  0.0000E+00  0.0000E+00  0.0000E+00
     -4.471  0.0000E+00  0.0000E+00  0.0000E+00  0.0000E+00  0.0000E+00  0.0000E+00
     -4.417  0.0000E+00  0.0000E+00  0.0000E+00  0.0000E+00  0.0000E+00  0.0000E+00
     -4.363  0.0000E+00  0.0000E+00  0.0000E+00  0.0000E+00  0.0000E+00  0.0000E+00
     -4.309  0.0000E+00  0.0000E+00  0.0000E+00  0.0000E+00  0.0000E+00  0.0000E+00
     -4.256  0.0000E+00  0.0000E+00  0.0000E+00  0.0000E+00  0.0000E+00  0.0000E+00
     -4.202  0.0000E+00  0.0000E+00  0.0000E+00  0.0000E+00  0.0000E+00  0.0000E+00
     -4.148 -0.4697E-31 -0.8511E-31 -0.1194E-35 -0.5048E-35  0.0000E+00  0.0000E+00
     -4.094 -0.3379E-29 -0.5996E-29 -0.8592E-34 -0.3556E-33  0.0000E+00  0.0000E+00
     -4.040 -0.2136E-27 -0.3713E-27 -0.1244E-31 -0.3487E-31  0.0000E+00  0.0000E+00
     -3.986 -0.1160E-25 -0.1976E-25 -0.7767E-30 -0.2036E-29  0.0000E+00  0.0000E+00
     -3.932 -0.5444E-24 -0.9083E-24 -0.4269E-28 -0.1046E-27  0.0000E+00  0.0000E+00
     -3.878 -0.2206E-22 -0.3604E-22 -0.2052E-26 -0.4705E-26  0.0000E+00  0.0000E+00
     -3.824 -0.7714E-21 -0.1235E-20 -0.8620E-25 -0.1855E-24  0.0000E+00  0.0000E+00
     -3.770 -0.2329E-19 -0.3653E-19 -0.3158E-23 -0.6405E-23  0.0000E+00  0.0000E+00
     -3.716 -0.6073E-18 -0.9328E-18 -0.1008E-21 -0.1934E-21  0.0000E+00  0.0000E+00
     -3.662 -0.1327E-16 -0.1994E-16 -0.2789E-20 -0.5067E-20  0.0000E+00  0.0000E+00
     -3.608 -0.2566E-15 -0.3784E-15 -0.6445E-19 -0.1139E-18  0.0000E+00  0.0000E+00
     -3.554 -0.4295E-14 -0.6197E-14 -0.1370E-17 -0.2280E-17  0.0000E+00  0.0000E+00
     -3.500 -0.6198E-13 -0.8761E-13 -0.2472E-16 -0.3962E-16  0.0000E+00  0.0000E+00
     -3.446 -0.7722E-12 -0.1069E-11 -0.3867E-15 -0.5981E-15  0.0000E+00  0.0000E+00
     -3.393 -0.8306E-11 -0.1126E-10 -0.5231E-14 -0.7827E-14  0.0000E+00  0.0000E+00
     -3.339 -0.7715E-10 -0.1025E-09 -0.6115E-13 -0.8870E-13  0.0000E+00  0.0000E+00
     -3.285 -0.6191E-09 -0.8056E-09 -0.6173E-12 -0.8697E-12  0.0000E+00  0.0000E+00
     -3.231 -0.4293E-08 -0.5473E-08 -0.5379E-11 -0.7370E-11  0.0000E+00  0.0000E+00
     -3.177 -0.2574E-07 -0.3215E-07 -0.4043E-10 -0.5393E-10  0.0000E+00  0.0000E+00
     -3.123 -0.1335E-06 -0.1633E-06 -0.2620E-09 -0.3405E-09  0.0000E+00  0.0000E+00
     -3.069 -0.5985E-06 -0.7175E-06 -0.1463E-08 -0.1854E-08  0.0000E+00  0.0000E+00
     -3.015 -0.2320E-05 -0.2725E-05 -0.7032E-08 -0.8687E-08  0.0000E+00  0.0000E+00
     -2.961 -0.7767E-05 -0.8931E-05 -0.2906E-07 -0.3500E-07  0.0000E+00  0.0000E+00
     -2.907 -0.2236E-04 -0.2516E-04 -0.1030E-06 -0.1209E-06  0.0000E+00  0.0000E+00
     -2.853 -0.5495E-04 -0.6040E-04 -0.3116E-06 -0.3561E-06  0.0000E+00  0.0000E+00
     -2.799 -0.1135E-03 -0.1214E-03 -0.7990E-06 -0.8876E-06  0.0000E+00  0.0000E+00
     -2.745 -0.1901E-03 -0.1964E-03 -0.1711E-05 -0.1842E-05  0.0000E+00  0.0000E+00
     -2.691 -0.2339E-03 -0.2270E-03 -0.2971E-05 -0.3078E-05  0.0000E+00  0.0000E+00
     -2.637 -0.1254E-03 -0.8587E-04 -0.3872E-05 -0.3782E-05  0.0000E+00  0.0000E+00
     -2.583  0.3137E-03  0.4059E-03 -0.2769E-05 -0.2233E-05  0.0000E+00  0.0000E+00
     -2.530  0.1241E-02  0.1390E-02  0.2589E-05  0.3738E-05  0.0000E+00  0.0000E+00
     -2.476  0.2660E-02  0.2840E-02  0.1379E-04  0.1543E-04  0.0000E+00  0.0000E+00
     -2.422  0.4329E-02  0.4484E-02  0.3044E-04  0.3221E-04  0.0000E+00  0.0000E+00
     -2.368  0.5853E-02  0.5933E-02  0.5087E-04  0.5266E-04  0.0000E+00  0.0000E+00
     -2.314  0.6976E-02  0.6974E-02  0.7594E-04  0.7861E-04  0.0000E+00  0.0000E+00
     -2.260  0.7856E-02  0.7817E-02  0.1130E-03  0.1183E-03  0.0000E+00  0.0000E+00
     -2.206  0.9003E-02  0.8977E-02  0.1730E-03  0.1823E-03  0.0000E+00  0.0000E+00
     -2.152  0.1078E-01  0.1075E-01  0.2590E-03  0.2710E-03  0.0000E+00  0.0000E+00
     -2.098  0.1288E-01  0.1271E-01  0.3539E-03  0.3642E-03  0.0000E+00  0.0000E+00
     -2.044  0.1433E-01  0.1391E-01  0.4242E-03  0.4280E-03  0.0000E+00  0.0000E+00
     -1.990  0.1430E-01  0.1364E-01  0.4463E-03  0.4427E-03  0.0000E+00  0.0000E+00
     -1.936  0.1300E-01  0.1228E-01  0.4350E-03  0.4288E-03  0.0000E+00  0.0000E+00
     -1.882  0.1173E-01  0.1119E-01  0.4438E-03  0.4419E-03  0.0000E+00  0.0000E+00
     -1.828  0.1192E-01  0.1168E-01  0.5278E-03  0.5326E-03  0.0000E+00  0.0000E+00
     -1.774  0.1395E-01  0.1397E-01  0.6975E-03  0.7031E-03  0.0000E+00  0.0000E+00
     -1.720  0.1685E-01  0.1697E-01  0.9050E-03  0.9005E-03  0.0000E+00  0.0000E+00
     -1.667  0.1907E-01  0.1917E-01  0.1076E-02  0.1053E-02  0.0000E+00  0.0000E+00
     -1.613  0.1967E-01  0.1972E-01  0.1164E-02  0.1124E-02  0.0000E+00  0.0000E+00
     -1.559  0.1889E-01  0.1898E-01  0.1183E-02  0.1138E-02  0.0000E+00  0.0000E+00
     -1.505  0.1793E-01  0.1815E-01  0.1204E-02  0.1167E-02  0.0000E+00  0.0000E+00
     -1.451  0.1796E-01  0.1830E-01  0.1293E-02  0.1271E-02  0.0000E+00  0.0000E+00
     -1.397  0.1913E-01  0.1943E-01  0.1451E-02  0.1438E-02  0.0000E+00  0.0000E+00
     -1.343  0.2035E-01  0.2040E-01  0.1588E-02  0.1571E-02  0.0000E+00  0.0000E+00
     -1.289  0.2029E-01  0.1996E-01  0.1604E-02  0.1577E-02  0.0000E+00  0.0000E+00
     -1.235  0.1877E-01  0.1821E-01  0.1500E-02  0.1476E-02  0.0000E+00  0.0000E+00
     -1.181  0.1725E-01  0.1677E-01  0.1421E-02  0.1421E-02  0.0000E+00  0.0000E+00
     -1.127  0.1761E-01  0.1746E-01  0.1543E-02  0.1577E-02  0.0000E+00  0.0000E+00
     -1.073  0.2042E-01  0.2055E-01  0.1912E-02  0.1968E-02  0.0000E+00  0.0000E+00
     -1.019  0.2435E-01  0.2457E-01  0.2394E-02  0.2443E-02  0.0000E+00  0.0000E+00
     -0.965  0.2741E-01  0.2762E-01  0.2792E-02  0.2810E-02  0.0000E+00  0.0000E+00
     -0.911  0.2857E-01  0.2890E-01  0.3007E-02  0.2989E-02  0.0000E+00  0.0000E+00
     -0.857  0.2825E-01  0.2888E-01  0.3092E-02  0.3046E-02  0.0000E+00  0.0000E+00
     -0.804  0.2744E-01  0.2834E-01  0.3146E-02  0.3080E-02  0.0000E+00  0.0000E+00
     -0.750  0.2649E-01  0.2742E-01  0.3186E-02  0.3098E-02  0.0000E+00  0.0000E+00
     -0.696  0.2508E-01  0.2569E-01  0.3124E-02  0.3015E-02  0.0000E+00  0.0000E+00
     -0.642  0.2297E-01  0.2318E-01  0.2889E-02  0.2774E-02  0.0000E+00  0.0000E+00
     -0.588  0.2086E-01  0.2096E-01  0.2564E-02  0.2472E-02  0.0000E+00  0.0000E+00
     -0.534  0.2016E-01  0.2064E-01  0.2380E-02  0.2332E-02  0.0000E+00  0.0000E+00
     -0.480  0.2185E-01  0.2309E-01  0.2556E-02  0.2544E-02  0.0000E+00  0.0000E+00
     -0.426  0.2561E-01  0.2760E-01  0.3128E-02  0.3119E-02  0.0000E+00  0.0000E+00
     -0.372  0.3001E-01  0.3242E-01  0.3920E-02  0.3880E-02  0.0000E+00  0.0000E+00
     -0.318  0.3362E-01  0.3594E-01  0.4653E-02  0.4581E-02  0.0000E+00  0.0000E+00
     -0.264  0.3577E-01  0.3758E-01  0.5121E-02  0.5049E-02  0.0000E+00  0.0000E+00
     -0.210  0.3654E-01  0.3774E-01  0.5282E-02  0.5247E-02  0.0000E+00  0.0000E+00
     -0.156  0.3635E-01  0.3711E-01  0.5248E-02  0.5256E-02  0.0000E+00  0.0000E+00
     -0.102  0.3566E-01  0.3621E-01  0.5167E-02  0.5194E-02  0.0000E+00  0.0000E+00
     -0.048  0.3490E-01  0.3528E-01  0.5106E-02  0.5123E-02  0.0000E+00  0.0000E+00
      0.005  0.3445E-01  0.3451E-01  0.5032E-02  0.5040E-02  0.0000E+00  0.0000E+00
      0.059  0.3447E-01  0.3412E-01  0.4903E-02  0.4933E-02  0.0000E+00  0.0000E+00
      0.113  0.3488E-01  0.3430E-01  0.4778E-02  0.4864E-02  0.0000E+00  0.0000E+00
      0.167  0.3551E-01  0.3507E-01  0.4817E-02  0.4962E-02  0.0000E+00  0.0000E+00
      0.221  0.3626E-01  0.3622E-01  0.5140E-02  0.5313E-02  0.0000E+00  0.0000E+00
      0.275  0.3698E-01  0.3731E-01  0.5683E-02  0.5832E-02  0.0000E+00  0.0000E+00
      0.329  0.3730E-01  0.3771E-01  0.6189E-02  0.6266E-02  0.0000E+00  0.0000E+00
      0.383  0.3660E-01  0.3686E-01  0.6380E-02  0.6365E-02  0.0000E+00  0.0000E+00
      0.437  0.3458E-01  0.3470E-01  0.6186E-02  0.6099E-02  0.0000E+00  0.0000E+00
      0.491  0.3200E-01  0.3213E-01  0.5848E-02  0.5742E-02  0.0000E+00  0.0000E+00
      0.545  0.3045E-01  0.3065E-01  0.5753E-02  0.5687E-02  0.0000E+00  0.0000E+00
      0.599  0.3127E-01  0.3129E-01  0.6136E-02  0.6146E-02  0.0000E+00  0.0000E+00
      0.653  0.3429E-01  0.3382E-01  0.6899E-02  0.6985E-02  0.0000E+00  0.0000E+00
      0.707  0.3798E-01  0.3691E-01  0.7733E-02  0.7866E-02  0.0000E+00  0.0000E+00
      0.761  0.4070E-01  0.3929E-01  0.8403E-02  0.8534E-02  0.0000E+00  0.0000E+00
      0.815  0.4180E-01  0.4042E-01  0.8876E-02  0.8945E-02  0.0000E+00  0.0000E+00
      0.868  0.4146E-01  0.4026E-01  0.9186E-02  0.9139E-02  0.0000E+00  0.0000E+00
      0.922  0.3999E-01  0.3888E-01  0.9275E-02  0.9093E-02  0.0000E+00  0.0000E+00
      0.976  0.3768E-01  0.3661E-01  0.9054E-02  0.8780E-02  0.0000E+00  0.0000E+00
      1.030  0.3523E-01  0.3437E-01  0.8609E-02  0.8332E-02  0.0000E+00  0.0000E+00
      1.084  0.3368E-01  0.3332E-01  0.8227E-02  0.8024E-02  0.0000E+00  0.0000E+00
      1.138  0.3361E-01  0.3385E-01  0.8146E-02  0.8025E-02  0.0000E+00  0.0000E+00
      1.192  0.3441E-01  0.3505E-01  0.8316E-02  0.8231E-02  0.0000E+00  0.0000E+00
      1.246  0.3492E-01  0.3562E-01  0.8491E-02  0.8409E-02  0.0000E+00  0.0000E+00
      1.300  0.3462E-01  0.3524E-01  0.8554E-02  0.8482E-02  0.0000E+00  0.0000E+00
      1.354  0.3400E-01  0.3472E-01  0.8648E-02  0.8577E-02  0.0000E+00  0.0000E+00
      1.408  0.3359E-01  0.3466E-01  0.8947E-02  0.8797E-02  0.0000E+00  0.0000E+00
      1.462  0.3309E-01  0.3458E-01  0.9397E-02  0.9051E-02  0.0000E+00  0.0000E+00
      1.516  0.3188E-01  0.3369E-01  0.9798E-02  0.9222E-02  0.0000E+00  0.0000E+00
      1.570  0.3027E-01  0.3234E-01  0.1013E-01  0.9438E-02  0.0000E+00  0.0000E+00
      1.624  0.2976E-01  0.3218E-01  0.1071E-01  0.1008E-01  0.0000E+00  0.0000E+00
      1.678  0.3186E-01  0.3466E-01  0.1187E-01  0.1142E-01  0.0000E+00  0.0000E+00
      1.731  0.3655E-01  0.3933E-01  0.1358E-01  0.1328E-01  0.0000E+00  0.0000E+00
      1.785  0.4194E-01  0.4391E-01  0.1528E-01  0.1499E-01  0.0000E+00  0.0000E+00
      1.839  0.4557E-01  0.4595E-01  0.1626E-01  0.1585E-01  0.0000E+00  0.0000E+00
      1.893  0.4608E-01  0.4471E-01  0.1611E-01  0.1556E-01  0.0000E+00  0.0000E+00
      1.947  0.4404E-01  0.4146E-01  0.1509E-01  0.1447E-01  0.0000E+00  0.0000E+00
      2.001  0.4122E-01  0.3828E-01  0.1383E-01  0.1325E-01  0.0000E+00  0.0000E+00
      2.055  0.3924E-01  0.3671E-01  0.1301E-01  0.1250E-01  0.0000E+00  0.0000E+00
      2.109  0.3894E-01  0.3725E-01  0.1296E-01  0.1252E-01  0.0000E+00  0.0000E+00
      2.163  0.4048E-01  0.3972E-01  0.1362E-01  0.1327E-01  0.0000E+00  0.0000E+00
      2.217  0.4346E-01  0.4336E-01  0.1462E-01  0.1438E-01  0.0000E+00  0.0000E+00
      2.271  0.4690E-01  0.4686E-01  0.1540E-01  0.1530E-01  0.0000E+00  0.0000E+00
      2.325  0.4933E-01  0.4855E-01  0.1545E-01  0.1546E-01  0.0000E+00  0.0000E+00
      2.379  0.4946E-01  0.4729E-01  0.1461E-01  0.1469E-01  0.0000E+00  0.0000E+00
      2.433  0.4699E-01  0.4325E-01  0.1328E-01  0.1337E-01  0.0000E+00  0.0000E+00
      2.487  0.4270E-01  0.3798E-01  0.1213E-01  0.1223E-01  0.0000E+00  0.0000E+00
      2.541  0.3808E-01  0.3350E-01  0.1177E-01  0.1192E-01  0.0000E+00  0.0000E+00
      2.594  0.3456E-01  0.3126E-01  0.1238E-01  0.1269E-01  0.0000E+00  0.0000E+00
      2.648  0.3298E-01  0.3154E-01  0.1375E-01  0.1434E-01  0.0000E+00  0.0000E+00
      2.702  0.3334E-01  0.3348E-01  0.1548E-01  0.1637E-01  0.0000E+00  0.0000E+00
      2.756  0.3482E-01  0.3563E-01  0.1721E-01  0.1828E-01  0.0000E+00  0.0000E+00
      2.810  0.3626E-01  0.3673E-01  0.1871E-01  0.1973E-01  0.0000E+00  0.0000E+00
      2.864  0.3671E-01  0.3626E-01  0.1982E-01  0.2054E-01  0.0000E+00  0.0000E+00