   36   36    1    2
  0.1314651E+02  0.8250148E-09  0.8250148E-09  0.6953274E-09  0.2000000E-15
  1.000000000000000E-004
  CAR 
 AlMn_pv                                 
    180     52    110
 
  0.0000000E+00  0.0000000E+00  0.0000000E+00  0.6666667E-02
    1       -2.517637     -2.525216   1.000000   1.000000
    2       -0.354084     -0.375022   1.000000   1.000000
    3       -0.347592     -0.356199   1.000000   1.000000
    4       -0.328109     -0.323415   1.000000   1.000000
    5       -0.307191     -0.313813   1.000000   1.000000
    6       -0.123723     -0.129193   1.000000   1.000000
    7        1.356862      1.345191   1.000000   1.000000
    8        1.376720      1.369061   1.000000   1.000000
    9        1.400169      1.390025   1.000000   1.000000
   10        1.414461      1.398063   1.000000   1.000000
   11        1.441570      1.420739   1.000000   1.000000
   12        1.569651      1.563757   1.000000   1.000000
   13        1.591643      1.582951   1.000000   1.000000
   14        1.600205      1.585669   1.000000   1.000000
   15        1.619618      1.609359   1.000000   1.000000
   16        2.755714      2.737233   1.000000   1.000000
   17        2.790886      2.763309   1.000000   1.000000
   18        2.795950      2.775912   1.000000   1.000000
   19        2.829398      2.799286   1.000000   1.000000
   20        3.500971      3.480744   1.000000   1.000000
   21        3.522886      3.512638   1.000000   1.000000
   22        3.587439      3.586929   1.000000   1.000000
   23        3.632351      3.618712   1.000000   1.000000
   24        4.095242      4.074356   1.000000   1.000000
   25        4.256385      4.173981   1.000000   1.000000
   26        4.328088      4.335332   1.000000   1.000000
   27        4.506769      4.497725   1.000000   1.000000
   28        4.521384      4.545476   1.000000   1.000000
   29        4.596680      4.560752   1.000000   1.000000
   30        4.647537      4.638745   1.000000   1.000000
   31        4.706749      4.667920   1.000000   1.000000
   32        4.787622      4.735720   1.000000   1.000000
   33        4.793029      4.762023   1.000000   1.000000
   34        4.825522      4.782177   1.000000   1.000000
   35        4.899363      4.831680   1.000000   1.000000
   36        4.900982      4.863840   1.000000   1.000000
   37        4.945877      4.897546   1.000000   1.000000
   38        4.981299      4.907182   1.000000   1.000000
   39        5.095458      5.046063   1.000000   1.000000
   40        5.201325      5.109913   1.000000   1.000000
   41        5.267049      5.144940   1.000000   1.000000
   42        5.303319      5.259851   1.000000   1.000000
   43        5.330844      5.336684   1.000000   1.000000
   44        5.412912      5.367698   1.000000   1.000000
   45        5.446308      5.387394   1.000000   1.000000
   46        5.491325      5.440139   1.000000   1.000000
   47        5.534573      5.483277   1.000000   1.000000
   48        5.570174      5.522374   1.000000   1.000000
   49        5.602457      5.534065   1.000000   1.000000
   50        5.618366      5.586828   1.000000   1.000000
   51        5.695832      5.653446   1.000000   1.000000
   52        5.778489      5.732382   1.000000   1.000000
   53        5.815985      5.802503   1.000000   1.000000
   54        5.847158      5.802798   1.000000   1.000000
   55        5.935573      5.810683   1.000000   1.000000
   56        6.006537      5.921253   1.000000   1.000000
   57        6.177829      6.116357   1.000000   1.000000
   58        6.205891      6.147879   1.000000   1.000000
   59        6.285183      6.153837   1.000000   1.000000
   60        6.303334      6.265173   1.000000   1.000000
   61        6.348564      6.302273   1.000000   1.000000
   62        6.406241      6.374043   1.000000   1.000000
   63        6.429710      6.400554   1.000000   1.000000
   64        6.464527      6.419901   1.000000   1.000000
   65        6.473250      6.433055   1.000000   1.000000
   66        6.514750      6.482131   1.000000   1.000000
   67        6.564953      6.488448   1.000000   1.000000
   68        6.591343      6.527680   1.000000   1.000000
   69        6.598082      6.568738   1.000000   1.000000
   70        6.663065      6.568744   1.000000   1.000000
   71        6.671550      6.617989   1.000000   1.000000
   72        6.675009      6.620077   1.000000   1.000000
   73        6.693919      6.697149   1.000000   1.000000
   74        6.721102      6.741418   1.000000   1.000000
   75        6.755306      6.774551   1.000000   1.000000
   76        6.796107      6.811415   1.000000   1.000000
   77        6.809943      6.833840   1.000000   1.000000
   78        6.863596      6.853373   1.000000   1.000000
   79        6.969186      6.931053   1.000000   1.000000
   80        6.976693      7.050362   1.000001   1.000008
   81        7.118542      7.224581   1.000066   1.001000
   82        7.285369      7.251773   1.003569   1.001817
   83        7.297909      7.256210   1.004507   1.001991
   84        7.314085      7.334431   1.006019   1.008425
   85        7.365666      7.359858   1.013411   1.012374
   86        7.475079      7.382653   1.035024   1.016746
   87        7.559530      7.490224   1.003416   1.035391
   88        7.586932      7.583088   0.966925   0.973080
   89        7.665742      7.635261   0.760796   0.858699
   90        7.754642      7.637100   0.401208   0.853048
   91        7.898307      7.718608   0.001243   0.552496
   92        7.961163      7.737286  -0.034519   0.473703
   93        8.044631      7.875287  -0.024575   0.033009
   94        8.128374      7.894674  -0.008356   0.005486
   95        8.141114      7.991026  -0.006779  -0.034677
   96        8.175662      8.040686  -0.003649  -0.025459
   97        8.259989      8.156700  -0.000592  -0.005171
   98        8.274078      8.183166  -0.000421  -0.003153
   99        8.308512      8.317868  -0.000174  -0.000135
  100        8.352926      8.388637  -0.000050  -0.000017
  101        8.444282      8.525716  -0.000003  -0.000000
  102        8.517284      8.540880  -0.000000  -0.000000
  103        8.616575      8.605122  -0.000000  -0.000000
  104        8.681252      8.639232  -0.000000  -0.000000
  105        8.736896      8.641677  -0.000000  -0.000000
  106        8.775626      8.677691  -0.000000  -0.000000
  107        8.835644      8.755554  -0.000000  -0.000000
  108        8.852133      8.792755  -0.000000  -0.000000
  109        8.861681      8.846866  -0.000000  -0.000000
  110        8.885585      8.941775  -0.000000  -0.000000
 
  0.2000000E+00  0.0000000E+00  0.0000000E+00  0.1333333E-01
    1       -2.427142     -2.434734   1.000000   1.000000
    2       -1.100671     -1.108490   1.000000   1.000000
    3       -0.259171     -0.277775   1.000000   1.000000
    4       -0.243989     -0.241240   1.000000   1.000000
    5       -0.057756     -0.063564   1.000000   1.000000
    6        0.570119      0.562100   1.000000   1.000000
    7        0.885564      0.872881   1.000000   1.000000
    8        0.934927      0.916602   1.000000   1.000000
    9        0.940047      0.940614   1.000000   1.000000
   10        1.439885      1.436017   1.000000   1.000000
   11        1.476790      1.461627   1.000000   1.000000
   12        1.494895      1.485205   1.000000   1.000000
   13        1.938308      1.908683   1.000000   1.000000
   14        2.309217      2.303880   1.000000   1.000000
   15        2.326850      2.316374   1.000000   1.000000
   16        2.337125      2.317737   1.000000   1.000000
   17        2.346395      2.322982   1.000000   1.000000
   18        2.842577      2.831234   1.000000   1.000000
   19        3.241660      3.199959   1.000000   1.000000
   20        3.285228      3.256042   1.000000   1.000000
   21        3.596979      3.580215   1.000000   1.000000
   22        3.648513      3.647489   1.000000   1.000000
   23        3.744186      3.733144   1.000000   1.000000
   24        4.074187      4.055893   1.000000   1.000000
   25        4.193519      4.136059   1.000000   1.000000
   26        4.295198      4.298865   1.000000   1.000000
   27        4.330702      4.312091   1.000000   1.000000
   28        4.481652      4.443967   1.000000   1.000000
   29        4.614739      4.562222   1.000000   1.000000
   30        4.625475      4.569347   1.000000   1.000000
   31        4.632393      4.596504   1.000000   1.000000
   32        4.633730      4.609435   1.000000   1.000000
   33        4.721977      4.728263   1.000000   1.000000
   34        4.746409      4.760127   1.000000   1.000000
   35        4.860699      4.821935   1.000000   1.000000
   36        4.939003      4.890454   1.000000   1.000000
   37        5.054433      4.960339   1.000000   1.000000
   38        5.082027      5.008649   1.000000   1.000000
   39        5.082464      5.020660   1.000000   1.000000
   40        5.126280      5.043752   1.000000   1.000000
   41        5.160557      5.096477   1.000000   1.000000
   42        5.297447      5.281277   1.000000   1.000000
   43        5.327063      5.310116   1.000000   1.000000
   44        5.395389      5.317013   1.000000   1.000000
   45        5.402708      5.376279   1.000000   1.000000
   46        5.477558      5.410226   1.000000   1.000000
   47        5.557793      5.482613   1.000000   1.000000
   48        5.574328      5.522775   1.000000   1.000000
   49        5.612049      5.575091   1.000000   1.000000
   50        5.696591      5.649363   1.000000   1.000000
   51        5.737181      5.697446   1.000000   1.000000
   52        5.762572      5.747899   1.000000   1.000000
   53        5.812734      5.787802   1.000000   1.000000
   54        5.866557      5.806506   1.000000   1.000000
   55        5.958278      5.914325   1.000000   1.000000
   56        5.994835      5.993476   1.000000   1.000000
   57        6.161964      6.102717   1.000000   1.000000
   58        6.176006      6.142310   1.000000   1.000000
   59        6.270496      6.164786   1.000000   1.000000
   60        6.293749      6.258849   1.000000   1.000000
   61        6.383751      6.289578   1.000000   1.000000
   62        6.405301      6.331435   1.000000   1.000000
   63        6.429570      6.387230   1.000000   1.000000
   64        6.446269      6.398492   1.000000   1.000000
   65        6.469014      6.406594   1.000000   1.000000
   66        6.533478      6.423458   1.000000   1.000000
   67        6.573179      6.448181   1.000000   1.000000
   68        6.587788      6.541506   1.000000   1.000000
   69        6.613356      6.546912   1.000000   1.000000
   70        6.650177      6.573931   1.000000   1.000000
   71        6.655632      6.591124   1.000000   1.000000
   72        6.661683      6.653379   1.000000   1.000000
   73        6.700293      6.686193   1.000000   1.000000
   74        6.737102      6.729060   1.000000   1.000000
   75        6.765442      6.737902   1.000000   1.000000
   76        6.791585      6.807399   1.000000   1.000000
   77        6.792310      6.857816   1.000000   1.000000
   78        6.855094      6.857876   1.000000   1.000000
   79        6.890192      6.863313   1.000000   1.000000
   80        7.015826      7.006294   1.000003   1.000002
   81        7.049795      7.087911   1.000008   1.000027
   82        7.162568      7.193326   1.000219   1.000478
   83        7.294804      7.223205   1.004257   1.000968
   84        7.306622      7.271775   1.005282   1.002738
   85        7.434379      7.367276   1.028372   1.013708
   86        7.490281      7.385942   1.035390   1.017443
   87        7.499674      7.492079   1.034682   1.035316
   88        7.577182      7.541873   0.981845   1.018629
   89        7.696418      7.656905   0.644370   0.791432
   90        7.784672      7.664572   0.282003   0.764852
   91        7.902142      7.767523  -0.002870   0.348463
   92        7.938945      7.793028  -0.028744   0.251336
   93        7.980521      7.883446  -0.035383   0.020377
   94        8.055232      7.927094  -0.022117  -0.022948
   95        8.100148      8.051138  -0.012763  -0.023054
   96        8.123957      8.077728  -0.008960  -0.017123
   97        8.206547      8.122835  -0.001969  -0.009106
   98        8.304992      8.197563  -0.000191  -0.002368
   99        8.342802      8.301964  -0.000068  -0.000206
  100        8.372967      8.374993  -0.000028  -0.000026
  101        8.393358      8.405851  -0.000015  -0.000010
  102        8.595119      8.526113  -0.000000  -0.000000
  103        8.650498      8.560536  -0.000000  -0.000000
  104        8.713491      8.562769  -0.000000  -0.000000
  105        8.721283      8.722125  -0.000000  -0.000000
  106        8.768428      8.808448  -0.000000  -0.000000
  107        8.899315      8.850715  -0.000000  -0.000000
  108        8.939905      8.894883  -0.000000  -0.000000
  109        8.946070      8.945352  -0.000000  -0.000000
  110        9.023080      8.983679  -0.000000  -0.000000
 
  0.4000000E+00  0.0000000E+00  0.0000000E+00  0.1333333E-01
    1       -2.157552     -2.165205   1.000000   1.000000
    2       -1.711383     -1.719008   1.000000   1.000000
    3       -0.013280     -0.031534   1.000000   1.000000
    4        0.000726      0.002938   1.000000   1.000000
    5        0.137626      0.130796   1.000000   1.000000
    6        0.391116      0.372488   1.000000   1.000000
    7        0.401657      0.403659   1.000000   1.000000
    8        0.458271      0.449025   1.000000   1.000000
    9        1.584403      1.574304   1.000000   1.000000
   10        1.624365      1.619570   1.000000   1.000000
   11        1.659323      1.642338   1.000000   1.000000
   12        1.770442      1.760999   1.000000   1.000000
   13        1.930863      1.923991   1.000000   1.000000
   14        1.960237      1.941577   1.000000   1.000000
   15        2.243126      2.232958   1.000000   1.000000
   16        2.353556      2.310863   1.000000   1.000000
   17        2.682525      2.674986   1.000000   1.000000
   18        2.942383      2.932908   1.000000   1.000000
   19        3.033005      3.006559   1.000000   1.000000
   20        3.585695      3.532006   1.000000   1.000000
   21        3.713965      3.662322   1.000000   1.000000
   22        3.780762      3.766320   1.000000   1.000000
   23        3.807455      3.806066   1.000000   1.000000
   24        3.989006      3.980451   1.000000   1.000000
   25        4.032880      4.008207   1.000000   1.000000
   26        4.151890      4.115302   1.000000   1.000000
   27        4.163668      4.184866   1.000000   1.000000
   28        4.364587      4.267232   1.000000   1.000000
   29        4.410491      4.318888   1.000000   1.000000
   30        4.440100      4.420062   1.000000   1.000000
   31        4.492189      4.533324   1.000000   1.000000
   32        4.542985      4.552195   1.000000   1.000000
   33        4.739911      4.713489   1.000000   1.000000
   34        4.774350      4.778160   1.000000   1.000000
   35        4.876725      4.838464   1.000000   1.000000
   36        4.949792      4.873730   1.000000   1.000000
   37        4.987129      4.956189   1.000000   1.000000
   38        5.055515      5.004852   1.000000   1.000000
   39        5.163289      5.047702   1.000000   1.000000
   40        5.215534      5.154123   1.000000   1.000000
   41        5.273970      5.174054   1.000000   1.000000
   42        5.293542      5.237009   1.000000   1.000000
   43        5.332389      5.260969   1.000000   1.000000
   44        5.345871      5.291149   1.000000   1.000000
   45        5.427292      5.410872   1.000000   1.000000
   46        5.451718      5.416026   1.000000   1.000000
   47        5.505694      5.490560   1.000000   1.000000
   48        5.578555      5.539051   1.000000   1.000000
   49        5.620722      5.609563   1.000000   1.000000
   50        5.701826      5.660462   1.000000   1.000000
   51        5.742998      5.670718   1.000000   1.000000
   52        5.777891      5.753567   1.000000   1.000000
   53        5.822325      5.802481   1.000000   1.000000
   54        5.939040      5.912074   1.000000   1.000000
   55        5.970695      5.931624   1.000000   1.000000
   56        5.994068      6.065099   1.000000   1.000000
   57        6.112288      6.087848   1.000000   1.000000
   58        6.146223      6.154525   1.000000   1.000000
   59        6.211151      6.193791   1.000000   1.000000
   60        6.239047      6.244846   1.000000   1.000000
   61        6.287137      6.260847   1.000000   1.000000
   62        6.334214      6.290073   1.000000   1.000000
   63        6.374440      6.295230   1.000000   1.000000
   64        6.423678      6.336083   1.000000   1.000000
   65        6.466494      6.356449   1.000000   1.000000
   66        6.467521      6.367165   1.000000   1.000000
   67        6.562851      6.408848   1.000000   1.000000
   68        6.613122      6.487713   1.000000   1.000000
   69        6.642880      6.491924   1.000000   1.000000
   70        6.658931      6.532712   1.000000   1.000000
   71        6.660227      6.579682   1.000000   1.000000
   72        6.694501      6.635824   1.000000   1.000000
   73        6.709791      6.684795   1.000000   1.000000
   74        6.739752      6.686972   1.000000   1.000000
   75        6.761915      6.774832   1.000000   1.000000
   76        6.779872      6.793735   1.000000   1.000000
   77        6.814992      6.845757   1.000000   1.000000
   78        6.858983      6.880061   1.000000   1.000000
   79        6.868248      6.883896   1.000000   1.000000
   80        6.972560      6.911192   1.000001   1.000000
   81        7.091492      6.991293   1.000030   1.000001
   82        7.169670      7.104602   1.000263   1.000044
   83        7.314972      7.178710   1.006105   1.000332
   84        7.327754      7.279889   1.007571   1.003215
   85        7.441833      7.345270   1.029967   1.009982
   86        7.550224      7.377735   1.012134   1.015747
   87        7.566396      7.517745   0.995792   1.030763
   88        7.593466      7.602909   0.955697   0.937525
   89        7.717300      7.659721   0.558364   0.781891
   90        7.748106      7.677325   0.428467   0.718669
   91        7.785350      7.815060   0.279500   0.177067
   92        7.787151      7.871000   0.272888   0.040245
   93        7.905257      7.879819  -0.005991   0.025787
   94        7.938686      7.951170  -0.028644  -0.032655
   95        7.953597      8.031924  -0.033199  -0.027454
   96        8.108740      8.039150  -0.011283  -0.025825
   97        8.215457      8.117461  -0.001630  -0.009903
   98        8.286298      8.233149  -0.000309  -0.001106
   99        8.323139      8.276438  -0.000117  -0.000397
  100        8.346469      8.292284  -0.000060  -0.000265
  101        8.424766      8.350727  -0.000005  -0.000053
  102        8.582831      8.401383  -0.000000  -0.000011
  103        8.643459      8.427364  -0.000000  -0.000005
  104        8.645529      8.576754  -0.000000  -0.000000
  105        8.690799      8.622095  -0.000000  -0.000000
  106        8.747512      8.761161  -0.000000  -0.000000
  107        8.868205      8.854386  -0.000000  -0.000000
  108        8.988142      8.928140  -0.000000  -0.000000
  109        9.058262      9.033467  -0.000000  -0.000000
  110        9.112518      9.092222  -0.000000  -0.000000
 
  0.0000000E+00  0.2000000E+00  0.0000000E+00  0.1333333E-01
    1       -2.427078     -2.434706   1.000000   1.000000
    2       -1.100885     -1.108568   1.000000   1.000000
    3       -0.270160     -0.284192   1.000000   1.000000
    4       -0.232484     -0.234267   1.000000   1.000000
    5       -0.057755     -0.063268   1.000000   1.000000
    6        0.570059      0.561722   1.000000   1.000000
    7        0.885039      0.877508   1.000000   1.000000
    8        0.929014      0.914535   1.000000   1.000000
    9        0.945836      0.942787   1.000000   1.000000
   10        1.421781      1.408382   1.000000   1.000000
   11        1.495455      1.476546   1.000000   1.000000
   12        1.501963      1.485711   1.000000   1.000000
   13        1.929620      1.917721   1.000000   1.000000
   14        2.296453      2.287249   1.000000   1.000000
   15        2.315863      2.298607   1.000000   1.000000
   16        2.348618      2.333127   1.000000   1.000000
   17        2.359536      2.333654   1.000000   1.000000
   18        2.837297      2.828946   1.000000   1.000000
   19        3.222049      3.194756   1.000000   1.000000
   20        3.300549      3.274192   1.000000   1.000000
   21        3.577108      3.561472   1.000000   1.000000
   22        3.683818      3.671107   1.000000   1.000000
   23        3.751862      3.737375   1.000000   1.000000
   24        4.078201      4.056992   1.000000   1.000000
   25        4.222582      4.150524   1.000000   1.000000
   26        4.259639      4.257100   1.000000   1.000000
   27        4.326203      4.315288   1.000000   1.000000
   28        4.455746      4.500681   1.000000   1.000000
   29        4.553079      4.537664   1.000000   1.000000
   30        4.601953      4.550935   1.000000   1.000000
   31        4.616798      4.599341   1.000000   1.000000
   32        4.668779      4.622195   1.000000   1.000000
   33        4.727775      4.691838   1.000000   1.000000
   34        4.891766      4.782702   1.000000   1.000000
   35        4.947294      4.874454   1.000000   1.000000
   36        4.958532      4.921832   1.000000   1.000000
   37        4.974898      4.958905   1.000000   1.000000
   38        5.053119      5.002555   1.000000   1.000000
   39        5.072788      5.024212   1.000000   1.000000
   40        5.098349      5.034899   1.000000   1.000000
   41        5.175824      5.149112   1.000000   1.000000
   42        5.298815      5.152542   1.000000   1.000000
   43        5.328918      5.267536   1.000000   1.000000
   44        5.329822      5.310254   1.000000   1.000000
   45        5.436306      5.400842   1.000000   1.000000
   46        5.441638      5.426639   1.000000   1.000000
   47        5.534132      5.514335   1.000000   1.000000
   48        5.560458      5.563521   1.000000   1.000000
   49        5.630289      5.569040   1.000000   1.000000
   50        5.753643      5.640098   1.000000   1.000000
   51        5.761211      5.666740   1.000000   1.000000
   52        5.813657      5.757078   1.000000   1.000000
   53        5.822536      5.758181   1.000000   1.000000
   54        5.894013      5.842085   1.000000   1.000000
   55        5.938100      5.884069   1.000000   1.000000
   56        5.989034      5.959334   1.000000   1.000000
   57        6.154089      6.021328   1.000000   1.000000
   58        6.184992      6.096659   1.000000   1.000000
   59        6.223975      6.200856   1.000000   1.000000
   60        6.302674      6.264759   1.000000   1.000000
   61        6.333970      6.281694   1.000000   1.000000
   62        6.352832      6.325561   1.000000   1.000000
   63        6.381268      6.373531   1.000000   1.000000
   64        6.427029      6.377613   1.000000   1.000000
   65        6.473747      6.409248   1.000000   1.000000
   66        6.478589      6.439426   1.000000   1.000000
   67        6.545957      6.482271   1.000000   1.000000
   68        6.555103      6.491043   1.000000   1.000000
   69        6.587866      6.509382   1.000000   1.000000
   70        6.648747      6.569176   1.000000   1.000000
   71        6.652135      6.582563   1.000000   1.000000
   72        6.698148      6.667467   1.000000   1.000000
   73        6.731992      6.710575   1.000000   1.000000
   74        6.744124      6.753015   1.000000   1.000000
   75        6.780833      6.760748   1.000000   1.000000
   76        6.805220      6.797602   1.000000   1.000000
   77        6.855016      6.818898   1.000000   1.000000
   78        6.871353      6.891965   1.000000   1.000000
   79        6.871697      6.938661   1.000000   1.000000
   80        6.979248      6.967046   1.000001   1.000000
   81        7.006218      7.121810   1.000002   1.000072
   82        7.109951      7.245822   1.000051   1.001600
   83        7.305141      7.258902   1.005138   1.002107
   84        7.359384      7.369095   1.012277   1.014041
   85        7.466017      7.430421   1.034104   1.027496
   86        7.466873      7.442040   1.034210   1.030011
   87        7.604098      7.501181   0.935158   1.034492
   88        7.606475      7.548357   0.930125   1.013690
   89        7.659994      7.603503   0.780823   0.936295
   90        7.831888      7.614560   0.127677   0.912191
   91        7.903033      7.703627  -0.003826   0.614922
   92        8.028382      7.748870  -0.028253   0.424941
   93        8.082727      7.903345  -0.016092  -0.004090
   94        8.102314      7.945352  -0.012376  -0.031032
   95        8.168641      7.995362  -0.004163  -0.034198
   96        8.172262      8.100541  -0.003892  -0.012673
   97        8.259824      8.131131  -0.000596  -0.007983
   98        8.287934      8.191221  -0.000297  -0.002692
   99        8.361324      8.360831  -0.000039  -0.000040
  100        8.384642      8.398493  -0.000019  -0.000013
  101        8.423638      8.409529  -0.000006  -0.000009
  102        8.462940      8.535914  -0.000001  -0.000000
  103        8.511297      8.565747  -0.000000  -0.000000
  104        8.522342      8.597646  -0.000000  -0.000000
  105        8.667656      8.663957  -0.000000  -0.000000
  106        8.755685      8.802988  -0.000000  -0.000000
  107        8.904861      8.869717  -0.000000  -0.000000
  108        8.974967      8.872677  -0.000000  -0.000000
  109        8.980646      8.944317  -0.000000  -0.000000
  110        9.032238      8.998812  -0.000000  -0.000000
 
  0.2000000E+00  0.2000000E+00  0.0000000E+00  0.1333333E-01
    1       -2.336848     -2.344492   1.000000   1.000000
    2       -1.024092     -1.029154   1.000000   1.000000
    3       -1.005632     -1.016228   1.000000   1.000000
    4        0.008123      0.002272   1.000000   1.000000
    5        0.229835      0.221980   1.000000   1.000000
    6        0.641532      0.635451   1.000000   1.000000
    7        0.657825      0.646894   1.000000   1.000000
    8        0.939440      0.926498   1.000000   1.000000
    9        0.959507      0.951862   1.000000   1.000000
   10        1.588844      1.578580   1.000000   1.000000
   11        1.728616      1.722154   1.000000   1.000000
   12        1.774995      1.762165   1.000000   1.000000
   13        1.849120      1.834782   1.000000   1.000000
   14        1.992772      1.973306   1.000000   1.000000
   15        2.004657      1.980642   1.000000   1.000000
   16        2.811347      2.791359   1.000000   1.000000
   17        2.874843      2.842310   1.000000   1.000000
   18        2.883750      2.866408   1.000000   1.000000
   19        2.892499      2.886193   1.000000   1.000000
   20        2.948152      2.934277   1.000000   1.000000
   21        3.670188      3.633377   1.000000   1.000000
   22        3.790209      3.778023   1.000000   1.000000
   23        3.800476      3.785011   1.000000   1.000000
   24        3.871606      3.851461   1.000000   1.000000
   25        4.132187      4.089964   1.000000   1.000000
   26        4.249684      4.327358   1.000000   1.000000
   27        4.363243      4.337274   1.000000   1.000000
   28        4.397792      4.360411   1.000000   1.000000
   29        4.497688      4.382699   1.000000   1.000000
   30        4.508402      4.456174   1.000000   1.000000
   31        4.540767      4.515226   1.000000   1.000000
   32        4.642209      4.646381   1.000000   1.000000
   33        4.690988      4.697522   1.000000   1.000000
   34        4.829505      4.771159   1.000000   1.000000
   35        4.857680      4.810096   1.000000   1.000000
   36        4.917776      4.841362   1.000000   1.000000
   37        4.939518      4.875720   1.000000   1.000000
   38        4.988483      4.957540   1.000000   1.000000
   39        5.105927      5.078207   1.000000   1.000000
   40        5.175141      5.122407   1.000000   1.000000
   41        5.277174      5.173581   1.000000   1.000000
   42        5.286189      5.219647   1.000000   1.000000
   43        5.343477      5.284393   1.000000   1.000000
   44        5.367363      5.303072   1.000000   1.000000
   45        5.422489      5.408605   1.000000   1.000000
   46        5.434993      5.418773   1.000000   1.000000
   47        5.569748      5.536027   1.000000   1.000000
   48        5.657078      5.589063   1.000000   1.000000
   49        5.715052      5.617173   1.000000   1.000000
   50        5.754658      5.680379   1.000000   1.000000
   51        5.767119      5.713953   1.000000   1.000000
   52        5.808711      5.765539   1.000000   1.000000
   53        5.813094      5.821477   1.000000   1.000000
   54        5.906387      5.859163   1.000000   1.000000
   55        5.910233      5.874901   1.000000   1.000000
   56        5.952951      6.021686   1.000000   1.000000
   57        6.125142      6.041358   1.000000   1.000000
   58        6.174954      6.088259   1.000000   1.000000
   59        6.246824      6.201092   1.000000   1.000000
   60        6.277017      6.252090   1.000000   1.000000
   61        6.305583      6.254161   1.000000   1.000000
   62        6.391511      6.285938   1.000000   1.000000
   63        6.411258      6.330052   1.000000   1.000000
   64        6.431469      6.404758   1.000000   1.000000
   65        6.491400      6.404808   1.000000   1.000000
   66        6.522536      6.416344   1.000000   1.000000
   67        6.535007      6.466028   1.000000   1.000000
   68        6.576674      6.482263   1.000000   1.000000