       N       E                     dE             d eps       ncg     rms          ort
DAV:   1     0.135264368988E+04    0.13526E+04   -0.58482E+04  5720   0.144E+03
DAV:   2    -0.556997018909E+02   -0.14083E+04   -0.13789E+04  5720   0.446E+02
DAV:   3    -0.236299361351E+03   -0.18060E+03   -0.16354E+03  5720   0.172E+02
DAV:   4    -0.265357073234E+03   -0.29058E+02   -0.25980E+02  5720   0.751E+01
DAV:   5    -0.268743297847E+03   -0.33862E+01   -0.32190E+01  5720   0.226E+01
DAV:   6    -0.269030870505E+03   -0.28757E+00   -0.27934E+00  5720   0.576E+00
DAV:   7    -0.269063414994E+03   -0.32544E-01   -0.32001E-01  5720   0.173E+00
DAV:   8    -0.269066582430E+03   -0.31674E-02   -0.31299E-02  5720   0.457E-01
SDA:   9    -0.665389706966E+02    0.20253E+03   -0.31299E-02  5720   0.226E+04 0.000E+00
CGA:  10    -0.210404060351E+03   -0.14387E+03   -0.14643E+03  5720   0.998E+02 0.303E+03
CGA:  11    -0.218766898363E+03   -0.83628E+01   -0.82891E+01  5720   0.649E+02 0.147E+01
CGA:  12    -0.226927184432E+03   -0.81603E+01   -0.82554E+01  5720   0.892E+02 0.138E-01
CGA:  13    -0.233354702874E+03   -0.64275E+01   -0.65059E+01  5720   0.117E+02 0.307E+00
CGA:  14    -0.234242323944E+03   -0.88762E+00   -0.89697E+00  5720   0.527E+01-0.590E-01
CGA:  15    -0.235025116914E+03   -0.78279E+00   -0.78352E+00  5720   0.621E+01 0.137E-01
CGA:  16    -0.235556403854E+03   -0.53129E+00   -0.53249E+00  5720   0.176E+01 0.205E-02
CGA:  17    -0.235715866851E+03   -0.15946E+00   -0.15955E+00  5720   0.130E+01 0.493E-03
CGA:  18    -0.235900277684E+03   -0.18441E+00   -0.18449E+00  5720   0.121E+01 0.286E-03
CGA:  19    -0.236006541550E+03   -0.10626E+00   -0.10677E+00  5720   0.403E+00-0.314E-02
CGA:  20    -0.236051822384E+03   -0.45281E-01   -0.45380E-01  5720   0.368E+00 0.137E-04
CGA:  21    -0.236122313672E+03   -0.70491E-01   -0.70439E-01  5720   0.344E+00 0.984E-03
CGA:  22    -0.236152731965E+03   -0.30418E-01   -0.30432E-01  5720   0.127E+00-0.289E-03
CGA:  23    -0.236167393349E+03   -0.14661E-01   -0.14657E-01  5720   0.121E+00-0.178E-03
CGA:  24    -0.236186618621E+03   -0.19225E-01   -0.19229E-01  5720   0.132E+00-0.478E-03
CGA:  25    -0.236200376969E+03   -0.13758E-01   -0.13760E-01  5720   0.814E-01-0.298E-03
CGA:  26    -0.236213070031E+03   -0.12693E-01   -0.12695E-01  5720   0.729E-01-0.216E-03
CGA:  27    -0.236221349721E+03   -0.82797E-02   -0.82750E-02  5720   0.415E-01-0.168E-04
CGA:  28    -0.236225527119E+03   -0.41774E-02   -0.41750E-02  5720   0.265E-01 0.438E-04
CGA:  29    -0.236229786186E+03   -0.42591E-02   -0.42591E-02  5720   0.255E-01 0.349E-04
CGA:  30    -0.236233099212E+03   -0.33130E-02   -0.33134E-02  5720   0.179E-01 0.360E-04
CGA:  31    -0.236235730006E+03   -0.26308E-02   -0.26308E-02  5720   0.175E-01 0.409E-04
CGA:  32    -0.236237859849E+03   -0.21298E-02   -0.21307E-02  5720   0.112E-01 0.727E-04
CGA:  33    -0.236239109458E+03   -0.12496E-02   -0.12517E-02  5720   0.692E-02 0.671E-04
CGA:  34    -0.236240002269E+03   -0.89281E-03   -0.89342E-03  5720   0.592E-02 0.518E-04
CGA:  35    -0.236240710470E+03   -0.70820E-03   -0.70910E-03  5720   0.344E-02 0.336E-04
CGA:  36    -0.236241288325E+03   -0.57785E-03   -0.57734E-03  5720   0.408E-02 0.198E-04
CGA:  37    -0.236241898161E+03   -0.60984E-03   -0.60970E-03  5720   0.339E-02 0.237E-04
CGA:  38    -0.236242214234E+03   -0.31607E-03   -0.31687E-03  5720   0.123E-02 0.173E-04
CGA:  39    -0.236242357268E+03   -0.14303E-03   -0.14319E-03  5720   0.114E-02 0.621E-05
SDA:  40    -0.236242575769E+03   -0.21850E-03   -0.21877E-03  5720   0.143E-02-0.568E-05
CGA:  41    -0.236242683260E+03   -0.10749E-03   -0.10700E-03  5720   0.735E-03-0.758E-05
CGA:  42    -0.236242763040E+03   -0.79780E-04   -0.79461E-04  5720   0.399E-03-0.107E-04
CGA:  43    -0.236242848778E+03   -0.85738E-04   -0.86486E-04  5720   0.856E-03-0.903E-05
CGA:  44    -0.236242932588E+03   -0.83811E-04   -0.83488E-04  5720   0.240E-03-0.775E-05
CGA:  45    -0.236242973278E+03   -0.40690E-04   -0.40815E-04  5720   0.429E-03-0.393E-05
CGA:  46    -0.236243040447E+03   -0.67169E-04   -0.67281E-04  5720   0.225E-03-0.612E-05
CGA:  47    -0.236243062845E+03   -0.22399E-04   -0.22374E-04  5720   0.212E-03-0.620E-06
CGA:  48    -0.236243107133E+03   -0.44288E-04   -0.44215E-04  5720   0.197E-03 0.125E-05
CGA:  49    -0.236243125459E+03   -0.18326E-04   -0.18371E-04  5720   0.125E-03 0.116E-05
CGA:  50    -0.236243150829E+03   -0.25370E-04   -0.25281E-04  5720   0.111E-03 0.164E-05
CGA:  51    -0.236243159842E+03   -0.90130E-05   -0.90616E-05  5720   0.446E-04 0.987E-06
CGA:  52    -0.236243169577E+03   -0.97349E-05   -0.96336E-05  5720   0.790E-04 0.142E-05
CGA:  53    -0.236243176775E+03   -0.71988E-05   -0.72452E-05  5720   0.237E-04 0.917E-06
CGA:  54    -0.236243182952E+03   -0.61765E-05   -0.61971E-05  5720   0.564E-04-0.201E-06
CGA:  55    -0.236243188074E+03   -0.51225E-05   -0.51174E-05  5720   0.149E-04 0.337E-08
CGA:  56    -0.236243189439E+03   -0.13647E-05   -0.13837E-05  5720   0.115E-04 0.376E-06
CGA:  57    -0.236243191443E+03   -0.20034E-05   -0.19860E-05  5720   0.954E-05 0.663E-06
CGA:  58    -0.236243193452E+03   -0.20092E-05   -0.20390E-05  5720   0.135E-04-0.523E-06
CGA:  59    -0.236243194817E+03   -0.13648E-05   -0.13450E-05  5720   0.580E-05-0.503E-06
CGA:  60    -0.236243195950E+03   -0.11337E-05   -0.11204E-05  5720   0.101E-04 0.219E-06
CGA:  61    -0.236243196797E+03   -0.84637E-06   -0.86291E-06  5720   0.256E-05 0.238E-06
CGA:  62    -0.236243197166E+03   -0.36931E-06   -0.36940E-06  5720   0.352E-05-0.259E-07
CGA:  63    -0.236243197767E+03   -0.60072E-06   -0.60398E-06  5720   0.202E-05-0.119E-06
CGA:  64    -0.236243197993E+03   -0.22646E-06   -0.23007E-06  5720   0.207E-05 0.108E-06
CGA:  65    -0.236243198294E+03   -0.30116E-06   -0.30198E-06  5720   0.929E-06 0.182E-06
CGA:  66    -0.236243198429E+03   -0.13517E-06   -0.13384E-06  5720   0.117E-05-0.138E-06
CGA:  67    -0.236243198576E+03   -0.14641E-06   -0.14704E-06  5720   0.847E-06-0.316E-06
CGA:  68    -0.236243198646E+03   -0.70380E-07   -0.70750E-07  5720   0.787E-06-0.174E-08
   1 F= -.23624320E+03 E0= -.23624744E+03  d E =0.127255E-01  mag=    -1.1696
