 vasp.5.4.4.18Apr17-6-g9f103f2a35 (build Dec 20 2018 12:05:58) complex          
  
 executed on             LinuxIFC date 2019.06.20  16:41:20
 running on   32 total cores
 distrk:  each k-point on    8 cores,    4 groups
 distr:  one band on NCORES_PER_BAND=   4 cores,    2 groups


--------------------------------------------------------------------------------------------------------


 INCAR:
 POTCAR:    PAW_PBE Al 04Jan2001                  
 POTCAR:    PAW_PBE Mn 06Sep2000                  

 ----------------------------------------------------------------------------- 
|                                                                             |
|           W    W    AA    RRRRR   N    N  II  N    N   GGGG   !!!           |
|           W    W   A  A   R    R  NN   N  II  NN   N  G    G  !!!           |
|           W    W  A    A  R    R  N N  N  II  N N  N  G       !!!           |
|           W WW W  AAAAAA  RRRRR   N  N N  II  N  N N  G  GGG   !            |
|           WW  WW  A    A  R   R   N   NN  II  N   NN  G    G                |
|           W    W  A    A  R    R  N    N  II  N    N   GGGG   !!!           |
|                                                                             |
|      You have enabled k-point parallelism (KPAR>1).                         |
|      This developmental code was originally  written by Paul Kent at ORNL,  |
|      and carefully double checked in Vienna.                                |
|      GW as well as linear response parallelism added by Martijn Marsman     |
|      and Georg Kresse.                                                      |
|      Carefully verify results versus KPAR=1.                                |
|      Report problems to Paul Kent and Vienna.                               |
|                                                                             |
 ----------------------------------------------------------------------------- 

 POTCAR:    PAW_PBE Al 04Jan2001                  
   VRHFIN =Al: s2p1                                                             
   LEXCH  = PE                                                                  
   EATOM  =    53.5387 eV,    3.9350 Ry                                         
                                                                                
   TITEL  = PAW_PBE Al 04Jan2001                                                
   LULTRA =        F    use ultrasoft PP ?                                      
   IUNSCR =        1    unscreen: 0-lin 1-nonlin 2-no                           
   RPACOR =    1.500    partial core radius                                     
   POMASS =   26.981; ZVAL   =    3.000    mass and valenz                      
   RCORE  =    1.900    outmost cutoff radius                                   
   RWIGS  =    2.650; RWIGS  =    1.402    wigner-seitz radius (au A)           
   ENMAX  =  240.300; ENMIN  =  180.225 eV                                      
   ICORE  =        2    local potential                                         
   LCOR   =        T    correct aug charges                                     
   LPAW   =        T    paw PP                                                  
   EAUG   =  291.052                                                            
   DEXC   =    0.000                                                            
   RMAX   =    1.939    core radius for proj-oper                               
   RAUG   =    1.300    factor for augmentation sphere                          
   RDEP   =    1.966    radius for radial grids                                 
   RDEPT  =    1.856    core radius for aug-charge                              
                                                                                
   Atomic configuration                                                         
    6 entries                                                                   
     n  l   j            E        occ.                                          
     1  0  0.50     -1511.1048   2.0000                                         
     2  0  0.50      -108.1629   2.0000                                         
     2  1  1.50       -69.6402   6.0000                                         
     3  0  0.50        -7.7528   2.0000                                         
     3  1  1.50        -2.7121   1.0000                                         
     3  2  2.50        -2.7212   0.0000                                         
   Description                                                                  
     l       E           TYP  RCUT    TYP  RCUT                                 
     0     -7.7528455     23  1.900                                             
     0     -3.3096929     23  1.900                                             
     1     -2.7120682     23  1.900                                             
     1     13.6058260     23  1.900                                             
     2     -2.7211652      7  1.900                                             
  local pseudopotential read in
  partial core-charges read in
  partial kinetic energy density read in
  atomic valenz-charges read in
  non local Contribution for L=           0  read in
    real space projection operators read in
  non local Contribution for L=           0  read in
    real space projection operators read in
  non local Contribution for L=           1  read in
    real space projection operators read in
  non local Contribution for L=           1  read in
    real space projection operators read in
    PAW grid and wavefunctions read in
 
   number of l-projection  operators is LMAX  =           4
   number of lm-projection operators is LMMAX =           8
 
 POTCAR:    PAW_PBE Mn 06Sep2000                  
   VRHFIN =Mn: d6 s1                                                            
   LEXCH  = PE                                                                  
   EATOM  =   416.7541 eV,   30.6306 Ry                                         
                                                                                
   TITEL  = PAW_PBE Mn 06Sep2000                                                
   LULTRA =        F    use ultrasoft PP ?                                      
   IUNSCR =        1    unscreen: 0-lin 1-nonlin 2-no                           
   RPACOR =    2.000    partial core radius                                     
   POMASS =   54.938; ZVAL   =    7.000    mass and valenz                      
   RCORE  =    2.300    outmost cutoff radius                                   
   RWIGS  =    2.500; RWIGS  =    1.323    wigner-seitz radius (au A)           
   ENMAX  =  269.864; ENMIN  =  202.398 eV                                      
   RCLOC  =    1.725    cutoff for local pot                                    
   LCOR   =        T    correct aug charges                                     
   LPAW   =        T    paw PP                                                  
   EAUG   =  500.711                                                            
   DEXC   =    0.000                                                            
   RMAX   =    2.343    core radius for proj-oper                               
   RAUG   =    1.300    factor for augmentation sphere                          
   RDEP   =    2.338    radius for radial grids                                 
   RDEPT  =    1.911    core radius for aug-charge                              
                                                                                
   Atomic configuration                                                         
    9 entries                                                                   
     n  l   j            E        occ.                                          
     1  0  0.50     -6424.8288   2.0000                                         
     2  0  0.50      -739.1154   2.0000                                         
     2  1  1.50      -625.3949   6.0000                                         
     3  0  0.50       -81.6100   2.0000                                         
     3  1  1.50       -50.4667   6.0000                                         
     3  2  2.50        -3.3745   6.0000                                         
     4  0  0.50        -4.1331   1.0000                                         
     4  1  0.50        -4.0817   0.0000                                         
     4  3  2.50        -1.3606   0.0000                                         
   Description                                                                  
     l       E           TYP  RCUT    TYP  RCUT                                 
     2     -3.3744664     23  2.300                                             
     2     -4.7350490     23  2.300                                             
     0     -4.1331408     23  2.300                                             
     0      7.6656614     23  2.300                                             
     1     -2.7211652     23  2.300                                             
     1     20.4087390     23  2.300                                             
  local pseudopotential read in
  partial core-charges read in
  partial kinetic energy density read in
  atomic valenz-charges read in
  non local Contribution for L=           2  read in
    real space projection operators read in
  non local Contribution for L=           2  read in
    real space projection operators read in
  non local Contribution for L=           0  read in
    real space projection operators read in
  non local Contribution for L=           0  read in
    real space projection operators read in
  non local Contribution for L=           1  read in
    real space projection operators read in
  non local Contribution for L=           1  read in
    real space projection operators read in
    PAW grid and wavefunctions read in
 
   number of l-projection  operators is LMAX  =           6
   number of lm-projection operators is LMMAX =          18
 

 ----------------------------------------------------------------------------- 
|                                                                             |
|  ADVICE TO THIS USER RUNNING 'VASP/VAMP'   (HEAR YOUR MASTER'S VOICE ...):  |
|                                                                             |
|      You have a (more or less) 'large supercell' and for larger cells       |
|      it might be more efficient to use real space projection opertators     |
|      So try LREAL= Auto  in the INCAR   file.                               |
|      Mind:          For very  accurate calculation you might also keep the  |
|      reciprocal projection scheme          (i.e. LREAL=.FALSE.)             |
|                                                                             |
 ----------------------------------------------------------------------------- 

  PAW_PBE Al 04Jan2001                  :
 energy of atom  1       EATOM=  -53.5387
 kinetic energy error for atom=    0.0005 (will be added to EATOM!!)
  PAW_PBE Mn 06Sep2000                  :
 energy of atom  2       EATOM= -416.7541
 kinetic energy error for atom=    0.0080 (will be added to EATOM!!)
 
 
 POSCAR: NewRef: 18, @ ['Mn', array([1.37502469, 
  positions in cartesian coordinates
  velocities in cartesian coordinates
  No initial velocities read in
 exchange correlation table for  LEXCH =        8
   RHO(1)=    0.500       N(1)  =     2000
   RHO(2)=  100.500       N(2)  =     4000
 


--------------------------------------------------------------------------------------------------------


 ion  position               nearest neighbor table
   1  0.000  0.000  0.000-  20 2.61  24 2.61  32 2.61  36 2.61  31 2.61  23 2.61  35 2.61  19 2.61
                             3 2.75   7 2.75   5 2.75  13 2.75
   2  0.000  0.000  0.500-  19 2.61  23 2.61  31 2.61  35 2.61  20 2.61  32 2.61  24 2.61  36 2.61
                             4 2.75   8 2.75   6 2.75  14 2.75
   3  0.000  0.333  0.000-  20 2.61  32 2.61  22 2.61  34 2.61  19 2.61  31 2.61  33 2.61  21 2.61
                             9 2.75   1 2.75   5 2.75  15 2.75
   4  0.000  0.333  0.500-  19 2.61  31 2.61  21 2.61  33 2.61  32 2.61  20 2.61  22 2.61  34 2.61
                            10 2.75   2 2.75   6 2.75  16 2.75
   5  0.000  0.667  0.000-  22 2.61  34 2.61  24 2.61  36 2.61  21 2.61  33 2.61  35 2.61  23 2.61
                             3 2.75  11 2.75   1 2.75  17 2.75
   6  0.000  0.667  0.500-  21 2.61  33 2.61  23 2.61  35 2.61  34 2.61  22 2.61  24 2.61  36 2.61
                             4 2.75  12 2.75   2 2.75  18 2.75
   7  0.333  0.000  0.000-  20 2.61  24 2.61  26 2.61  30 2.61  23 2.61  19 2.61  29 2.61  25 2.61
                            13 2.75   1 2.75   9 2.75  11 2.75
   8  0.333  0.000  0.500-  19 2.61  23 2.61  25 2.61  29 2.61  20 2.61  24 2.61  26 2.61  30 2.61
                            14 2.75   2 2.75  10 2.75  12 2.75
   9  0.333  0.333  0.000-  20 2.61  22 2.61  26 2.61  19 2.61  28 2.61  21 2.61  25 2.61  27 2.61
                             3 2.75   7 2.75  11 2.75  15 2.75
  10  0.333  0.333  0.500-  19 2.61  21 2.61  25 2.61  20 2.61  27 2.61  26 2.61  22 2.61  28 2.61
                             4 2.75   8 2.75  12 2.75  16 2.75
  11  0.333  0.667  0.000-  22 2.61  24 2.61  28 2.61  21 2.61  30 2.61  23 2.61  27 2.61  29 2.61
                            17 2.75   5 2.75   9 2.75   7 2.75
  12  0.333  0.667  0.500-  21 2.61  23 2.61  27 2.61  22 2.61  29 2.61  28 2.61  24 2.61  30 2.61
                            18 2.75   6 2.75  10 2.75   8 2.75
  13  0.667  0.000  0.000-  26 2.61  30 2.61  32 2.61  36 2.61  29 2.61  25 2.61  35 2.61  31 2.61
                             7 2.75  15 2.75   1 2.75  17 2.75
  14  0.667  0.000  0.500-  25 2.61  29 2.61  31 2.61  35 2.61  26 2.61  30 2.61  32 2.61  36 2.61
                             8 2.75  16 2.75   2 2.75  18 2.75
  15  0.667  0.333  0.000-  26 2.61  28 2.61  32 2.61  25 2.61  34 2.61  27 2.61  31 2.61  33 2.61
                            17 2.75   9 2.75  13 2.75   3 2.75
  16  0.667  0.333  0.500-  25 2.61  27 2.61  31 2.61  26 2.61  33 2.61  32 2.61  28 2.61  34 2.61
                            18 2.75  10 2.75  14 2.75   4 2.75
  17  0.667  0.667  0.000-  28 2.61  30 2.61  34 2.61  27 2.61  36 2.61  29 2.61  33 2.61  35 2.61
                            11 2.75  15 2.75  13 2.75   5 2.75
  18  0.667  0.667  0.500-  27 2.61  29 2.61  33 2.61  28 2.61  35 2.61  34 2.61  30 2.61  36 2.61
                            12 2.75  16 2.75  14 2.75   6 2.75
  19  0.167  0.167  0.250-  10 2.61   8 2.61   4 2.61   9 2.61   2 2.61   7 2.61   3 2.61   1 2.61
                            21 2.75  25 2.75  23 2.75  31 2.75
  20  0.167  0.167  0.750-   9 2.61   7 2.61   3 2.61  10 2.61   1 2.61   4 2.61   8 2.61   2 2.61
                            22 2.75  26 2.75  24 2.75  32 2.75
  21  0.167  0.500  0.250-  12 2.61  10 2.61   6 2.61  11 2.61   4 2.61   9 2.61   5 2.61   3 2.61
                            19 2.75  23 2.75  27 2.75  33 2.75
  22  0.167  0.500  0.750-  11 2.61   9 2.61   5 2.61  12 2.61   3 2.61   6 2.61  10 2.61   4 2.61
                            20 2.75  24 2.75  28 2.75  34 2.75
  23  0.167  0.833  0.250-   8 2.61  12 2.61   2 2.61   6 2.61  11 2.61   7 2.61   5 2.61   1 2.61
                            21 2.75  29 2.75  19 2.75  35 2.75
  24  0.167  0.833  0.750-   7 2.61  11 2.61   1 2.61   5 2.61   8 2.61  12 2.61   2 2.61   6 2.61
                            22 2.75  30 2.75  20 2.75  36 2.75
  25  0.500  0.167  0.250-  16 2.61  14 2.61  10 2.61  15 2.61   8 2.61  13 2.61   9 2.61   7 2.61
                            19 2.75  27 2.75  31 2.75  29 2.75
  26  0.500  0.167  0.750-  15 2.61  13 2.61   9 2.61  16 2.61   7 2.61  10 2.61  14 2.61   8 2.61
                            20 2.75  28 2.75  32 2.75  30 2.75
  27  0.500  0.500  0.250-  18 2.61  16 2.61  12 2.61  17 2.61  10 2.61  15 2.61  11 2.61   9 2.61
                            21 2.75  25 2.75  29 2.75  33 2.75
  28  0.500  0.500  0.750-  17 2.61  15 2.61  11 2.61  18 2.61   9 2.61  12 2.61  16 2.61  10 2.61
                            22 2.75  26 2.75  30 2.75  34 2.75
  29  0.500  0.833  0.250-  14 2.61  18 2.61   8 2.61  12 2.61  17 2.61  13 2.61  11 2.61   7 2.61
                            23 2.75  27 2.75  35 2.75  25 2.75
  30  0.500  0.833  0.750-  13 2.61  17 2.61   7 2.61  11 2.61  14 2.61  18 2.61   8 2.61  12 2.61
                            24 2.75  28 2.75  36 2.75  26 2.75
  31  0.833  0.167  0.250-   4 2.61  16 2.61  14 2.61   2 2.61  15 2.61   3 2.61  13 2.61   1 2.61
                            25 2.75  33 2.75  19 2.75  35 2.75
  32  0.833  0.167  0.750-   3 2.61  15 2.61  13 2.61   1 2.61   4 2.61  16 2.61   2 2.61  14 2.61
                            26 2.75  34 2.75  20 2.75  36 2.75
  33  0.833  0.500  0.250-   6 2.61  18 2.61  16 2.61   4 2.61  17 2.61   5 2.61  15 2.61   3 2.61
                            27 2.75  31 2.75  35 2.75  21 2.75
  34  0.833  0.500  0.750-   5 2.61  17 2.61  15 2.61   3 2.61   6 2.61  18 2.61   4 2.61  16 2.61
                            28 2.75  32 2.75  36 2.75  22 2.75
  35  0.833  0.833  0.250-   2 2.61   6 2.61  14 2.61  18 2.61  13 2.61   5 2.61  17 2.61   1 2.61
                            29 2.75  33 2.75  31 2.75  23 2.75
  36  0.833  0.833  0.750-   1 2.61   5 2.61  13 2.61  17 2.61   2 2.61  14 2.61   6 2.61  18 2.61
                            30 2.75  34 2.75  32 2.75  24 2.75
 
  LATTYP: Found a simple tetragonal cell.
 ALAT       =     8.2501481662
 C/A-ratio  =     0.8428059861
  
  Lattice vectors:
  
 A1 = (   8.2501481662,   0.0000000000,   0.0000000000)
 A2 = (   0.0000000000,   8.2501481662,   0.0000000000)
 A3 = (   0.0000000000,   0.0000000000,   6.9532742610)


Analysis of symmetry for initial positions (statically):
=====================================================================
 Subroutine PRICEL returns following result:
 
  LATTYP: Found a simple tetragonal cell.
 ALAT       =     2.7500493888
 C/A-ratio  =     1.2642089792
  
  Lattice vectors:
  
 A1 = (   2.7500493888,   0.0000000000,   0.0000000000)
 A2 = (   0.0000000000,   2.7500493888,   0.0000000000)
 A3 = (   0.0000000000,   0.0000000000,   3.4766371305)
 
  18 primitive cells build up your supercell.
 

 Routine SETGRP: Setting up the symmetry group for a 
 simple tetragonal supercell.


 Subroutine GETGRP returns: Found 16 space group operations
 (whereof 16 operations were pure point group operations)
 out of a pool of 16 trial point group operations.


The static configuration has the point symmetry D_4h.


Analysis of symmetry for dynamics (positions and initial velocities):
=====================================================================
 Subroutine PRICEL returns following result:
 
  LATTYP: Found a simple tetragonal cell.
 ALAT       =     2.7500493888
 C/A-ratio  =     1.2642089792
  
  Lattice vectors:
  
 A1 = (   2.7500493888,   0.0000000000,   0.0000000000)
 A2 = (   0.0000000000,   2.7500493888,   0.0000000000)
 A3 = (   0.0000000000,   0.0000000000,   3.4766371305)
 
  18 primitive cells build up your supercell.
 

 Routine SETGRP: Setting up the symmetry group for a 
 simple tetragonal supercell.


 Subroutine GETGRP returns: Found 16 space group operations
 (whereof 16 operations were pure point group operations)
 out of a pool of 16 trial point group operations.


The dynamic configuration has the point symmetry D_4h.


Analysis of structural, dynamic, and magnetic symmetry:
=====================================================================
 Subroutine PRICEL returns:
 Original cell was already a primitive cell.
 

 Routine SETGRP: Setting up the symmetry group for a 
 simple tetragonal supercell.


 Subroutine GETGRP returns: Found  2 space group operations
 (whereof  1 operations were pure point group operations)
 out of a pool of 16 trial point group operations.


The magnetic configuration has the point symmetry C_1 .
 The point group associated with its full space group is C_1h.


 Subroutine INISYM returns: Found  2 space group operations
 (whereof  1 operations are pure point group operations),
 and found     1 'primitive' translations

 
 
 KPOINTS: automatic KPOINTS                       

Automatic generation of k-mesh.
 generate k-points for:    5    5    6
Space group operators:
 irot       det(A)        alpha          n_x          n_y          n_z        tau_x        tau_y        tau_z
    1     1.000000     0.000001     1.000000     0.000000     0.000000     0.000000     0.000000     0.000000
    2    -1.000000   179.999999     0.000000     0.000000     1.000000     0.000000     0.000000     0.500000
 
 Subroutine IBZKPT returns following result:
 ===========================================
 
 Found     52 irreducible k-points:
 
 Following reciprocal coordinates:
            Coordinates               Weight
  0.000000  0.000000  0.000000      1.000000
  0.200000  0.000000  0.000000      2.000000
  0.400000  0.000000  0.000000      2.000000
  0.000000  0.200000  0.000000      2.000000
  0.200000  0.200000  0.000000      2.000000
  0.400000  0.200000  0.000000      2.000000
 -0.400000  0.200000  0.000000      2.000000
 -0.200000  0.200000  0.000000      2.000000
  0.000000  0.400000  0.000000      2.000000
  0.200000  0.400000  0.000000      2.000000
  0.400000  0.400000  0.000000      2.000000
 -0.400000  0.400000  0.000000      2.000000
 -0.200000  0.400000  0.000000      2.000000
  0.000000  0.000000  0.166667      2.000000
  0.200000  0.000000  0.166667      4.000000
  0.400000  0.000000  0.166667      4.000000
  0.000000  0.200000  0.166667      4.000000
  0.200000  0.200000  0.166667      4.000000
  0.400000  0.200000  0.166667      4.000000
 -0.400000  0.200000  0.166667      4.000000
 -0.200000  0.200000  0.166667      4.000000
  0.000000  0.400000  0.166667      4.000000
  0.200000  0.400000  0.166667      4.000000
  0.400000  0.400000  0.166667      4.000000
 -0.400000  0.400000  0.166667      4.000000
 -0.200000  0.400000  0.166667      4.000000
  0.000000  0.000000  0.333333      2.000000
  0.200000  0.000000  0.333333      4.000000
  0.400000  0.000000  0.333333      4.000000
  0.000000  0.200000  0.333333      4.000000
  0.200000  0.200000  0.333333      4.000000
  0.400000  0.200000  0.333333      4.000000
 -0.400000  0.200000  0.333333      4.000000
 -0.200000  0.200000  0.333333      4.000000
  0.000000  0.400000  0.333333      4.000000
  0.200000  0.400000  0.333333      4.000000
  0.400000  0.400000  0.333333      4.000000
 -0.400000  0.400000  0.333333      4.000000
 -0.200000  0.400000  0.333333      4.000000
  0.000000  0.000000  0.500000      1.000000
  0.200000  0.000000  0.500000      2.000000
  0.400000  0.000000  0.500000      2.000000
  0.000000  0.200000  0.500000      2.000000
  0.200000  0.200000  0.500000      2.000000
  0.400000  0.200000  0.500000      2.000000
 -0.400000  0.200000  0.500000      2.000000
 -0.200000  0.200000  0.500000      2.000000
  0.000000  0.400000  0.500000      2.000000
  0.200000  0.400000  0.500000      2.000000
  0.400000  0.400000  0.500000      2.000000
 -0.400000  0.400000  0.500000      2.000000
 -0.200000  0.400000  0.500000      2.000000
 
 Following cartesian coordinates:
            Coordinates               Weight
  0.000000  0.000000  0.000000      1.000000
  0.024242  0.000000  0.000000      2.000000
  0.048484  0.000000  0.000000      2.000000
  0.000000  0.024242  0.000000      2.000000
  0.024242  0.024242  0.000000      2.000000
  0.048484  0.024242  0.000000      2.000000
 -0.048484  0.024242  0.000000      2.000000
 -0.024242  0.024242  0.000000      2.000000
  0.000000  0.048484  0.000000      2.000000
  0.024242  0.048484  0.000000      2.000000
  0.048484  0.048484  0.000000      2.000000
 -0.048484  0.048484  0.000000      2.000000
 -0.024242  0.048484  0.000000      2.000000
  0.000000  0.000000  0.023970      2.000000
  0.024242  0.000000  0.023970      4.000000
  0.048484  0.000000  0.023970      4.000000
  0.000000  0.024242  0.023970      4.000000
  0.024242  0.024242  0.023970      4.000000
  0.048484  0.024242  0.023970      4.000000
 -0.048484  0.024242  0.023970      4.000000
 -0.024242  0.024242  0.023970      4.000000
  0.000000  0.048484  0.023970      4.000000
  0.024242  0.048484  0.023970      4.000000
  0.048484  0.048484  0.023970      4.000000
 -0.048484  0.048484  0.023970      4.000000
 -0.024242  0.048484  0.023970      4.000000
  0.000000  0.000000  0.047939      2.000000
  0.024242  0.000000  0.047939      4.000000
  0.048484  0.000000  0.047939      4.000000
  0.000000  0.024242  0.047939      4.000000
  0.024242  0.024242  0.047939      4.000000
  0.048484  0.024242  0.047939      4.000000
 -0.048484  0.024242  0.047939      4.000000
 -0.024242  0.024242  0.047939      4.000000
  0.000000  0.048484  0.047939      4.000000
  0.024242  0.048484  0.047939      4.000000
  0.048484  0.048484  0.047939      4.000000
 -0.048484  0.048484  0.047939      4.000000
 -0.024242  0.048484  0.047939      4.000000
  0.000000  0.000000  0.071909      1.000000
  0.024242  0.000000  0.071909      2.000000
  0.048484  0.000000  0.071909      2.000000
  0.000000  0.024242  0.071909      2.000000
  0.024242  0.024242  0.071909      2.000000
  0.048484  0.024242  0.071909      2.000000
 -0.048484  0.024242  0.071909      2.000000
 -0.024242  0.024242  0.071909      2.000000
  0.000000  0.048484  0.071909      2.000000
  0.024242  0.048484  0.071909      2.000000
  0.048484  0.048484  0.071909      2.000000
 -0.048484  0.048484  0.071909      2.000000
 -0.024242  0.048484  0.071909      2.000000
 


--------------------------------------------------------------------------------------------------------




 Dimension of arrays:
   k-points           NKPTS =     52   k-points in BZ     NKDIM =     52   number of bands    NBANDS=    110
   number of dos      NEDOS =    301   number of ions     NIONS =     36
   non local maximal  LDIM  =      6   non local SUM 2l+1 LMDIM =     18
   total plane-waves  NPLWV = 139968
   max r-space proj   IRMAX =      1   max aug-charges    IRDMAX=  92271
   dimension x,y,z NGX =    54 NGY =   54 NGZ =   48
   dimension x,y,z NGXF=   108 NGYF=  108 NGZF=   96
   support grid    NGXF=   216 NGYF=  216 NGZF=  192
   ions per type =              18  18
   NGX,Y,Z   is equivalent  to a cutoff of  10.88, 10.88, 11.48 a.u.
   NGXF,Y,Z  is equivalent  to a cutoff of  21.76, 21.76, 22.95 a.u.

 SYSTEM =  AlMn_pv                                 
 POSCAR =  NewRef: 18, @ ['Mn', array([1.37502469, 

 Startparameter for this run:
   NWRITE =      2    write-flag & timer
   PREC   = accura    normal or accurate (medium, high low for compatibility)
   ISTART =      0    job   : 0-new  1-cont  2-samecut
   ICHARG =      2    charge: 1-file 2-atom 10-const
   ISPIN  =      2    spin polarized calculation?
   LNONCOLLINEAR =      F non collinear calculations
   LSORBIT =      F    spin-orbit coupling
   INIWAV =      1    electr: 0-lowe 1-rand  2-diag
   LASPH  =      F    aspherical Exc in radial PAW
   METAGGA=      F    non-selfconsistent MetaGGA calc.

 Electronic Relaxation 1
   ENCUT  =  404.8 eV  29.75 Ry    5.45 a.u.  13.53 13.53 11.41*2*pi/ulx,y,z
   ENINI  =  404.8     initial cutoff
   ENAUG  =  500.7 eV  augmentation charge cutoff
   NELM   =    100;   NELMIN=  4; NELMDL= -8     # of ELM steps 
   EDIFF  = 0.1E-06   stopping-criterion for ELM
   LREAL  =      F    real-space projection
   NLSPLINE    = F    spline interpolate recip. space projectors
   LCOMPAT=      F    compatible to vasp.4.4
   GGA_COMPAT  = T    GGA compatible to vasp.4.4-vasp.4.6
   LMAXPAW     = -100 max onsite density
   LMAXMIX     =    2 max onsite mixed and CHGCAR
   VOSKOWN=      0    Vosko Wilk Nusair interpolation
   ROPT   =    0.00000   0.00000
 Ionic relaxation
   EDIFFG = 0.1E-05   stopping-criterion for IOM
   NSW    =      0    number of steps for IOM
   NBLOCK =      1;   KBLOCK =      1    inner block; outer block 
   IBRION =     -1    ionic relax: 0-MD 1-quasi-New 2-CG
   NFREE  =      0    steps in history (QN), initial steepest desc. (CG)
   ISIF   =      2    stress and relaxation
   IWAVPR =     10    prediction:  0-non 1-charg 2-wave 3-comb
   ISYM   =      2    0-nonsym 1-usesym 2-fastsym
   LCORR  =      T    Harris-Foulkes like correction to forces

   POTIM  = 0.2000    time-step for ionic-motion
   TEIN   =    0.0    initial temperature
   TEBEG  =    0.0;   TEEND  =   0.0 temperature during run
   SMASS  =  -3.00    Nose mass-parameter (am)
   estimated Nose-frequenzy (Omega)   =  0.10E-29 period in steps =****** mass=  -0.156E-26a.u.
   SCALEE = 1.0000    scale energy and forces
   NPACO  =    256;   APACO  = 16.0  distance and # of slots for P.C.
   PSTRESS=    0.0 pullay stress

  Mass of Ions in am
   POMASS =  26.98 54.94
  Ionic Valenz
   ZVAL   =   3.00  7.00
  Atomic Wigner-Seitz radii
   RWIGS  =  -1.00 -1.00
  virtual crystal weights 
   VCA    =   1.00  1.00
   NELECT =     180.0000    total number of electrons
   NUPDOWN=      -1.0000    fix difference up-down

 DOS related values:
   EMIN   =  10.00;   EMAX   =-10.00  energy-range for DOS
   EFERMI =   0.00
   ISMEAR =     1;   SIGMA  =   0.20  broadening in eV -4-tet -1-fermi 0-gaus

 Electronic relaxation 2 (details)
   IALGO  =     58    algorithm
   LDIAG  =      T    sub-space diagonalisation (order eigenvalues)
   LSUBROT=      F    optimize rotation matrix (better conditioning)
   TURBO    =      0    0=normal 1=particle mesh
   IRESTART =      0    0=no restart 2=restart with 2 vectors
   NREBOOT  =      0    no. of reboots
   NMIN     =      0    reboot dimension
   EREF     =   0.00    reference energy to select bands
   IMIX   =      4    mixing-type and parameters
     AMIX     =   0.40;   BMIX     =  1.00
     AMIX_MAG =   1.60;   BMIX_MAG =  1.00
     AMIN     =   0.10
     WC   =   100.;   INIMIX=   1;  MIXPRE=   1;  MAXMIX= -45

 Intra band minimization:
   WEIMIN = 0.0000     energy-eigenvalue tresh-hold
   EBREAK =  0.23E-09  absolut break condition
   DEPER  =   0.30     relativ break condition  

   TIME   =   0.40     timestep for ELM

  volume/ion in A,a.u.               =      13.15        88.72
  Fermi-wavevector in a.u.,A,eV,Ry     =   1.186118  2.241439 19.141722  1.406877
  Thomas-Fermi vector in A             =   2.322298
 
 Write flags
   LWAVE        =      F    write WAVECAR
   LDOWNSAMPLE  =      F    k-point downsampling of WAVECAR
   LCHARG       =      F    write CHGCAR
   LVTOT        =      F    write LOCPOT, total local potential
   LVHAR        =      F    write LOCPOT, Hartree potential only
   LELF         =      F    write electronic localiz. function (ELF)
   LORBIT       =     10    0 simple, 1 ext, 2 COOP (PROOUT), +10 PAW based schemes


 Dipole corrections
   LMONO  =      F    monopole corrections only (constant potential shift)
   LDIPOL =      F    correct potential (dipole corrections)
   IDIPOL =      0    1-x, 2-y, 3-z, 4-all directions 
   EPSILON=  1.0000000 bulk dielectric constant

 Exchange correlation treatment:
   GGA     =    --    GGA type
   LEXCH   =     8    internal setting for exchange type
   VOSKOWN=      0    Vosko Wilk Nusair interpolation
   LHFCALC =     F    Hartree Fock is set to
   LHFONE  =     F    Hartree Fock one center treatment
   AEXX    =    0.0000 exact exchange contribution

 Linear response parameters
   LEPSILON=     F    determine dielectric tensor
   LRPA    =     F    only Hartree local field effects (RPA)
   LNABLA  =     F    use nabla operator in PAW spheres
   LVEL    =     F    velocity operator in full k-point grid
   LINTERFAST=   F  fast interpolation
   KINTER  =     0    interpolate to denser k-point grid
   CSHIFT  =0.1000    complex shift for real part using Kramers Kronig
   OMEGAMAX=  -1.0    maximum frequency
   DEG_THRESHOLD= 0.2000000E-02 threshold for treating states as degnerate
   RTIME   =   -0.100 relaxation time in fs
  (WPLASMAI=    0.000 imaginary part of plasma frequency in eV, 0.658/RTIME)
   DFIELD  = 0.0000000 0.0000000 0.0000000 field for delta impulse in time
 
 Orbital magnetization related:
   ORBITALMAG=     F  switch on orbital magnetization
   LCHIMAG   =     F  perturbation theory with respect to B field
   DQ        =  0.001000  dq finite difference perturbation B field
   LLRAUG    =     F  two centre corrections for induced B field



--------------------------------------------------------------------------------------------------------


 Static calculation
 charge density and potential will be updated during run
 spin polarized calculation
 Conjugate gradient for all bands (Freysoldt, et al. PRB 79, 241103 (2009))
 preconditioned conjugated gradient                                        
 perform sub-space diagonalisation
    before iterative eigenvector-optimisation
 modified Broyden-mixing scheme, WC =      100.0
 initial mixing is a Kerker type mixing with AMIX =  0.4000 and BMIX =      1.0000
 Hartree-type preconditioning will be used
 using additional bands           20
 reciprocal scheme for non local part
 use partial core corrections
 no Harris-corrections to forces 
 use gradient corrections 
 use of overlap-Matrix (Vanderbilt PP)
 Methfessel and Paxton  Order N= 1 SIGMA  =   0.20


--------------------------------------------------------------------------------------------------------


  energy-cutoff  :      404.80
  volume of cell :      473.27
      direct lattice vectors                 reciprocal lattice vectors
     8.250148166  0.000000000  0.000000000     0.121209944  0.000000000  0.000000000
     0.000000000  8.250148166  0.000000000     0.000000000  0.121209944  0.000000000
     0.000000000  0.000000000  6.953274261     0.000000000  0.000000000  0.143817137

  length of vectors
     8.250148166  8.250148166  6.953274261     0.121209944  0.121209944  0.143817137


 
 k-points in units of 2pi/SCALE and weight: automatic KPOINTS                       
   0.00000000  0.00000000  0.00000000       0.007
   0.02424199  0.00000000  0.00000000       0.013
   0.04848398  0.00000000  0.00000000       0.013
   0.00000000  0.02424199  0.00000000       0.013
   0.02424199  0.02424199  0.00000000       0.013
   0.04848398  0.02424199  0.00000000       0.013
  -0.04848398  0.02424199  0.00000000       0.013
  -0.02424199  0.02424199  0.00000000       0.013
   0.00000000  0.04848398  0.00000000       0.013
   0.02424199  0.04848398  0.00000000       0.013
   0.04848398  0.04848398  0.00000000       0.013
  -0.04848398  0.04848398  0.00000000       0.013
  -0.02424199  0.04848398  0.00000000       0.013
   0.00000000  0.00000000  0.02396952       0.013
   0.02424199  0.00000000  0.02396952       0.027
   0.04848398  0.00000000  0.02396952       0.027
   0.00000000  0.02424199  0.02396952       0.027
   0.02424199  0.02424199  0.02396952       0.027
   0.04848398  0.02424199  0.02396952       0.027
  -0.04848398  0.02424199  0.02396952       0.027
  -0.02424199  0.02424199  0.02396952       0.027
   0.00000000  0.04848398  0.02396952       0.027
   0.02424199  0.04848398  0.02396952       0.027
   0.04848398  0.04848398  0.02396952       0.027
  -0.04848398  0.04848398  0.02396952       0.027
  -0.02424199  0.04848398  0.02396952       0.027
   0.00000000  0.00000000  0.04793905       0.013
   0.02424199  0.00000000  0.04793905       0.027
   0.04848398  0.00000000  0.04793905       0.027
   0.00000000  0.02424199  0.04793905       0.027
   0.02424199  0.02424199  0.04793905       0.027
   0.04848398  0.02424199  0.04793905       0.027
  -0.04848398  0.02424199  0.04793905       0.027
  -0.02424199  0.02424199  0.04793905       0.027
   0.00000000  0.04848398  0.04793905       0.027
   0.02424199  0.04848398  0.04793905       0.027
   0.04848398  0.04848398  0.04793905       0.027
  -0.04848398  0.04848398  0.04793905       0.027
  -0.02424199  0.04848398  0.04793905       0.027
   0.00000000  0.00000000  0.07190857       0.007
   0.02424199  0.00000000  0.07190857       0.013
   0.04848398  0.00000000  0.07190857       0.013
   0.00000000  0.02424199  0.07190857       0.013
   0.02424199  0.02424199  0.07190857       0.013
   0.04848398  0.02424199  0.07190857       0.013
  -0.04848398  0.02424199  0.07190857       0.013
  -0.02424199  0.02424199  0.07190857       0.013
   0.00000000  0.04848398  0.07190857       0.013
   0.02424199  0.04848398  0.07190857       0.013
   0.04848398  0.04848398  0.07190857       0.013
  -0.04848398  0.04848398  0.07190857       0.013
  -0.02424199  0.04848398  0.07190857       0.013
 
 k-points in reciprocal lattice and weights: automatic KPOINTS                       
   0.00000000  0.00000000  0.00000000       0.007
   0.20000000  0.00000000  0.00000000       0.013
   0.40000000  0.00000000  0.00000000       0.013
   0.00000000  0.20000000  0.00000000       0.013
   0.20000000  0.20000000  0.00000000       0.013
   0.40000000  0.20000000  0.00000000       0.013
  -0.40000000  0.20000000  0.00000000       0.013
  -0.20000000  0.20000000  0.00000000       0.013
   0.00000000  0.40000000  0.00000000       0.013
   0.20000000  0.40000000  0.00000000       0.013
   0.40000000  0.40000000  0.00000000       0.013
  -0.40000000  0.40000000  0.00000000       0.013
  -0.20000000  0.40000000  0.00000000       0.013
   0.00000000  0.00000000  0.16666667       0.013
   0.20000000  0.00000000  0.16666667       0.027
   0.40000000  0.00000000  0.16666667       0.027
   0.00000000  0.20000000  0.16666667       0.027
   0.20000000  0.20000000  0.16666667       0.027
   0.40000000  0.20000000  0.16666667       0.027
  -0.40000000  0.20000000  0.16666667       0.027
  -0.20000000  0.20000000  0.16666667       0.027
   0.00000000  0.40000000  0.16666667       0.027
   0.20000000  0.40000000  0.16666667       0.027
   0.40000000  0.40000000  0.16666667       0.027
  -0.40000000  0.40000000  0.16666667       0.027
  -0.20000000  0.40000000  0.16666667       0.027
   0.00000000  0.00000000  0.33333333       0.013
   0.20000000  0.00000000  0.33333333       0.027
   0.40000000  0.00000000  0.33333333       0.027
   0.00000000  0.20000000  0.33333333       0.027
   0.20000000  0.20000000  0.33333333       0.027
   0.40000000  0.20000000  0.33333333       0.027
  -0.40000000  0.20000000  0.33333333       0.027
  -0.20000000  0.20000000  0.33333333       0.027
   0.00000000  0.40000000  0.33333333       0.027
   0.20000000  0.40000000  0.33333333       0.027
   0.40000000  0.40000000  0.33333333       0.027
  -0.40000000  0.40000000  0.33333333       0.027
  -0.20000000  0.40000000  0.33333333       0.027
   0.00000000  0.00000000  0.50000000       0.007
   0.20000000  0.00000000  0.50000000       0.013
   0.40000000  0.00000000  0.50000000       0.013
   0.00000000  0.20000000  0.50000000       0.013
   0.20000000  0.20000000  0.50000000       0.013
   0.40000000  0.20000000  0.50000000       0.013
  -0.40000000  0.20000000  0.50000000       0.013
  -0.20000000  0.20000000  0.50000000       0.013
   0.00000000  0.40000000  0.50000000       0.013
   0.20000000  0.40000000  0.50000000       0.013
   0.40000000  0.40000000  0.50000000       0.013
  -0.40000000  0.40000000  0.50000000       0.013
  -0.20000000  0.40000000  0.50000000       0.013
 
 position of ions in fractional coordinates (direct lattice) 
   0.00000000  0.00000000  0.00000000
   0.00000000  0.00000000  0.50000000
   0.00000000  0.33333333  0.00000000
   0.00000000  0.33333333  0.50000000
   0.00000000  0.66666667  0.00000000
   0.00000000  0.66666667  0.50000000
   0.33333333  0.00000000  0.00000000
   0.33333333  0.00000000  0.50000000
   0.33333333  0.33333333  0.00000000
   0.33333333  0.33333333  0.50000000
   0.33333333  0.66666667  0.00000000
   0.33333333  0.66666667  0.50000000
   0.66666667  0.00000000  0.00000000
   0.66666667  0.00000000  0.50000000
   0.66666667  0.33333333  0.00000000
   0.66666667  0.33333333  0.50000000
   0.66666667  0.66666667  0.00000000
   0.66666667  0.66666667  0.50000000
   0.16666667  0.16666667  0.25000000
   0.16666667  0.16666667  0.75000000
   0.16666667  0.50000000  0.25000000
   0.16666667  0.50000000  0.75000000
   0.16666667  0.83333333  0.25000000
   0.16666667  0.83333333  0.75000000
   0.50000000  0.16666667  0.25000000
   0.50000000  0.16666667  0.75000000
   0.50000000  0.50000000  0.25000000
   0.50000000  0.50000000  0.75000000
   0.50000000  0.83333333  0.25000000
   0.50000000  0.83333333  0.75000000
   0.83333333  0.16666667  0.25000000
   0.83333333  0.16666667  0.75000000
   0.83333333  0.50000000  0.25000000
   0.83333333  0.50000000  0.75000000
   0.83333333  0.83333333  0.25000000
   0.83333333  0.83333333  0.75000000
 
 position of ions in cartesian coordinates  (Angst):
   0.00000000  0.00000000  0.00000000
   0.00000000  0.00000000  3.47663713
   0.00000000  2.75004939  0.00000000
   0.00000000  2.75004939  3.47663713
   0.00000000  5.50009878  0.00000000
   0.00000000  5.50009878  3.47663713
   2.75004939  0.00000000  0.00000000
   2.75004939  0.00000000  3.47663713
   2.75004939  2.75004939  0.00000000
   2.75004939  2.75004939  3.47663713
   2.75004939  5.50009878  0.00000000
   2.75004939  5.50009878  3.47663713
   5.50009878  0.00000000  0.00000000
   5.50009878  0.00000000  3.47663713
   5.50009878  2.75004939  0.00000000
   5.50009878  2.75004939  3.47663713
   5.50009878  5.50009878  0.00000000
   5.50009878  5.50009878  3.47663713
   1.37502469  1.37502469  1.73831857
   1.37502469  1.37502469  5.21495570
   1.37502469  4.12507408  1.73831857
   1.37502469  4.12507408  5.21495570
   1.37502469  6.87512347  1.73831857
   1.37502469  6.87512347  5.21495570
   4.12507408  1.37502469  1.73831857
   4.12507408  1.37502469  5.21495570
   4.12507408  4.12507408  1.73831857
   4.12507408  4.12507408  5.21495570
   4.12507408  6.87512347  1.73831857
   4.12507408  6.87512347  5.21495570
   6.87512347  1.37502469  1.73831857
   6.87512347  1.37502469  5.21495570
   6.87512347  4.12507408  1.73831857
   6.87512347  4.12507408  5.21495570
   6.87512347  6.87512347  1.73831857
   6.87512347  6.87512347  5.21495570
 


--------------------------------------------------------------------------------------------------------


 k-point  1 :   0.0000 0.0000 0.0000  plane waves:    8799
 k-point  2 :   0.2000 0.0000 0.0000  plane waves:    8753
 k-point  3 :   0.4000 0.0000 0.0000  plane waves:    8757
 k-point  4 :   0.0000 0.2000 0.0000  plane waves:    8753
 k-point  5 :   0.2000 0.2000 0.0000  plane waves:    8767
 k-point  6 :   0.4000 0.2000 0.0000  plane waves:    8761
 k-point  7 :  -0.4000 0.2000 0.0000  plane waves:    8761
 k-point  8 :  -0.2000 0.2000 0.0000  plane waves:    8767
 k-point  9 :   0.0000 0.4000 0.0000  plane waves:    8757
 k-point 10 :   0.2000 0.4000 0.0000  plane waves:    8761
 k-point 11 :   0.4000 0.4000 0.0000  plane waves:    8731
 k-point 12 :  -0.4000 0.4000 0.0000  plane waves:    8731
 k-point 13 :  -0.2000 0.4000 0.0000  plane waves:    8761
 k-point 14 :   0.0000 0.0000 0.1667  plane waves:    8763
 k-point 15 :   0.2000 0.0000 0.1667  plane waves:    8771
 k-point 16 :   0.4000 0.0000 0.1667  plane waves:    8747
 k-point 17 :   0.0000 0.2000 0.1667  plane waves:    8771
 k-point 18 :   0.2000 0.2000 0.1667  plane waves:    8764
 k-point 19 :   0.4000 0.2000 0.1667  plane waves:    8768
 k-point 20 :  -0.4000 0.2000 0.1667  plane waves:    8768
 k-point 21 :  -0.2000 0.2000 0.1667  plane waves:    8764
 k-point 22 :   0.0000 0.4000 0.1667  plane waves:    8747
 k-point 23 :   0.2000 0.4000 0.1667  plane waves:    8768
 k-point 24 :   0.4000 0.4000 0.1667  plane waves:    8740
 k-point 25 :  -0.4000 0.4000 0.1667  plane waves:    8740
 k-point 26 :  -0.2000 0.4000 0.1667  plane waves:    8768
 k-point 27 :   0.0000 0.0000 0.3333  plane waves:    8743
 k-point 28 :   0.2000 0.0000 0.3333  plane waves:    8736
 k-point 29 :   0.4000 0.0000 0.3333  plane waves:    8753
 k-point 30 :   0.0000 0.2000 0.3333  plane waves:    8736
 k-point 31 :   0.2000 0.2000 0.3333  plane waves:    8753
 k-point 32 :   0.4000 0.2000 0.3333  plane waves:    8743
 k-point 33 :  -0.4000 0.2000 0.3333  plane waves:    8743
 k-point 34 :  -0.2000 0.2000 0.3333  plane waves:    8753
 k-point 35 :   0.0000 0.4000 0.3333  plane waves:    8753
 k-point 36 :   0.2000 0.4000 0.3333  plane waves:    8743
 k-point 37 :   0.4000 0.4000 0.3333  plane waves:    8755
 k-point 38 :  -0.4000 0.4000 0.3333  plane waves:    8755
 k-point 39 :  -0.2000 0.4000 0.3333  plane waves:    8743
 k-point 40 :   0.0000 0.0000 0.5000  plane waves:    8742
 k-point 41 :   0.2000 0.0000 0.5000  plane waves:    8756
 k-point 42 :   0.4000 0.0000 0.5000  plane waves:    8744
 k-point 43 :   0.0000 0.2000 0.5000  plane waves:    8756
 k-point 44 :   0.2000 0.2000 0.5000  plane waves:    8762
 k-point 45 :   0.4000 0.2000 0.5000  plane waves:    8732
 k-point 46 :  -0.4000 0.2000 0.5000  plane waves:    8732
 k-point 47 :  -0.2000 0.2000 0.5000  plane waves:    8762
 k-point 48 :   0.0000 0.4000 0.5000  plane waves:    8744
 k-point 49 :   0.2000 0.4000 0.5000  plane waves:    8732
 k-point 50 :   0.4000 0.4000 0.5000  plane waves:    8736
 k-point 51 :  -0.4000 0.4000 0.5000  plane waves:    8736
 k-point 52 :  -0.2000 0.4000 0.5000  plane waves:    8732

 maximum and minimum number of plane-waves per node :      2210     2164

 maximum number of plane-waves:      8799
 maximum index in each direction: 
   IXMAX=   13   IYMAX=   13   IZMAX=   11
   IXMIN=  -13   IYMIN=  -13   IZMIN=  -11


 parallel 3D FFT for wavefunctions:
    minimum data exchange during FFTs selected (reduces bandwidth)
 parallel 3D FFT for charge:
    minimum data exchange during FFTs selected (reduces bandwidth)


 total amount of memory used by VASP MPI-rank0   740218. kBytes
=======================================================================

   base      :      30000. kBytes
   nonl-proj :      34307. kBytes
   fftplans  :      21726. kBytes
   grid      :      14732. kBytes
   one-center:        279. kBytes
   wavefun   :     639174. kBytes
 
     INWAV:  cpu time    0.0000: real time    0.0000
 Broyden mixing: mesh for mixing (old mesh)
   NGX = 27   NGY = 27   NGZ = 23
  (NGX  =108   NGY  =108   NGZ  = 96)
  gives a total of  16767 points

 initial charge density was supplied:
 charge density of overlapping atoms calculated
 number of electron     180.0000000 magnetization       0.0000000
 keeping initial charge density in first step


--------------------------------------------------------------------------------------------------------


 Maximum index for augmentation-charges        11261 (set IRDMAX)


--------------------------------------------------------------------------------------------------------


 First call to EWALD:  gamma=   0.227
 Maximum number of real-space cells 3x 3x 3
 Maximum number of reciprocal cells 3x 3x 3

    FEWALD:  cpu time    0.0059: real time    0.0059


--------------------------------------- Iteration      1(   1)  ---------------------------------------


    POTLOK:  cpu time    0.2517: real time    0.2518
    SETDIJ:  cpu time    0.3460: real time    0.3462
    TRIAL :  cpu time   18.0247: real time   18.2161
    CORREC:  cpu time    0.0065: real time    0.0066
    --------------------------------------------
      LOOP:  cpu time   18.8264: real time   19.0442

 eigenvalue-minimisations  : 22880
 total energy-change (2. order) : 0.1352644E+04  (-0.5848157E+04)
 number of electron     180.0000000 magnetization       0.0000000
 augmentation part      180.0000000 magnetization       0.0000000

 Free energy of the ion-electron system (eV)
  ---------------------------------------------------
  alpha Z        PSCENC =       532.25742704
  Ewald energy   TEWEN  =     -8601.05107233
  -Hartree energ DENC   =     -1903.73857242
  -exchange      EXHF   =         0.00000000
  -V(xc)+E(xc)   XCENC  =      -664.48190626
  PAW double counting   =      8494.55058411    -7650.81563588
  entropy T*S    EENTRO =        -0.00176954
  eigenvalues    EBANDS =      2680.80862671
  atomic energy  EATOM  =      8465.11600846
  ---------------------------------------------------
  free energy    TOTEN  =      1352.64368988 eV

  energy without entropy =     1352.64545943  energy(sigma->0) =     1352.64427973


--------------------------------------------------------------------------------------------------------




--------------------------------------- Iteration      1(   2)  ---------------------------------------


    TRIAL :  cpu time   18.2976: real time   19.1194
    CORREC:  cpu time    0.0078: real time    0.0079
    --------------------------------------------
      LOOP:  cpu time   18.3069: real time   19.1309

 eigenvalue-minimisations  : 22880
 total energy-change (2. order) :-0.1408343E+04  (-0.1378914E+04)
 number of electron     180.0000000 magnetization       0.0000000
 augmentation part      180.0000000 magnetization       0.0000000

 Free energy of the ion-electron system (eV)
  ---------------------------------------------------
  alpha Z        PSCENC =       532.25742704
  Ewald energy   TEWEN  =     -8601.05107233
  -Hartree energ DENC   =     -1903.73857242
  -exchange      EXHF   =         0.00000000
  -V(xc)+E(xc)   XCENC  =      -664.48190626
  PAW double counting   =      8494.55058411    -7650.81563588
  entropy T*S    EENTRO =        -0.00103125
  eigenvalues    EBANDS =      1272.46449663
  atomic energy  EATOM  =      8465.11600846
  ---------------------------------------------------
  free energy    TOTEN  =       -55.69970189 eV

  energy without entropy =      -55.69867065  energy(sigma->0) =      -55.69935814


--------------------------------------------------------------------------------------------------------




--------------------------------------- Iteration      1(   3)  ---------------------------------------


    TRIAL :  cpu time   24.9821: real time   25.2833
    CORREC:  cpu time    0.0096: real time    0.0096
    --------------------------------------------
      LOOP:  cpu time   24.9929: real time   25.2964

 eigenvalue-minimisations  : 34968
 total energy-change (2. order) :-0.1805997E+03  (-0.1635441E+03)
 number of electron     180.0000000 magnetization       0.0000000
 augmentation part      180.0000000 magnetization       0.0000000

 Free energy of the ion-electron system (eV)
  ---------------------------------------------------
  alpha Z        PSCENC =       532.25742704
  Ewald energy   TEWEN  =     -8601.05107233
  -Hartree energ DENC   =     -1903.73857242
  -exchange      EXHF   =         0.00000000
  -V(xc)+E(xc)   XCENC  =      -664.48190626
  PAW double counting   =      8494.55058411    -7650.81563588
  entropy T*S    EENTRO =         0.00463019
  eigenvalues    EBANDS =      1091.85917574
  atomic energy  EATOM  =      8465.11600846
  ---------------------------------------------------
  free energy    TOTEN  =      -236.29936135 eV

  energy without entropy =     -236.30399154  energy(sigma->0) =     -236.30090475


--------------------------------------------------------------------------------------------------------




--------------------------------------- Iteration      1(   4)  ---------------------------------------


    TRIAL :  cpu time   27.5589: real time   27.7561
    CORREC:  cpu time    0.0100: real time    0.0100
    --------------------------------------------
      LOOP:  cpu time   27.5698: real time   27.7696

 eigenvalue-minimisations  : 37296
 total energy-change (2. order) :-0.2905771E+02  (-0.2598008E+02)
 number of electron     180.0000000 magnetization       0.0000000
 augmentation part      180.0000000 magnetization       0.0000000

 Free energy of the ion-electron system (eV)
  ---------------------------------------------------
  alpha Z        PSCENC =       532.25742704
  Ewald energy   TEWEN  =     -8601.05107233
  -Hartree energ DENC   =     -1903.73857242
  -exchange      EXHF   =         0.00000000
  -V(xc)+E(xc)   XCENC  =      -664.48190626
  PAW double counting   =      8494.55058411    -7650.81563588
  entropy T*S    EENTRO =         0.01160007
  eigenvalues    EBANDS =      1062.79449398
  atomic energy  EATOM  =      8465.11600846
  ---------------------------------------------------
  free energy    TOTEN  =      -265.35707323 eV

  energy without entropy =     -265.36867330  energy(sigma->0) =     -265.36093992


--------------------------------------------------------------------------------------------------------




--------------------------------------- Iteration      1(   5)  ---------------------------------------


    TRIAL :  cpu time   26.8955: real time   27.9173
    CORREC:  cpu time    0.0100: real time    0.0109
    --------------------------------------------
      LOOP:  cpu time   26.9068: real time   27.9320

 eigenvalue-minimisations  : 38472
 total energy-change (2. order) :-0.3386225E+01  (-0.3218999E+01)
 number of electron     180.0000000 magnetization       0.0000000
 augmentation part      180.0000000 magnetization       0.0000000

 Free energy of the ion-electron system (eV)
  ---------------------------------------------------
  alpha Z        PSCENC =       532.25742704
  Ewald energy   TEWEN  =     -8601.05107233
  -Hartree energ DENC   =     -1903.73857242
  -exchange      EXHF   =         0.00000000
  -V(xc)+E(xc)   XCENC  =      -664.48190626
  PAW double counting   =      8494.55058411    -7650.81563588
  entropy T*S    EENTRO =         0.01300065
  eigenvalues    EBANDS =      1059.40686878
  atomic energy  EATOM  =      8465.11600846
  ---------------------------------------------------
  free energy    TOTEN  =      -268.74329785 eV

  energy without entropy =     -268.75629850  energy(sigma->0) =     -268.74763140


--------------------------------------------------------------------------------------------------------




--------------------------------------- Iteration      1(   6)  ---------------------------------------


    TRIAL :  cpu time   28.0468: real time   28.2628
    CORREC:  cpu time    0.0101: real time    0.0102
    --------------------------------------------
      LOOP:  cpu time   28.0581: real time   28.2766

 eigenvalue-minimisations  : 38128
 total energy-change (2. order) :-0.2875727E+00  (-0.2793352E+00)
 number of electron     180.0000000 magnetization       0.0000000
 augmentation part      180.0000000 magnetization       0.0000000

 Free energy of the ion-electron system (eV)
  ---------------------------------------------------
  alpha Z        PSCENC =       532.25742704
  Ewald energy   TEWEN  =     -8601.05107233
  -Hartree energ DENC   =     -1903.73857242
  -exchange      EXHF   =         0.00000000
  -V(xc)+E(xc)   XCENC  =      -664.48190626
  PAW double counting   =      8494.55058411    -7650.81563588
  entropy T*S    EENTRO =         0.01462970
  eigenvalues    EBANDS =      1059.11766708
  atomic energy  EATOM  =      8465.11600846
  ---------------------------------------------------
  free energy    TOTEN  =      -269.03087051 eV

  energy without entropy =     -269.04550020  energy(sigma->0) =     -269.03574707


--------------------------------------------------------------------------------------------------------




--------------------------------------- Iteration      1(   7)  ---------------------------------------


    TRIAL :  cpu time   27.3106: real time   28.2932
    CORREC:  cpu time    0.0102: real time    0.0110
    --------------------------------------------
      LOOP:  cpu time   27.3241: real time   28.3081

 eigenvalue-minimisations  : 39080
 total energy-change (2. order) :-0.3254449E-01  (-0.3200066E-01)
 number of electron     180.0000000 magnetization       0.0000000
 augmentation part      180.0000000 magnetization       0.0000000

 Free energy of the ion-electron system (eV)
  ---------------------------------------------------
  alpha Z        PSCENC =       532.25742704
  Ewald energy   TEWEN  =     -8601.05107233
  -Hartree energ DENC   =     -1903.73857242
  -exchange      EXHF   =         0.00000000
  -V(xc)+E(xc)   XCENC  =      -664.48190626
  PAW double counting   =      8494.55058411    -7650.81563588
  entropy T*S    EENTRO =         0.01522253
  eigenvalues    EBANDS =      1059.08452975
  atomic energy  EATOM  =      8465.11600846
  ---------------------------------------------------
  free energy    TOTEN  =      -269.06341499 eV

  energy without entropy =     -269.07863753  energy(sigma->0) =     -269.06848917


--------------------------------------------------------------------------------------------------------




--------------------------------------- Iteration      1(   8)  ---------------------------------------


    TRIAL :  cpu time   26.9237: real time   27.1649
    CORREC:  cpu time    0.0101: real time    0.0102
    CHARGE:  cpu time    1.1179: real time    1.1181
    --------------------------------------------
      LOOP:  cpu time   28.0558: real time   28.2974

 eigenvalue-minimisations  : 37376
 total energy-change (2. order) :-0.3167436E-02  (-0.3129879E-02)
 number of electron     179.9999997 magnetization       0.2778208
 augmentation part       42.7039730 magnetization       0.1242931

 Free energy of the ion-electron system (eV)
  ---------------------------------------------------
  alpha Z        PSCENC =       532.25742704
  Ewald energy   TEWEN  =     -8601.05107233
  -Hartree energ DENC   =     -1903.73857242
  -exchange      EXHF   =         0.00000000
  -V(xc)+E(xc)   XCENC  =      -664.48190626
  PAW double counting   =      8494.55058411    -7650.81563588
  entropy T*S    EENTRO =         0.01544153
  eigenvalues    EBANDS =      1059.08114332
  atomic energy  EATOM  =      8465.11600846
  ---------------------------------------------------
  free energy    TOTEN  =      -269.06658243 eV

  energy without entropy =     -269.08202396  energy(sigma->0) =     -269.07172961


--------------------------------------------------------------------------------------------------------




--------------------------------------- Iteration      1(   9)  ---------------------------------------


    POTLOK:  cpu time    0.2518: real time    0.2518
    SETDIJ:  cpu time    0.3142: real time    0.3228
    TRIAL :  cpu time    9.9967: real time   10.0659
    CORREC:  cpu time    3.7369: real time    3.7391
    CHARGE:  cpu time    1.0463: real time    1.0653
    --------------------------------------------
      LOOP:  cpu time   15.3607: real time   15.4608

 eigenvalue-minimisations  :     0
 total energy-change (2. order) : 0.2025276E+03  (-0.1464322E+03)
 number of electron     179.9999997 magnetization       0.0021226
 augmentation part       54.9424053 magnetization      -0.0452773

 Free energy of the ion-electron system (eV)
  ---------------------------------------------------
  alpha Z        PSCENC =       532.25742704
  Ewald energy   TEWEN  =     -8601.05107233
  -Hartree energ DENC   =      -845.27820367
  -exchange      EXHF   =         0.00000000
  -V(xc)+E(xc)   XCENC  =      -694.80666722
  PAW double counting   =     12770.46911417   -11823.98867630
  entropy T*S    EENTRO =         0.01467858
  eigenvalues    EBANDS =       130.72765763
  atomic energy  EATOM  =      8465.11600846
  ---------------------------------------------------
  free energy    TOTEN  =       -66.53897070 eV

  energy without entropy =      -66.55364928  energy(sigma->0) =      -66.54386356


--------------------------------------------------------------------------------------------------------




--------------------------------------- Iteration      1(  10)  ---------------------------------------


    POTLOK:  cpu time    0.2466: real time    0.2466
    SETDIJ:  cpu time    0.3240: real time    0.3241
    TRIAL :  cpu time    8.8791: real time    9.0468
    CORREC:  cpu time    3.3415: real time    3.3647
    CHARGE:  cpu time    1.0625: real time    1.0716
    --------------------------------------------
      LOOP:  cpu time   13.8987: real time   14.0998

 eigenvalue-minimisations  :     0
 total energy-change (2. order) :-0.1438651E+03  (-0.8289149E+01)
 number of electron     179.9999996 magnetization      -0.1117990
 augmentation part       57.8247161 magnetization      -0.0742747

 Free energy of the ion-electron system (eV)
  ---------------------------------------------------
  alpha Z        PSCENC =       532.25742704
  Ewald energy   TEWEN  =     -8601.05107233
  -Hartree energ DENC   =     -1401.31174983
  -exchange      EXHF   =         0.00000000
  -V(xc)+E(xc)   XCENC  =      -675.57128693
  PAW double counting   =     13757.46949747   -12932.01486865
  entropy T*S    EENTRO =         0.00629868
  eigenvalues    EBANDS =       644.68730585
  atomic energy  EATOM  =      8465.11600846
  ---------------------------------------------------
  free energy    TOTEN  =      -210.40406035 eV

  energy without entropy =     -210.41035903  energy(sigma->0) =     -210.40615991


--------------------------------------------------------------------------------------------------------




--------------------------------------- Iteration      1(  11)  ---------------------------------------


    POTLOK:  cpu time    0.2475: real time    0.2474
    SETDIJ:  cpu time    0.3258: real time    0.3258
    TRIAL :  cpu time    8.9607: real time    9.0448
    CORREC:  cpu time    3.3292: real time    3.3524
    CHARGE:  cpu time    1.0643: real time    1.0644
    --------------------------------------------
      LOOP:  cpu time   13.9621: real time   14.0703

 eigenvalue-minimisations  :     0
 total energy-change (2. order) :-0.8362838E+01  (-0.8255442E+01)
 number of electron     179.9999996 magnetization      -0.2514343
 augmentation part       59.2623022 magnetization      -0.1781050

 Free energy of the ion-electron system (eV)
  ---------------------------------------------------
  alpha Z        PSCENC =       532.25742704
  Ewald energy   TEWEN  =     -8601.05107233
  -Hartree energ DENC   =     -1571.79150958
  -exchange      EXHF   =         0.00000000
  -V(xc)+E(xc)   XCENC  =      -669.57435373
  PAW double counting   =     14422.10275916   -13625.26017583
  entropy T*S    EENTRO =         0.00678578
  eigenvalues    EBANDS =       829.42771976
  atomic energy  EATOM  =      8465.11600846
  ---------------------------------------------------
  free energy    TOTEN  =      -218.76689836 eV

  energy without entropy =     -218.77368415  energy(sigma->0) =     -218.76916029


--------------------------------------------------------------------------------------------------------




--------------------------------------- Iteration      1(  12)  ---------------------------------------


    POTLOK:  cpu time    0.2562: real time    0.2563
    SETDIJ:  cpu time    0.3230: real time    0.3230
    TRIAL :  cpu time    8.8880: real time    8.9983
    CORREC:  cpu time    3.3804: real time    3.3995
    CHARGE:  cpu time    1.0671: real time    1.0672
    --------------------------------------------
      LOOP:  cpu time   13.9350: real time   14.0656

 eigenvalue-minimisations  :     0
 total energy-change (2. order) :-0.8160286E+01  (-0.6505870E+01)
 number of electron     179.9999996 magnetization      -0.4129169
 augmentation part       58.2174249 magnetization      -0.2682901

 Free energy of the ion-electron system (eV)
  ---------------------------------------------------
  alpha Z        PSCENC =       532.25742704
  Ewald energy   TEWEN  =     -8601.05107233
  -Hartree energ DENC   =     -1705.79942014
  -exchange      EXHF   =         0.00000000
  -V(xc)+E(xc)   XCENC  =      -665.13667896
  PAW double counting   =     14481.37423656   -13687.07616285
  entropy T*S    EENTRO =         0.00888387
  eigenvalues    EBANDS =       953.38169202
  atomic energy  EATOM  =      8465.11600846
  ---------------------------------------------------
  free energy    TOTEN  =      -226.92718443 eV

  energy without entropy =     -226.93606830  energy(sigma->0) =     -226.93014572


--------------------------------------------------------------------------------------------------------




--------------------------------------- Iteration      1(  13)  ---------------------------------------


    POTLOK:  cpu time    0.2477: real time    0.2476
    SETDIJ:  cpu time    0.3420: real time    0.3420
    TRIAL :  cpu time    9.7316: real time    9.7819
    CORREC:  cpu time    3.4060: real time    4.3801
    CHARGE:  cpu time    1.0640: real time    1.0642
    --------------------------------------------
      LOOP:  cpu time   14.7959: real time   15.8205

 eigenvalue-minimisations  :     0
 total energy-change (2. order) :-0.6427518E+01  (-0.8969668E+00)
 number of electron     179.9999997 magnetization      -0.4812954
 augmentation part       57.4035867 magnetization      -0.2977884

 Free energy of the ion-electron system (eV)
  ---------------------------------------------------
  alpha Z        PSCENC =       532.25742704
  Ewald energy   TEWEN  =     -8601.05107233
  -Hartree energ DENC   =     -1701.21136516
  -exchange      EXHF   =         0.00000000
  -V(xc)+E(xc)   XCENC  =      -665.77484929
  PAW double counting   =     14194.25499845   -13373.06442317
  entropy T*S    EENTRO =         0.00943760
  eigenvalues    EBANDS =       916.10968926
  atomic energy  EATOM  =      8465.11600846
  ---------------------------------------------------
  free energy    TOTEN  =      -233.35470287 eV

  energy without entropy =     -233.36414047  energy(sigma->0) =     -233.35784874


--------------------------------------------------------------------------------------------------------




--------------------------------------- Iteration      1(  14)  ---------------------------------------


    POTLOK:  cpu time    0.2469: real time    0.2469
    SETDIJ:  cpu time    0.3397: real time    0.3397
    TRIAL :  cpu time    8.9346: real time    9.0426
    CORREC:  cpu time    3.3071: real time    3.3971
    CHARGE:  cpu time    1.0646: real time    1.0837
    --------------------------------------------
      LOOP:  cpu time   13.8964: real time   14.1157

 eigenvalue-minimisations  :     0
 total energy-change (2. order) :-0.8876211E+00  (-0.7835195E+00)
 number of electron     179.9999996 magnetization      -0.5326424
 augmentation part       57.2456165 magnetization      -0.3369355

 Free energy of the ion-electron system (eV)
  ---------------------------------------------------
  alpha Z        PSCENC =       532.25742704
  Ewald energy   TEWEN  =     -8601.05107233
  -Hartree energ DENC   =     -1659.10282880
  -exchange      EXHF   =         0.00000000
  -V(xc)+E(xc)   XCENC  =      -667.31556091
  PAW double counting   =     13902.33184327   -13069.04457731
  entropy T*S    EENTRO =         0.01039816
  eigenvalues    EBANDS =       862.55699904
  atomic energy  EATOM  =      8465.11600846
  ---------------------------------------------------
  free energy    TOTEN  =      -234.24232394 eV

  energy without entropy =     -234.25272210  energy(sigma->0) =     -234.24579000


--------------------------------------------------------------------------------------------------------




--------------------------------------- Iteration      1(  15)  ---------------------------------------


    POTLOK:  cpu time    0.2468: real time    0.2468
    SETDIJ:  cpu time    0.3625: real time    0.3628
    TRIAL :  cpu time    8.9719: real time    8.9915
    CORREC:  cpu time    3.3415: real time    3.3861
    CHARGE:  cpu time    1.0567: real time    1.0661
    --------------------------------------------
      LOOP:  cpu time   13.9833: real time   14.0585

 eigenvalue-minimisations  :     0
 total energy-change (2. order) :-0.7827930E+00  (-0.5324864E+00)
 number of electron     179.9999996 magnetization      -0.6061792
 augmentation part       57.7813974 magnetization      -0.3898546

 Free energy of the ion-electron system (eV)
  ---------------------------------------------------
  alpha Z        PSCENC =       532.25742704
  Ewald energy   TEWEN  =     -8601.05107233
  -Hartree energ DENC   =     -1640.62885003
  -exchange      EXHF   =         0.00000000
  -V(xc)+E(xc)   XCENC  =      -667.93434638
  PAW double counting   =     13390.72747478   -12552.46774157
  entropy T*S    EENTRO =         0.01188122
  eigenvalues    EBANDS =       838.94558497
  atomic energy  EATOM  =      8465.11600846
  ---------------------------------------------------
  free energy    TOTEN  =      -235.02511691 eV

  energy without entropy =     -235.03699813  energy(sigma->0) =     -235.02907732


--------------------------------------------------------------------------------------------------------




--------------------------------------- Iteration      1(  16)  ---------------------------------------


    POTLOK:  cpu time    0.2465: real time    0.2465
    SETDIJ:  cpu time    0.3265: real time    0.3265
    TRIAL :  cpu time    8.9215: real time    9.0204
    CORREC:  cpu time    3.4269: real time    3.4278
    CHARGE:  cpu time    1.0612: real time    1.0614
    --------------------------------------------
      LOOP:  cpu time   13.9854: real time   14.0866

 eigenvalue-minimisations  :     0
 total energy-change (2. order) :-0.5312869E+00  (-0.1595542E+00)
 number of electron     179.9999996 magnetization      -0.6645718
 augmentation part       58.1268745 magnetization      -0.4220043

 Free energy of the ion-electron system (eV)
  ---------------------------------------------------
  alpha Z        PSCENC =       532.25742704
  Ewald energy   TEWEN  =     -8601.05107233
  -Hartree energ DENC   =     -1659.06207038
  -exchange      EXHF   =         0.00000000
  -V(xc)+E(xc)   XCENC  =      -667.16831579
  PAW double counting   =     13088.97384223   -12254.69079127
  entropy T*S    EENTRO =         0.01183048
  eigenvalues    EBANDS =       860.05668696
  atomic energy  EATOM  =      8465.11600846
  ---------------------------------------------------
  free energy    TOTEN  =      -235.55640385 eV

  energy without entropy =     -235.56823433  energy(sigma->0) =     -235.56034735


--------------------------------------------------------------------------------------------------------




--------------------------------------- Iteration      1(  17)  ---------------------------------------


    POTLOK:  cpu time    0.2472: real time    0.2472
    SETDIJ:  cpu time    0.3292: real time    0.3294
    TRIAL :  cpu time    9.7777: real time    9.7887
    CORREC:  cpu time    3.3512: real time    3.3659
    CHARGE:  cpu time    1.2053: real time    1.8736
    --------------------------------------------
      LOOP:  cpu time   14.9131: real time   15.6087

 eigenvalue-minimisations  :     0
 total energy-change (2. order) :-0.1594630E+00  (-0.1844888E+00)
 number of electron     179.9999996 magnetization      -0.7134952
 augmentation part       58.2628038 magnetization      -0.4610053

 Free energy of the ion-electron system (eV)
  ---------------------------------------------------
  alpha Z        PSCENC =       532.25742704
  Ewald energy   TEWEN  =     -8601.05107233
  -Hartree energ DENC   =     -1674.21375793
  -exchange      EXHF   =         0.00000000
  -V(xc)+E(xc)   XCENC  =      -666.52136074
  PAW double counting   =     13031.20082233   -12200.50519374
  entropy T*S    EENTRO =         0.01332292
  eigenvalues    EBANDS =       877.98942958
  atomic energy  EATOM  =      8465.11600846
  ---------------------------------------------------
  free energy    TOTEN  =      -235.71586685 eV

  energy without entropy =     -235.72918977  energy(sigma->0) =     -235.72030782


--------------------------------------------------------------------------------------------------------




--------------------------------------- Iteration      1(  18)  ---------------------------------------


    POTLOK:  cpu time    0.2468: real time    0.2468
    SETDIJ:  cpu time    0.3218: real time    0.3218
    TRIAL :  cpu time    8.9350: real time    9.0443
    CORREC:  cpu time    3.3703: real time    3.3791
    CHARGE:  cpu time    1.0661: real time    1.1130
    --------------------------------------------
      LOOP:  cpu time   13.9447: real time   14.1107

 eigenvalue-minimisations  :     0
 total energy-change (2. order) :-0.1844108E+00  (-0.1067666E+00)
 number of electron     179.9999996 magnetization      -0.7603472
 augmentation part       58.0582792 magnetization      -0.4939490

 Free energy of the ion-electron system (eV)
  ---------------------------------------------------
  alpha Z        PSCENC =       532.25742704
  Ewald energy   TEWEN  =     -8601.05107233
  -Hartree energ DENC   =     -1678.57135388
  -exchange      EXHF   =         0.00000000
  -V(xc)+E(xc)   XCENC  =      -666.17163294
  PAW double counting   =     12985.83110062   -12156.78152998
  entropy T*S    EENTRO =         0.01335630
  eigenvalues    EBANDS =       883.45745241
  atomic energy  EATOM  =      8465.11600846
  ---------------------------------------------------
  free energy    TOTEN  =      -235.90027768 eV

  energy without entropy =     -235.91363399  energy(sigma->0) =     -235.90472979


--------------------------------------------------------------------------------------------------------




--------------------------------------- Iteration      1(  19)  ---------------------------------------


    POTLOK:  cpu time    0.2465: real time    0.2466
    SETDIJ:  cpu time    0.3233: real time    0.3233
    TRIAL :  cpu time    8.9065: real time    8.9431
    CORREC:  cpu time    3.3957: real time    3.4308
    CHARGE:  cpu time    1.1369: real time    1.1402
    --------------------------------------------
      LOOP:  cpu time   14.0179: real time   14.0933

 eigenvalue-minimisations  :     0
 total energy-change (2. order) :-0.1062639E+00  (-0.4538010E-01)
 number of electron     179.9999996 magnetization      -0.7888624
 augmentation part       57.8769842 magnetization      -0.5092344

 Free energy of the ion-electron system (eV)
  ---------------------------------------------------
  alpha Z        PSCENC =       532.25742704
  Ewald energy   TEWEN  =     -8601.05107233
  -Hartree energ DENC   =     -1667.05861860
  -exchange      EXHF   =         0.00000000
  -V(xc)+E(xc)   XCENC  =      -666.45284779
  PAW double counting   =     12959.24477448   -12128.14730262
  entropy T*S    EENTRO =         0.01372275
  eigenvalues    EBANDS =       870.07173352
  atomic energy  EATOM  =      8465.11600846
  ---------------------------------------------------
  free energy    TOTEN  =      -236.00654155 eV

  energy without entropy =     -236.02026430  energy(sigma->0) =     -236.01111580


--------------------------------------------------------------------------------------------------------




--------------------------------------- Iteration      1(  20)  ---------------------------------------


    POTLOK:  cpu time    0.2466: real time    0.2466
    SETDIJ:  cpu time    0.3217: real time    0.3216
    TRIAL :  cpu time    8.9989: real time    9.1125
    CORREC:  cpu time    3.3048: real time    3.3242
    CHARGE:  cpu time    1.1337: real time    1.1342
    --------------------------------------------
      LOOP:  cpu time   14.0089: real time   14.1431

 eigenvalue-minimisations  :     0
 total energy-change (2. order) :-0.4528083E-01  (-0.7043871E-01)
 number of electron     179.9999996 magnetization      -0.8554245
 augmentation part       57.8085783 magnetization      -0.5515238

 Free energy of the ion-electron system (eV)
  ---------------------------------------------------
  alpha Z        PSCENC =       532.25742704
  Ewald energy   TEWEN  =     -8601.05107233
  -Hartree energ DENC   =     -1658.51970158
  -exchange      EXHF   =         0.00000000
  -V(xc)+E(xc)   XCENC  =      -666.70412775
  PAW double counting   =     12949.67226849   -12116.79010743
  entropy T*S    EENTRO =         0.01406897
  eigenvalues    EBANDS =       859.95375998
  atomic energy  EATOM  =      8465.11600846
  ---------------------------------------------------
  free energy    TOTEN  =      -236.05182238 eV

  energy without entropy =     -236.06589135  energy(sigma->0) =     -236.05651204


--------------------------------------------------------------------------------------------------------




--------------------------------------- Iteration      1(  21)  ---------------------------------------


    POTLOK:  cpu time    0.2466: real time    0.2466
    SETDIJ:  cpu time    0.3313: real time    0.3312
    TRIAL :  cpu time    9.7542: real time    9.7650
    CORREC:  cpu time    3.3532: real time    3.3682
    CHARGE:  cpu time    1.0731: real time    1.0731
    --------------------------------------------
      LOOP:  cpu time   14.7615: real time   14.7873

 eigenvalue-minimisations  :     0
 total energy-change (2. order) :-0.7049129E-01  (-0.3043223E-01)
 number of electron     179.9999996 magnetization      -0.8925026
 augmentation part       57.9145499 magnetization      -0.5779100

 Free energy of the ion-electron system (eV)
  ---------------------------------------------------
  alpha Z        PSCENC =       532.25742704
  Ewald energy   TEWEN  =     -8601.05107233
  -Hartree energ DENC   =     -1658.23385859
  -exchange      EXHF   =         0.00000000
  -V(xc)+E(xc)   XCENC  =      -666.62929232
  PAW double counting   =     12966.16791368   -12133.04838034
  entropy T*S    EENTRO =         0.01424305
  eigenvalues    EBANDS =       859.28487177
  atomic energy  EATOM  =      8465.11600846
  ---------------------------------------------------
  free energy    TOTEN  =      -236.12231367 eV

  energy without entropy =     -236.13655672  energy(sigma->0) =     -236.12706135


--------------------------------------------------------------------------------------------------------




--------------------------------------- Iteration      1(  22)  ---------------------------------------


    POTLOK:  cpu time    0.2461: real time    0.2465
    SETDIJ:  cpu time    0.3238: real time    0.3241
    TRIAL :  cpu time    8.8271: real time    9.6518
    CORREC:  cpu time    3.3274: real time    3.3542
    CHARGE:  cpu time    1.0595: real time    1.0702
    --------------------------------------------
      LOOP:  cpu time   13.7886: real time   14.6530

 eigenvalue-minimisations  :     0
 total energy-change (2. order) :-0.3041829E-01  (-0.1465676E-01)
 number of electron     179.9999996 magnetization      -0.9196155
 augmentation part       57.9953837 magnetization      -0.5992455

 Free energy of the ion-electron system (eV)
  ---------------------------------------------------
  alpha Z        PSCENC =       532.25742704
  Ewald energy   TEWEN  =     -8601.05107233
  -Hartree energ DENC   =     -1665.35440615
  -exchange      EXHF   =         0.00000000
  -V(xc)+E(xc)   XCENC  =      -666.33967897
  PAW double counting   =     12986.36563912   -12154.64029223
  entropy T*S    EENTRO =         0.01431437
  eigenvalues    EBANDS =       867.47940004
  atomic energy  EATOM  =      8465.11600846
  ---------------------------------------------------
  free energy    TOTEN  =      -236.15273196 eV

  energy without entropy =     -236.16704634  energy(sigma->0) =     -236.15750342


--------------------------------------------------------------------------------------------------------




--------------------------------------- Iteration      1(  23)  ---------------------------------------


    POTLOK:  cpu time    0.2459: real time    0.2459
    SETDIJ:  cpu time    0.3355: real time    0.3355
    TRIAL :  cpu time    8.8918: real time    8.9701
    CORREC:  cpu time    3.3960: real time    3.4136
    CHARGE:  cpu time    1.0605: real time    1.0607
    --------------------------------------------
[...]
  8.439  14.381   0.000  -0.000   0.000   0.001  -0.000   0.001
 14.381  24.508   0.000  -0.000   0.000   0.001  -0.001   0.001
  0.000   0.000   1.996   0.000   0.000   5.750   0.000   0.000
 -0.000  -0.000   0.000   1.996  -0.000   0.000   5.748  -0.000
  0.000   0.000   0.000  -0.000   1.996   0.000  -0.000   5.749
  0.001   0.001   5.750   0.000   0.000  16.477   0.000   0.000
 -0.000  -0.001   0.000   5.748  -0.000   0.000  16.472  -0.000
  0.001   0.001   0.000  -0.000   5.749   0.000  -0.000  16.476
 total augmentation occupancy for first ion, spin component:           1
  4.378  -1.251   0.002   0.002  -0.003   0.000  -0.000   0.000
 -1.251   0.377  -0.003  -0.000  -0.002   0.000   0.000  -0.000
  0.002  -0.003   1.412  -0.003   0.004  -0.101   0.000  -0.000
  0.002  -0.000  -0.003   1.508   0.014   0.000  -0.102  -0.001
 -0.003  -0.002   0.004   0.014   1.429  -0.000  -0.001  -0.101
  0.000   0.000  -0.101   0.000  -0.000   0.008   0.000   0.000
 -0.000   0.000   0.000  -0.102  -0.001   0.000   0.007   0.000
  0.000  -0.000  -0.000  -0.001  -0.101   0.000   0.000   0.008
 total augmentation occupancy for first ion, spin component:           2
 -0.062   0.020   0.018   0.027  -0.020  -0.001  -0.001   0.001
  0.020  -0.007   0.003   0.007  -0.002  -0.000  -0.001   0.000
  0.018   0.003  -0.028  -0.025   0.013   0.002   0.000  -0.000
  0.027   0.007  -0.025  -0.043  -0.075   0.000   0.002   0.001
 -0.020  -0.002   0.013  -0.075  -0.018  -0.000   0.001   0.001
 -0.001  -0.000   0.002   0.000  -0.000  -0.000   0.000  -0.000
 -0.001  -0.001   0.000   0.002   0.001   0.000  -0.000   0.000
  0.001   0.000  -0.000   0.001   0.001  -0.000   0.000  -0.000


------------------------ aborting loop because EDIFF is reached ----------------------------------------


 


 total charge     
 
# of ion       s       p       d       tot
------------------------------------------
    1        0.405   0.430   0.000   0.835
    2        0.405   0.430   0.000   0.835
    3        0.405   0.430   0.000   0.835
    4        0.405   0.430   0.000   0.835
    5        0.405   0.426   0.000   0.831
    6        0.405   0.426   0.000   0.831
    7        0.405   0.429   0.000   0.834
    8        0.405   0.429   0.000   0.834
    9        0.405   0.426   0.000   0.832
   10        0.406   0.426   0.000   0.832
   11        0.405   0.428   0.000   0.833
   12        0.405   0.428   0.000   0.833
   13        0.405   0.427   0.000   0.831
   14        0.405   0.427   0.000   0.832
   15        0.405   0.426   0.000   0.830
   16        0.405   0.426   0.000   0.831
   17        0.405   0.427   0.000   0.832
   18        0.405   0.426   0.000   0.831
   19        0.330   0.357   5.135   5.822
   20        0.334   0.352   5.136   5.822
   21        0.332   0.353   5.140   5.825
   22        0.337   0.355   5.120   5.812
   23        0.332   0.354   5.137   5.824
   24        0.335   0.353   5.133   5.820
   25        0.335   0.352   5.133   5.820
   26        0.336   0.353   5.127   5.816
   27        0.334   0.349   5.141   5.824
   28        0.336   0.352   5.134   5.822
   29        0.334   0.356   5.125   5.815
   30        0.331   0.353   5.143   5.827
   31        0.334   0.356   5.120   5.810
   32        0.330   0.355   5.142   5.827
   33        0.332   0.354   5.134   5.821
   34        0.332   0.355   5.130   5.817
   35        0.334   0.350   5.136   5.821
   36        0.330   0.356   5.135   5.821
--------------------------------------------------
tot         13.290  14.062  92.401 119.752
 


 magnetization (x)
 
# of ion       s       p       d       tot
------------------------------------------
    1       -0.005  -0.010   0.000  -0.015
    2       -0.005  -0.009   0.000  -0.014
    3       -0.003  -0.007   0.000  -0.010
    4       -0.003  -0.007   0.000  -0.011
    5       -0.009  -0.019   0.000  -0.028
    6       -0.009  -0.019   0.000  -0.028
    7        0.000  -0.001   0.000  -0.001
    8        0.000  -0.000   0.000  -0.000
    9        0.004   0.011   0.000   0.015
   10        0.004   0.010   0.000   0.014
   11       -0.003  -0.010   0.000  -0.013
   12       -0.003  -0.010   0.000  -0.013
   13        0.005   0.007   0.000   0.012
   14        0.005   0.007   0.000   0.012
   15        0.009   0.018   0.000   0.026
   16        0.009   0.017   0.000   0.026
   17        0.003   0.007   0.000   0.010
   18        0.003   0.006   0.000   0.010
   19        0.011   0.018   2.123   2.152
   20       -0.024  -0.022  -2.310  -2.357
   21        0.019   0.006   2.236   2.261
   22        0.030   0.027   2.495   2.553
   23        0.017   0.014   2.130   2.160
   24        0.019   0.015   2.328   2.362
   25       -0.017  -0.015  -2.361  -2.393
   26       -0.019  -0.014  -2.430  -2.464
   27       -0.020  -0.007  -2.378  -2.405
   28       -0.027  -0.025  -2.287  -2.339
   29       -0.013  -0.021  -2.366  -2.400
   30        0.023   0.022   2.154   2.199
   31       -0.013  -0.021  -2.401  -2.434
   32        0.022   0.023   2.097   2.142
   33       -0.013  -0.012  -2.279  -2.304
   34        0.016   0.013   2.311   2.340
   35       -0.017  -0.004  -2.390  -2.411
   36        0.004   0.000   2.218   2.223
--------------------------------------------------
tot          0.000  -0.013  -1.108  -1.122
 
    FORLOC:  cpu time    0.0282: real time    0.0282
    FORNL :  cpu time   12.9563: real time   13.0151
    STRESS:  cpu time   18.0502: real time   18.1530
    FORCOR:  cpu time    0.2709: real time    0.2709
    OFIELD:  cpu time    0.0014: real time    0.0014

  FORCE on cell =-STRESS in cart. coord.  units (eV):
  Direction    XX          YY          ZZ          XY          YZ          ZX
  --------------------------------------------------------------------------------------
  Alpha Z   532.25743   532.25743   532.25743
  Ewald   -2702.40749 -2702.40749 -3196.26924    -0.00000    -0.00000    -0.00000
  Hartree   720.79660   723.37691   223.02275     0.01725    -0.00000    -0.00000
  E(xc)    -760.00771  -760.61829  -759.64996    -0.00166    -0.00000    -0.00000
  Local     250.20639   243.61114  1267.48226    -0.15603     0.00000    -0.00000
  n-local  -111.01654  -112.86774  -119.75359    -0.24495    -0.29395    -0.07952
  augment   520.77788   523.25162   512.79679     0.07721     0.00001     0.00001
  Kinetic  1555.12491  1558.94919  1540.16580    -0.10001     1.08648    -0.02213
  Fock        0.00000     0.00000     0.00000     0.00000     0.00000     0.00000
  -------------------------------------------------------------------------------------
  Total       5.73146     5.55276     0.05223    -0.40820     0.00000     0.00000
  in kB      19.40275    18.79779     0.17682    -1.38187     0.00000     0.00000
  external pressure =       12.79 kB  Pullay stress =        0.00 kB


 VOLUME and BASIS-vectors are now :
 -----------------------------------------------------------------------------
  energy-cutoff  :      404.80
  volume of cell :      473.27
      direct lattice vectors                 reciprocal lattice vectors
     8.250148166  0.000000000  0.000000000     0.121209944  0.000000000  0.000000000
     0.000000000  8.250148166  0.000000000     0.000000000  0.121209944  0.000000000
     0.000000000  0.000000000  6.953274261     0.000000000  0.000000000  0.143817137

  length of vectors
     8.250148166  8.250148166  6.953274261     0.121209944  0.121209944  0.143817137


 FORCES acting on ions:
    Electron-Ion                     Ewald-Force                    Non-Local-Force
 -----------------------------------------------------------------------------------------------
   -.107E+00 -.151E+00 0.431E-02   -.239E-08 -.239E-08 0.411E-08   0.113E+00 0.298E-01 -.336E-01
   -.107E+00 -.151E+00 -.431E-02   -.239E-08 -.239E-08 0.411E-08   0.113E+00 0.298E-01 0.336E-01
   -.164E+00 0.159E+00 -.201E-02   -.239E-08 -.802E-09 0.411E-08   0.118E+00 -.419E-01 -.790E-02
   -.164E+00 0.159E+00 0.201E-02   -.239E-08 -.802E-09 0.411E-08   0.118E+00 -.419E-01 0.790E-02
   -.112E+00 0.128E-01 0.226E-01   -.239E-08 0.631E-08 0.411E-08   0.178E+00 -.109E-01 -.991E-01
   -.112E+00 0.128E-01 -.226E-01   -.239E-08 0.631E-08 0.411E-08   0.178E+00 -.109E-01 0.991E-01
   -.568E-01 -.727E-02 -.528E-01   -.802E-09 -.239E-08 0.411E-08   -.127E-01 0.264E-01 0.241E-01
   -.568E-01 -.727E-02 0.528E-01   -.802E-09 -.239E-08 0.411E-08   -.127E-01 0.264E-01 -.241E-01
   0.364E-02 0.434E-01 -.266E-01   -.802E-09 -.802E-09 0.411E-08   0.551E-01 -.449E-01 0.216E-01
   0.364E-02 0.434E-01 0.266E-01   -.802E-09 -.802E-09 0.411E-08   0.551E-01 -.449E-01 -.216E-01
   -.244E-01 -.359E-01 -.830E-02   -.802E-09 0.631E-08 0.411E-08   -.726E-01 0.209E-01 -.952E-02
   -.244E-01 -.359E-01 0.830E-02   -.802E-09 0.631E-08 0.411E-08   -.726E-01 0.209E-01 0.952E-02
   0.160E+00 -.137E+00 -.244E-01   0.631E-08 -.239E-08 0.411E-08   -.865E-01 0.835E-01 0.421E-01
   0.160E+00 -.137E+00 0.244E-01   0.631E-08 -.239E-08 0.411E-08   -.865E-01 0.835E-01 -.421E-01
   0.172E+00 -.221E-02 -.789E-01   0.631E-08 -.802E-09 0.411E-08   -.196E+00 -.424E-02 0.113E+00
   0.172E+00 -.221E-02 0.789E-01   0.631E-08 -.802E-09 0.411E-08   -.196E+00 -.424E-02 -.113E+00
   0.127E+00 0.130E+00 0.165E-01   0.631E-08 0.631E-08 0.411E-08   -.779E-01 -.685E-01 0.171E-01
   0.127E+00 0.130E+00 -.165E-01   0.631E-08 0.631E-08 0.411E-08   -.779E-01 -.685E-01 -.171E-01
   0.145E+00 0.657E-02 -.435E-08   -.169E-07 -.169E-07 -.411E-08   -.101E+00 0.953E-02 0.000E+00
   0.552E+00 -.250E-01 -.250E-08   -.169E-07 -.169E-07 -.411E-08   -.229E+00 0.487E-01 0.000E+00
   0.279E-01 -.191E-01 -.369E-08   -.169E-07 0.802E-09 -.411E-08   0.514E-01 -.674E-02 0.000E+00
   -.567E+00 0.608E+00 -.514E-09   -.169E-07 0.802E-09 -.411E-08   0.374E+00 -.326E+00 0.000E+00
   -.196E+00 0.126E-01 -.183E-08   -.169E-07 0.130E-07 -.411E-08   0.173E+00 0.559E-02 0.000E+00
   -.398E-01 -.499E+00 -.295E-08   -.169E-07 0.130E-07 -.411E-08   0.106E-02 0.354E+00 0.000E+00
   0.422E+00 0.485E-01 -.382E-08   0.802E-09 -.169E-07 -.411E-08   -.152E+00 -.864E-01 0.000E+00
   -.505E+00 0.593E+00 -.212E-08   0.802E-09 -.169E-07 -.411E-08   0.220E+00 -.329E+00 0.000E+00
   0.224E+00 -.696E-01 -.332E-08   0.802E-09 0.802E-09 -.411E-08   -.106E+00 0.879E-01 0.000E+00
   -.158E-01 -.700E+00 -.108E-09   0.802E-09 0.802E-09 -.411E-08   -.665E-01 0.320E+00 0.000E+00
   0.290E+00 0.743E-02 -.163E-08   0.802E-09 0.130E-07 -.411E-08   -.100E+00 -.377E-03 0.000E+00
   0.856E-01 0.587E-01 -.265E-08   0.802E-09 0.130E-07 -.411E-08   0.223E-01 -.929E-01 0.000E+00
   -.408E+00 0.183E-01 -.434E-08   0.130E-07 -.169E-07 -.411E-08   0.177E+00 -.363E-01 0.000E+00
   -.229E-01 -.703E-01 -.222E-08   0.130E-07 -.169E-07 -.411E-08   0.683E-02 0.429E-01 0.000E+00
   -.960E-01 0.204E-01 -.381E-08   0.130E-07 0.802E-09 -.411E-08   -.893E-01 0.135E-01 0.000E+00
   0.362E+00 -.194E-01 -.361E-09   0.130E-07 0.802E-09 -.411E-08   -.266E+00 0.874E-01 0.000E+00
   -.212E+00 -.442E-01 -.190E-08   0.130E-07 0.130E-07 -.411E-08   -.147E-01 0.198E-01 0.000E+00
   -.122E+00 0.818E-01 -.279E-08   0.130E-07 0.130E-07 -.411E-08   0.149E+00 -.129E+00 0.000E+00
 -----------------------------------------------------------------------------------------------
   -.838E-01 0.377E-01 -.813E-07   -.197E-14 0.275E-13 0.265E-14   0.838E-01 -.377E-01 0.000E+00
 
 
 POSITION                                       TOTAL-FORCE (eV/Angst)
 -----------------------------------------------------------------------------------
      0.00000      0.00000      0.00000        -0.003083     -0.123249     -0.026218
      0.00000      0.00000      3.47664        -0.003083     -0.123249      0.026218
      0.00000      2.75005      0.00000        -0.056856      0.120809     -0.009380
      0.00000      2.75005      3.47664        -0.056856      0.120809      0.009380
      0.00000      5.50010      0.00000         0.049917      0.002613     -0.067578
      0.00000      5.50010      3.47664         0.049917      0.002613      0.067578
      2.75005      0.00000      0.00000        -0.068793      0.017216     -0.030975
      2.75005      0.00000      3.47664        -0.068793      0.017216      0.030975
      2.75005      2.75005      0.00000         0.053638      0.002138     -0.007317
      2.75005      2.75005      3.47664         0.053638      0.002138      0.007317
      2.75005      5.50010      0.00000        -0.090804     -0.016677     -0.017342
      2.75005      5.50010      3.47664        -0.090804     -0.016677      0.017342
      5.50010      0.00000      0.00000         0.081009     -0.061259      0.013563
      5.50010      0.00000      3.47664         0.081009     -0.061259     -0.013563
      5.50010      2.75005      0.00000        -0.006714     -0.006476      0.022922
      5.50010      2.75005      3.47664        -0.006714     -0.006476     -0.022922
      5.50010      5.50010      0.00000         0.055790      0.067747      0.031270
      5.50010      5.50010      3.47664         0.055790      0.067747     -0.031270
      1.37502      1.37502      1.73832         0.047962      0.015347      0.000000
      1.37502      1.37502      5.21496         0.336246      0.026238      0.000000
      1.37502      4.12507      1.73832         0.083179     -0.021320      0.000000
      1.37502      4.12507      5.21496        -0.203197      0.296848      0.000000
      1.37502      6.87512      1.73832        -0.026627      0.014518      0.000000
      1.37502      6.87512      5.21496        -0.039284     -0.157791      0.000000
      4.12507      1.37502      1.73832         0.281643     -0.033454      0.000000
      4.12507      1.37502      5.21496        -0.294350      0.277928      0.000000
      4.12507      4.12507      1.73832         0.120568      0.012848      0.000000
      4.12507      4.12507      5.21496        -0.083273     -0.396810      0.000000
      4.12507      6.87512      1.73832         0.188812      0.007581      0.000000
      4.12507      6.87512      5.21496         0.106048     -0.033075      0.000000
      6.87512      1.37502      1.73832        -0.237954     -0.017413      0.000000
      6.87512      1.37502      5.21496        -0.018146     -0.028789      0.000000
      6.87512      4.12507      1.73832        -0.184701      0.031585      0.000000
      6.87512      4.12507      5.21496         0.097952      0.070102      0.000000
      6.87512      6.87512      1.73832        -0.228682     -0.022156      0.000000
      6.87512      6.87512      5.21496         0.025597     -0.047913      0.000000
 -----------------------------------------------------------------------------------
    total drift:                                0.000005      0.000003     -0.000000


--------------------------------------------------------------------------------------------------------



  FREE ENERGIE OF THE ION-ELECTRON SYSTEM (eV)
  ---------------------------------------------------
  free  energy   TOTEN  =      -236.24319865 eV

  energy  without entropy=     -236.25592414  energy(sigma->0) =     -236.24744048
 


--------------------------------------------------------------------------------------------------------


    POTLOK:  cpu time    1.4589: real time    1.4588


--------------------------------------------------------------------------------------------------------


     LOOP+:  cpu time 1086.7993: real time 1107.4392
    4ORBIT:  cpu time    0.0000: real time    0.0000
 


 total charge     
 
# of ion       s       p       d       tot
------------------------------------------
    1        0.405   0.430   0.000   0.835
    2        0.405   0.430   0.000   0.835
    3        0.405   0.430   0.000   0.835
    4        0.405   0.430   0.000   0.835
    5        0.405   0.426   0.000   0.831
    6        0.405   0.426   0.000   0.831
    7        0.405   0.429   0.000   0.834
    8        0.405   0.429   0.000   0.834
    9        0.405   0.426   0.000   0.832
   10        0.406   0.426   0.000   0.832
   11        0.405   0.428   0.000   0.833
   12        0.405   0.428   0.000   0.833
   13        0.405   0.427   0.000   0.831
   14        0.405   0.427   0.000   0.832
   15        0.405   0.426   0.000   0.830
   16        0.405   0.426   0.000   0.831
   17        0.405   0.427   0.000   0.832
   18        0.405   0.426   0.000   0.831
   19        0.330   0.357   5.135   5.822
   20        0.334   0.352   5.136   5.822
   21        0.332   0.353   5.140   5.825
   22        0.337   0.355   5.120   5.812
   23        0.332   0.354   5.137   5.824
   24        0.335   0.353   5.133   5.820
   25        0.335   0.352   5.133   5.820
   26        0.336   0.353   5.127   5.816
   27        0.334   0.349   5.141   5.824
   28        0.336   0.352   5.134   5.822
   29        0.334   0.356   5.125   5.815
   30        0.331   0.353   5.143   5.827
   31        0.334   0.356   5.120   5.810
   32        0.330   0.355   5.142   5.827
   33        0.332   0.354   5.134   5.821
   34        0.332   0.355   5.130   5.817
   35        0.334   0.350   5.136   5.821
   36        0.330   0.356   5.135   5.821
--------------------------------------------------
tot         13.290  14.062  92.401 119.752
 


 magnetization (x)
 
# of ion       s       p       d       tot
------------------------------------------
    1       -0.005  -0.010   0.000  -0.015
    2       -0.005  -0.009   0.000  -0.014
    3       -0.003  -0.007   0.000  -0.010
    4       -0.003  -0.007   0.000  -0.011
    5       -0.009  -0.019   0.000  -0.028
    6       -0.009  -0.019   0.000  -0.028
    7        0.000  -0.001   0.000  -0.001
    8        0.000  -0.000   0.000  -0.000
    9        0.004   0.011   0.000   0.015
   10        0.004   0.010   0.000   0.014
   11       -0.003  -0.010   0.000  -0.013
   12       -0.003  -0.010   0.000  -0.013
   13        0.005   0.007   0.000   0.012
   14        0.005   0.007   0.000   0.012
   15        0.009   0.018   0.000   0.026
   16        0.009   0.017   0.000   0.026
   17        0.003   0.007   0.000   0.010
   18        0.003   0.006   0.000   0.010
   19        0.011   0.018   2.123   2.152
   20       -0.024  -0.022  -2.310  -2.357
   21        0.019   0.006   2.236   2.261
   22        0.030   0.027   2.495   2.553
   23        0.017   0.014   2.130   2.160
   24        0.019   0.015   2.328   2.362
   25       -0.017  -0.015  -2.361  -2.393
   26       -0.019  -0.014  -2.430  -2.464
   27       -0.020  -0.007  -2.378  -2.405
   28       -0.027  -0.025  -2.287  -2.339
   29       -0.013  -0.021  -2.366  -2.400
   30        0.023   0.022   2.154   2.199
   31       -0.013  -0.021  -2.401  -2.434
   32        0.022   0.023   2.097   2.142
   33       -0.013  -0.012  -2.279  -2.304
   34        0.016   0.013   2.311   2.340
   35       -0.017  -0.004  -2.390  -2.411
   36        0.004   0.000   2.218   2.223
--------------------------------------------------
tot          0.000  -0.013  -1.108  -1.122
 

 total amount of memory used by VASP MPI-rank0   740218. kBytes
=======================================================================

   base      :      30000. kBytes
   nonl-proj :      34307. kBytes
   fftplans  :      21726. kBytes
   grid      :      14732. kBytes
   one-center:        279. kBytes
   wavefun   :     639174. kBytes
 
  
  
 General timing and accounting informations for this job:
 ========================================================
  
                  Total CPU time used (sec):     1112.410
                            User time (sec):     1091.016
                          System time (sec):       21.394
                         Elapsed time (sec):     1136.281
  
                   Maximum memory used (kb):      878380.
                   Average memory used (kb):           0.
  
                          Minor page faults:       503466
                          Major page faults:           18
                 Voluntary context switches:         3456
