 vasp.5.4.4.18Apr17-6-g9f103f2a35 (build Dec 20 2018 12:05:58) complex          
  
 executed on             LinuxIFC date 2019.06.21  01:05:28
 running on   32 total cores
 distrk:  each k-point on    8 cores,    4 groups
 distr:  one band on NCORES_PER_BAND=   4 cores,    2 groups


--------------------------------------------------------------------------------------------------------


 INCAR:
 POTCAR:    PAW_PBE Al 04Jan2001                  
 POTCAR:    PAW_PBE Mn 06Sep2000                  

 ----------------------------------------------------------------------------- 
|                                                                             |
|           W    W    AA    RRRRR   N    N  II  N    N   GGGG   !!!           |
|           W    W   A  A   R    R  NN   N  II  NN   N  G    G  !!!           |
|           W    W  A    A  R    R  N N  N  II  N N  N  G       !!!           |
|           W WW W  AAAAAA  RRRRR   N  N N  II  N  N N  G  GGG   !            |
|           WW  WW  A    A  R   R   N   NN  II  N   NN  G    G                |
|           W    W  A    A  R    R  N    N  II  N    N   GGGG   !!!           |
|                                                                             |
|      You have enabled k-point parallelism (KPAR>1).                         |
|      This developmental code was originally  written by Paul Kent at ORNL,  |
|      and carefully double checked in Vienna.                                |
|      GW as well as linear response parallelism added by Martijn Marsman     |
|      and Georg Kresse.                                                      |
|      Carefully verify results versus KPAR=1.                                |
|      Report problems to Paul Kent and Vienna.                               |
|                                                                             |
 ----------------------------------------------------------------------------- 

 POTCAR:    PAW_PBE Al 04Jan2001                  
   VRHFIN =Al: s2p1                                                             
   LEXCH  = PE                                                                  
   EATOM  =    53.5387 eV,    3.9350 Ry                                         
                                                                                
   TITEL  = PAW_PBE Al 04Jan2001                                                
   LULTRA =        F    use ultrasoft PP ?                                      
   IUNSCR =        1    unscreen: 0-lin 1-nonlin 2-no                           
   RPACOR =    1.500    partial core radius                                     
   POMASS =   26.981; ZVAL   =    3.000    mass and valenz                      
   RCORE  =    1.900    outmost cutoff radius                                   
   RWIGS  =    2.650; RWIGS  =    1.402    wigner-seitz radius (au A)           
   ENMAX  =  240.300; ENMIN  =  180.225 eV                                      
   ICORE  =        2    local potential                                         
   LCOR   =        T    correct aug charges                                     
   LPAW   =        T    paw PP                                                  
   EAUG   =  291.052                                                            
   DEXC   =    0.000                                                            
   RMAX   =    1.939    core radius for proj-oper                               
   RAUG   =    1.300    factor for augmentation sphere                          
   RDEP   =    1.966    radius for radial grids                                 
   RDEPT  =    1.856    core radius for aug-charge                              
                                                                                
   Atomic configuration                                                         
    6 entries                                                                   
     n  l   j            E        occ.                                          
     1  0  0.50     -1511.1048   2.0000                                         
     2  0  0.50      -108.1629   2.0000                                         
     2  1  1.50       -69.6402   6.0000                                         
     3  0  0.50        -7.7528   2.0000                                         
     3  1  1.50        -2.7121   1.0000                                         
     3  2  2.50        -2.7212   0.0000                                         
   Description                                                                  
     l       E           TYP  RCUT    TYP  RCUT                                 
     0     -7.7528455     23  1.900                                             
     0     -3.3096929     23  1.900                                             
     1     -2.7120682     23  1.900                                             
     1     13.6058260     23  1.900                                             
     2     -2.7211652      7  1.900                                             
  local pseudopotential read in
  partial core-charges read in
  partial kinetic energy density read in
  atomic valenz-charges read in
  non local Contribution for L=           0  read in
    real space projection operators read in
  non local Contribution for L=           0  read in
    real space projection operators read in
  non local Contribution for L=           1  read in
    real space projection operators read in
  non local Contribution for L=           1  read in
    real space projection operators read in
    PAW grid and wavefunctions read in
 
   number of l-projection  operators is LMAX  =           4
   number of lm-projection operators is LMMAX =           8
 
 POTCAR:    PAW_PBE Mn 06Sep2000                  
   VRHFIN =Mn: d6 s1                                                            
   LEXCH  = PE                                                                  
   EATOM  =   416.7541 eV,   30.6306 Ry                                         
                                                                                
   TITEL  = PAW_PBE Mn 06Sep2000                                                
   LULTRA =        F    use ultrasoft PP ?                                      
   IUNSCR =        1    unscreen: 0-lin 1-nonlin 2-no                           
   RPACOR =    2.000    partial core radius                                     
   POMASS =   54.938; ZVAL   =    7.000    mass and valenz                      
   RCORE  =    2.300    outmost cutoff radius                                   
   RWIGS  =    2.500; RWIGS  =    1.323    wigner-seitz radius (au A)           
   ENMAX  =  269.864; ENMIN  =  202.398 eV                                      
   RCLOC  =    1.725    cutoff for local pot                                    
   LCOR   =        T    correct aug charges                                     
   LPAW   =        T    paw PP                                                  
   EAUG   =  500.711                                                            
   DEXC   =    0.000                                                            
   RMAX   =    2.343    core radius for proj-oper                               
   RAUG   =    1.300    factor for augmentation sphere                          
   RDEP   =    2.338    radius for radial grids                                 
   RDEPT  =    1.911    core radius for aug-charge                              
                                                                                
   Atomic configuration                                                         
    9 entries                                                                   
     n  l   j            E        occ.                                          
     1  0  0.50     -6424.8288   2.0000                                         
     2  0  0.50      -739.1154   2.0000                                         
     2  1  1.50      -625.3949   6.0000                                         
     3  0  0.50       -81.6100   2.0000                                         
     3  1  1.50       -50.4667   6.0000                                         
     3  2  2.50        -3.3745   6.0000                                         
     4  0  0.50        -4.1331   1.0000                                         
     4  1  0.50        -4.0817   0.0000                                         
     4  3  2.50        -1.3606   0.0000                                         
   Description                                                                  
     l       E           TYP  RCUT    TYP  RCUT                                 
     2     -3.3744664     23  2.300                                             
     2     -4.7350490     23  2.300                                             
     0     -4.1331408     23  2.300                                             
     0      7.6656614     23  2.300                                             
     1     -2.7211652     23  2.300                                             
     1     20.4087390     23  2.300                                             
  local pseudopotential read in
  partial core-charges read in
  partial kinetic energy density read in
  atomic valenz-charges read in
  non local Contribution for L=           2  read in
    real space projection operators read in
  non local Contribution for L=           2  read in
    real space projection operators read in
  non local Contribution for L=           0  read in
    real space projection operators read in
  non local Contribution for L=           0  read in
    real space projection operators read in
  non local Contribution for L=           1  read in
    real space projection operators read in
  non local Contribution for L=           1  read in
    real space projection operators read in
    PAW grid and wavefunctions read in
 
   number of l-projection  operators is LMAX  =           6
   number of lm-projection operators is LMMAX =          18
 

 ----------------------------------------------------------------------------- 
|                                                                             |
|  ADVICE TO THIS USER RUNNING 'VASP/VAMP'   (HEAR YOUR MASTER'S VOICE ...):  |
|                                                                             |
|      You have a (more or less) 'large supercell' and for larger cells       |
|      it might be more efficient to use real space projection opertators     |
|      So try LREAL= Auto  in the INCAR   file.                               |
|      Mind:          For very  accurate calculation you might also keep the  |
|      reciprocal projection scheme          (i.e. LREAL=.FALSE.)             |
|                                                                             |
 ----------------------------------------------------------------------------- 

  PAW_PBE Al 04Jan2001                  :
 energy of atom  1       EATOM=  -53.5387
 kinetic energy error for atom=    0.0005 (will be added to EATOM!!)
  PAW_PBE Mn 06Sep2000                  :
 energy of atom  2       EATOM= -416.7541
 kinetic energy error for atom=    0.0080 (will be added to EATOM!!)
 
 
 POSCAR: NewRef: 27, @ ['Mn', array([1.37502469, 
  positions in cartesian coordinates
  velocities in cartesian coordinates
  No initial velocities read in
 exchange correlation table for  LEXCH =        8
   RHO(1)=    0.500       N(1)  =     2000
   RHO(2)=  100.500       N(2)  =     4000
 


--------------------------------------------------------------------------------------------------------


 ion  position               nearest neighbor table
   1  0.000  0.000  0.000-  28 2.61  30 2.61  34 2.61  36 2.61  46 2.61  48 2.61  52 2.61  54 2.61
                             4 2.75  10 2.75   7 2.75  19 2.75
   2  0.000  0.000  0.333-  28 2.61  34 2.61  46 2.61  52 2.61  29 2.61  47 2.61  35 2.61  53 2.61
                             5 2.75  11 2.75   8 2.75  20 2.75
   3  0.000  0.000  0.667-  29 2.61  35 2.61  47 2.61  53 2.61  30 2.61  48 2.61  36 2.61  54 2.61
                             6 2.75  12 2.75   9 2.75  21 2.75
   4  0.000  0.333  0.000-  28 2.61  30 2.61  46 2.61  48 2.61  31 2.61  33 2.61  49 2.61  51 2.61
                            13 2.75   1 2.75   7 2.75  22 2.75
   5  0.000  0.333  0.333-  28 2.61  46 2.61  31 2.61  49 2.61  47 2.61  29 2.61  32 2.61  50 2.61
                            14 2.75   2 2.75   8 2.75  23 2.75
   6  0.000  0.333  0.667-  29 2.61  47 2.61  32 2.61  50 2.61  48 2.61  30 2.61  33 2.61  51 2.61
                            15 2.75   3 2.75   9 2.75  24 2.75
   7  0.000  0.667  0.000-  31 2.61  33 2.61  49 2.61  51 2.61  34 2.61  36 2.61  52 2.61  54 2.61
                             4 2.75  16 2.75   1 2.75  25 2.75
   8  0.000  0.667  0.333-  31 2.61  49 2.61  34 2.61  52 2.61  50 2.61  32 2.61  35 2.61  53 2.61
                             5 2.75  17 2.75   2 2.75  26 2.75
   9  0.000  0.667  0.667-  32 2.61  50 2.61  35 2.61  53 2.61  51 2.61  33 2.61  36 2.61  54 2.61
                             6 2.75  18 2.75   3 2.75  27 2.75
  10  0.333  0.000  0.000-  28 2.61  30 2.61  34 2.61  36 2.61  37 2.61  39 2.61  43 2.61  45 2.61
                            19 2.75   1 2.75  13 2.75  16 2.75
  11  0.333  0.000  0.333-  28 2.61  34 2.61  37 2.61  43 2.61  29 2.61  35 2.61  38 2.61  44 2.61
                            20 2.75   2 2.75  14 2.75  17 2.75
  12  0.333  0.000  0.667-  29 2.61  35 2.61  38 2.61  44 2.61  30 2.61  36 2.61  39 2.61  45 2.61
                            21 2.75   3 2.75  15 2.75  18 2.75
  13  0.333  0.333  0.000-  28 2.61  30 2.61  31 2.61  33 2.61  37 2.61  39 2.61  40 2.61  42 2.61
                             4 2.75  10 2.75  16 2.75  22 2.75
  14  0.333  0.333  0.333-  28 2.61  31 2.61  37 2.61  29 2.61  40 2.61  38 2.61  32 2.61  41 2.61
                             5 2.75  11 2.75  17 2.75  23 2.75
  15  0.333  0.333  0.667-  29 2.61  32 2.61  38 2.61  30 2.61  41 2.61  39 2.61  33 2.61  42 2.61
                             6 2.75  12 2.75  18 2.75  24 2.75
  16  0.333  0.667  0.000-  31 2.61  33 2.61  34 2.61  36 2.61  40 2.61  42 2.61  43 2.61  45 2.61
                            25 2.75   7 2.75  13 2.75  10 2.75
  17  0.333  0.667  0.333-  31 2.61  34 2.61  40 2.61  32 2.61  43 2.61  41 2.61  35 2.61  44 2.61
                            26 2.75   8 2.75  14 2.75  11 2.75
  18  0.333  0.667  0.667-  32 2.61  35 2.61  41 2.61  33 2.61  44 2.61  42 2.61  36 2.61  45 2.61
                            27 2.75   9 2.75  15 2.75  12 2.75
  19  0.667  0.000  0.000-  37 2.61  39 2.61  43 2.61  45 2.61  46 2.61  48 2.61  52 2.61  54 2.61
                            10 2.75  22 2.75   1 2.75  25 2.75
  20  0.667  0.000  0.333-  37 2.61  43 2.61  46 2.61  52 2.61  38 2.61  44 2.61  47 2.61  53 2.61
                            11 2.75  23 2.75   2 2.75  26 2.75
  21  0.667  0.000  0.667-  38 2.61  44 2.61  47 2.61  53 2.61  39 2.61  45 2.61  48 2.61  54 2.61
                            12 2.75  24 2.75   3 2.75  27 2.75
  22  0.667  0.333  0.000-  37 2.61  39 2.61  40 2.61  42 2.61  46 2.61  48 2.61  49 2.61  51 2.61
                            25 2.75  13 2.75  19 2.75   4 2.75
  23  0.667  0.333  0.333-  37 2.61  40 2.61  46 2.61  38 2.61  49 2.61  47 2.61  41 2.61  50 2.61
                            26 2.75  14 2.75  20 2.75   5 2.75
  24  0.667  0.333  0.667-  38 2.61  41 2.61  47 2.61  39 2.61  50 2.61  48 2.61  42 2.61  51 2.61
                            27 2.75  15 2.75  21 2.75   6 2.75
  25  0.667  0.667  0.000-  40 2.61  42 2.61  43 2.61  45 2.61  49 2.61  51 2.61  52 2.61  54 2.61
                            16 2.75  22 2.75  19 2.75   7 2.75
  26  0.667  0.667  0.333-  40 2.61  43 2.61  49 2.61  41 2.61  52 2.61  50 2.61  44 2.61  53 2.61
                            17 2.75  23 2.75  20 2.75   8 2.75
  27  0.667  0.667  0.667-  41 2.61  44 2.61  50 2.61  42 2.61  53 2.61  51 2.61  45 2.61  54 2.61
                            18 2.75  24 2.75  21 2.75   9 2.75
  28  0.167  0.167  0.167-  14 2.61  11 2.61   5 2.61  13 2.61   2 2.61  10 2.61   4 2.61   1 2.61
                            31 2.75  37 2.75  34 2.75  46 2.75
  29  0.167  0.167  0.500-  15 2.61  12 2.61   6 2.61  14 2.61   3 2.61  11 2.61   5 2.61   2 2.61
                            32 2.75  38 2.75  35 2.75  47 2.75
  30  0.167  0.167  0.833-  13 2.61  15 2.61  10 2.61  12 2.61   4 2.61   6 2.61   1 2.61   3 2.61
                            33 2.75  39 2.75  36 2.75  48 2.75
  31  0.167  0.500  0.167-  17 2.61  14 2.61   8 2.61  16 2.61   5 2.61  13 2.61   7 2.61   4 2.61
                            28 2.75  34 2.75  40 2.75  49 2.75
  32  0.167  0.500  0.500-  18 2.61  15 2.61   9 2.61  17 2.61   6 2.61  14 2.61   8 2.61   5 2.61
                            29 2.75  35 2.75  41 2.75  50 2.75
  33  0.167  0.500  0.833-  16 2.61  18 2.61  13 2.61  15 2.61   7 2.61   9 2.61   4 2.61   6 2.61
                            30 2.75  36 2.75  42 2.75  51 2.75
  34  0.167  0.833  0.167-  11 2.61  17 2.61   2 2.61   8 2.61  16 2.61  10 2.61   7 2.61   1 2.61
                            31 2.75  43 2.75  28 2.75  52 2.75
  35  0.167  0.833  0.500-  12 2.61  18 2.61   3 2.61   9 2.61  17 2.61  11 2.61   8 2.61   2 2.61
                            32 2.75  44 2.75  29 2.75  53 2.75
  36  0.167  0.833  0.833-  10 2.61  12 2.61  16 2.61  18 2.61   1 2.61   3 2.61   7 2.61   9 2.61
                            33 2.75  45 2.75  30 2.75  54 2.75
  37  0.500  0.167  0.167-  23 2.61  20 2.61  14 2.61  22 2.61  11 2.61  19 2.61  13 2.61  10 2.61
                            28 2.75  40 2.75  46 2.75  43 2.75
  38  0.500  0.167  0.500-  24 2.61  21 2.61  15 2.61  23 2.61  12 2.61  20 2.61  14 2.61  11 2.61
                            29 2.75  41 2.75  47 2.75  44 2.75
  39  0.500  0.167  0.833-  22 2.61  24 2.61  19 2.61  21 2.61  13 2.61  15 2.61  10 2.61  12 2.61
                            30 2.75  42 2.75  48 2.75  45 2.75
  40  0.500  0.500  0.167-  26 2.61  23 2.61  17 2.61  25 2.61  14 2.61  22 2.61  16 2.61  13 2.61
                            31 2.75  37 2.75  43 2.75  49 2.75
  41  0.500  0.500  0.500-  27 2.61  24 2.61  18 2.61  26 2.61  15 2.61  23 2.61  17 2.61  14 2.61
                            32 2.75  38 2.75  44 2.75  50 2.75
  42  0.500  0.500  0.833-  25 2.61  27 2.61  22 2.61  24 2.61  16 2.61  18 2.61  13 2.61  15 2.61
                            33 2.75  39 2.75  45 2.75  51 2.75
  43  0.500  0.833  0.167-  20 2.61  26 2.61  11 2.61  17 2.61  25 2.61  19 2.61  16 2.61  10 2.61
                            34 2.75  40 2.75  52 2.75  37 2.75
  44  0.500  0.833  0.500-  21 2.61  27 2.61  12 2.61  18 2.61  26 2.61  20 2.61  17 2.61  11 2.61
                            35 2.75  41 2.75  53 2.75  38 2.75
  45  0.500  0.833  0.833-  19 2.61  21 2.61  25 2.61  27 2.61  10 2.61  12 2.61  16 2.61  18 2.61
                            36 2.75  42 2.75  54 2.75  39 2.75
  46  0.833  0.167  0.167-   5 2.61  23 2.61  20 2.61   2 2.61  22 2.61   4 2.61  19 2.61   1 2.61
                            37 2.75  49 2.75  28 2.75  52 2.75
  47  0.833  0.167  0.500-   6 2.61  24 2.61  21 2.61   3 2.61  23 2.61   5 2.61  20 2.61   2 2.61
                            38 2.75  50 2.75  29 2.75  53 2.75
  48  0.833  0.167  0.833-   4 2.61   6 2.61  22 2.61  24 2.61  19 2.61  21 2.61   1 2.61   3 2.61
                            39 2.75  51 2.75  30 2.75  54 2.75
  49  0.833  0.500  0.167-   8 2.61  26 2.61  23 2.61   5 2.61  25 2.61   7 2.61  22 2.61   4 2.61
                            40 2.75  46 2.75  52 2.75  31 2.75
  50  0.833  0.500  0.500-   9 2.61  27 2.61  24 2.61   6 2.61  26 2.61   8 2.61  23 2.61   5 2.61
                            41 2.75  47 2.75  53 2.75  32 2.75
  51  0.833  0.500  0.833-   7 2.61   9 2.61  25 2.61  27 2.61  22 2.61  24 2.61   4 2.61   6 2.61
                            42 2.75  48 2.75  54 2.75  33 2.75
  52  0.833  0.833  0.167-   2 2.61   8 2.61  20 2.61  26 2.61  19 2.61   7 2.61  25 2.61   1 2.61
                            43 2.75  49 2.75  46 2.75  34 2.75
  53  0.833  0.833  0.500-   3 2.61   9 2.61  21 2.61  27 2.61  20 2.61   8 2.61  26 2.61   2 2.61
                            44 2.75  50 2.75  47 2.75  35 2.75
  54  0.833  0.833  0.833-   1 2.61   3 2.61   7 2.61   9 2.61  19 2.61  21 2.61  25 2.61  27 2.61
                            45 2.75  51 2.75  48 2.75  36 2.75
 
  LATTYP: Found a simple tetragonal cell.
 ALAT       =     8.2501481662
 C/A-ratio  =     1.2642089792
  
  Lattice vectors:
  
 A1 = (   8.2501481662,   0.0000000000,   0.0000000000)
 A2 = (   0.0000000000,   8.2501481662,   0.0000000000)
 A3 = (   0.0000000000,   0.0000000000,  10.4299113916)


Analysis of symmetry for initial positions (statically):
=====================================================================
 Subroutine PRICEL returns following result:
 
  LATTYP: Found a simple tetragonal cell.
 ALAT       =     2.7500493888
 C/A-ratio  =     1.2642089792
  
  Lattice vectors:
  
 A1 = (   2.7500493888,   0.0000000000,   0.0000000000)
 A2 = (   0.0000000000,   2.7500493888,   0.0000000000)
 A3 = (   0.0000000000,   0.0000000000,   3.4766371306)
 
  27 primitive cells build up your supercell.
 

 Routine SETGRP: Setting up the symmetry group for a 
 simple tetragonal supercell.


 Subroutine GETGRP returns: Found 16 space group operations
 (whereof 16 operations were pure point group operations)
 out of a pool of 16 trial point group operations.


The static configuration has the point symmetry D_4h.


Analysis of symmetry for dynamics (positions and initial velocities):
=====================================================================
 Subroutine PRICEL returns following result:
 
  LATTYP: Found a simple tetragonal cell.
 ALAT       =     2.7500493888
 C/A-ratio  =     1.2642089792
  
  Lattice vectors:
  
 A1 = (   2.7500493888,   0.0000000000,   0.0000000000)
 A2 = (   0.0000000000,   2.7500493888,   0.0000000000)
 A3 = (   0.0000000000,   0.0000000000,   3.4766371306)
 
  27 primitive cells build up your supercell.
 

 Routine SETGRP: Setting up the symmetry group for a 
 simple tetragonal supercell.


 Subroutine GETGRP returns: Found 16 space group operations
 (whereof 16 operations were pure point group operations)
 out of a pool of 16 trial point group operations.


The dynamic configuration has the point symmetry D_4h.


Analysis of structural, dynamic, and magnetic symmetry:
=====================================================================
 Subroutine PRICEL returns:
 Original cell was already a primitive cell.
 

 Routine SETGRP: Setting up the symmetry group for a 
 simple tetragonal supercell.


 Subroutine GETGRP returns: Found  4 space group operations
 (whereof  2 operations were pure point group operations)
 out of a pool of 16 trial point group operations.


The magnetic configuration has the point symmetry C_1h.
 The point group associated with its full space group is C_2v.


 Subroutine INISYM returns: Found  4 space group operations
 (whereof  2 operations are pure point group operations),
 and found     1 'primitive' translations

 
 
 KPOINTS: automatic KPOINTS                       

Automatic generation of k-mesh.
 generate k-points for:    5    5    4
Space group operators:
 irot       det(A)        alpha          n_x          n_y          n_z        tau_x        tau_y        tau_z
    1     1.000000     0.000001     1.000000     0.000000     0.000000     0.000000     0.000000     0.000000
    2    -1.000000   180.000000     0.000000     1.000000     0.000000     0.000000     0.000000     0.000000
    3     1.000000   180.000000     0.000000     0.000000     1.000000     0.333333     0.000000     0.000000
    4    -1.000000   180.000000     1.000000     0.000000     0.000000     0.333333     0.000000     0.000000
 
 Subroutine IBZKPT returns following result:
 ===========================================
 
 Found     27 irreducible k-points:
 
 Following reciprocal coordinates:
            Coordinates               Weight
  0.000000  0.000000  0.000000      1.000000
  0.200000  0.000000  0.000000      2.000000
  0.400000  0.000000  0.000000      2.000000
  0.000000  0.200000  0.000000      2.000000
  0.200000  0.200000  0.000000      4.000000
  0.400000  0.200000  0.000000      4.000000
  0.000000  0.400000  0.000000      2.000000
  0.200000  0.400000  0.000000      4.000000
  0.400000  0.400000  0.000000      4.000000
  0.000000  0.000000  0.250000      2.000000
  0.200000  0.000000  0.250000      4.000000
  0.400000  0.000000  0.250000      4.000000
  0.000000  0.200000  0.250000      4.000000
  0.200000  0.200000  0.250000      8.000000
  0.400000  0.200000  0.250000      8.000000
  0.000000  0.400000  0.250000      4.000000
  0.200000  0.400000  0.250000      8.000000
  0.400000  0.400000  0.250000      8.000000
  0.000000  0.000000  0.500000      1.000000
  0.200000  0.000000  0.500000      2.000000
  0.400000  0.000000  0.500000      2.000000
  0.000000  0.200000  0.500000      2.000000
  0.200000  0.200000  0.500000      4.000000
  0.400000  0.200000  0.500000      4.000000
  0.000000  0.400000  0.500000      2.000000
  0.200000  0.400000  0.500000      4.000000
  0.400000  0.400000  0.500000      4.000000
 
 Following cartesian coordinates:
            Coordinates               Weight
  0.000000  0.000000  0.000000      1.000000
  0.024242  0.000000  0.000000      2.000000
  0.048484  0.000000  0.000000      2.000000
  0.000000  0.024242  0.000000      2.000000
  0.024242  0.024242  0.000000      4.000000
  0.048484  0.024242  0.000000      4.000000
  0.000000  0.048484  0.000000      2.000000
  0.024242  0.048484  0.000000      4.000000
  0.048484  0.048484  0.000000      4.000000
  0.000000  0.000000  0.023970      2.000000
  0.024242  0.000000  0.023970      4.000000
  0.048484  0.000000  0.023970      4.000000
  0.000000  0.024242  0.023970      4.000000
  0.024242  0.024242  0.023970      8.000000
  0.048484  0.024242  0.023970      8.000000
  0.000000  0.048484  0.023970      4.000000
  0.024242  0.048484  0.023970      8.000000
  0.048484  0.048484  0.023970      8.000000
  0.000000  0.000000  0.047939      1.000000
  0.024242  0.000000  0.047939      2.000000
  0.048484  0.000000  0.047939      2.000000
  0.000000  0.024242  0.047939      2.000000
  0.024242  0.024242  0.047939      4.000000
  0.048484  0.024242  0.047939      4.000000
  0.000000  0.048484  0.047939      2.000000
  0.024242  0.048484  0.047939      4.000000
  0.048484  0.048484  0.047939      4.000000
 


--------------------------------------------------------------------------------------------------------




 Dimension of arrays:
   k-points           NKPTS =     27   k-points in BZ     NKDIM =     27   number of bands    NBANDS=    156
   number of dos      NEDOS =    301   number of ions     NIONS =     54
   non local maximal  LDIM  =      6   non local SUM 2l+1 LMDIM =     18
   total plane-waves  NPLWV = 204120
   max r-space proj   IRMAX =      1   max aug-charges    IRDMAX=  89713
   dimension x,y,z NGX =    54 NGY =   54 NGZ =   70
   dimension x,y,z NGXF=   108 NGYF=  108 NGZF=  140
   support grid    NGXF=   216 NGYF=  216 NGZF=  280
   ions per type =              27  27
   NGX,Y,Z   is equivalent  to a cutoff of  10.88, 10.88, 11.16 a.u.
   NGXF,Y,Z  is equivalent  to a cutoff of  21.76, 21.76, 22.32 a.u.

 SYSTEM =  AlMn_pv                                 
 POSCAR =  NewRef: 27, @ ['Mn', array([1.37502469, 

 Startparameter for this run:
   NWRITE =      2    write-flag & timer
   PREC   = accura    normal or accurate (medium, high low for compatibility)
   ISTART =      0    job   : 0-new  1-cont  2-samecut
   ICHARG =      2    charge: 1-file 2-atom 10-const
   ISPIN  =      2    spin polarized calculation?
   LNONCOLLINEAR =      F non collinear calculations
   LSORBIT =      F    spin-orbit coupling
   INIWAV =      1    electr: 0-lowe 1-rand  2-diag
   LASPH  =      F    aspherical Exc in radial PAW
   METAGGA=      F    non-selfconsistent MetaGGA calc.

 Electronic Relaxation 1
   ENCUT  =  404.8 eV  29.75 Ry    5.45 a.u.  13.53 13.53 17.11*2*pi/ulx,y,z
   ENINI  =  404.8     initial cutoff
   ENAUG  =  500.7 eV  augmentation charge cutoff
   NELM   =    100;   NELMIN=  4; NELMDL= -8     # of ELM steps 
   EDIFF  = 0.1E-06   stopping-criterion for ELM
   LREAL  =      F    real-space projection
   NLSPLINE    = F    spline interpolate recip. space projectors
   LCOMPAT=      F    compatible to vasp.4.4
   GGA_COMPAT  = T    GGA compatible to vasp.4.4-vasp.4.6
   LMAXPAW     = -100 max onsite density
   LMAXMIX     =    2 max onsite mixed and CHGCAR
   VOSKOWN=      0    Vosko Wilk Nusair interpolation
   ROPT   =    0.00000   0.00000
 Ionic relaxation
   EDIFFG = 0.1E-05   stopping-criterion for IOM
   NSW    =      0    number of steps for IOM
   NBLOCK =      1;   KBLOCK =      1    inner block; outer block 
   IBRION =     -1    ionic relax: 0-MD 1-quasi-New 2-CG
   NFREE  =      0    steps in history (QN), initial steepest desc. (CG)
   ISIF   =      2    stress and relaxation
   IWAVPR =     10    prediction:  0-non 1-charg 2-wave 3-comb
   ISYM   =      2    0-nonsym 1-usesym 2-fastsym
   LCORR  =      T    Harris-Foulkes like correction to forces

   POTIM  = 0.2000    time-step for ionic-motion
   TEIN   =    0.0    initial temperature
   TEBEG  =    0.0;   TEEND  =   0.0 temperature during run
   SMASS  =  -3.00    Nose mass-parameter (am)
   estimated Nose-frequenzy (Omega)   =  0.10E-29 period in steps =****** mass=  -0.156E-26a.u.
   SCALEE = 1.0000    scale energy and forces
   NPACO  =    256;   APACO  = 16.0  distance and # of slots for P.C.
   PSTRESS=    0.0 pullay stress

  Mass of Ions in am
   POMASS =  26.98 54.94
  Ionic Valenz
   ZVAL   =   3.00  7.00
  Atomic Wigner-Seitz radii
   RWIGS  =  -1.00 -1.00
  virtual crystal weights 
   VCA    =   1.00  1.00
   NELECT =     270.0000    total number of electrons
   NUPDOWN=      -1.0000    fix difference up-down

 DOS related values:
   EMIN   =  10.00;   EMAX   =-10.00  energy-range for DOS
   EFERMI =   0.00
   ISMEAR =     1;   SIGMA  =   0.20  broadening in eV -4-tet -1-fermi 0-gaus

 Electronic relaxation 2 (details)
   IALGO  =     58    algorithm
   LDIAG  =      T    sub-space diagonalisation (order eigenvalues)
   LSUBROT=      F    optimize rotation matrix (better conditioning)
   TURBO    =      0    0=normal 1=particle mesh
   IRESTART =      0    0=no restart 2=restart with 2 vectors
   NREBOOT  =      0    no. of reboots
   NMIN     =      0    reboot dimension
   EREF     =   0.00    reference energy to select bands
   IMIX   =      4    mixing-type and parameters
     AMIX     =   0.40;   BMIX     =  1.00
     AMIX_MAG =   1.60;   BMIX_MAG =  1.00
     AMIN     =   0.10
     WC   =   100.;   INIMIX=   1;  MIXPRE=   1;  MAXMIX= -45

 Intra band minimization:
   WEIMIN = 0.0000     energy-eigenvalue tresh-hold
   EBREAK =  0.16E-09  absolut break condition
   DEPER  =   0.30     relativ break condition  

   TIME   =   0.40     timestep for ELM

  volume/ion in A,a.u.               =      13.15        88.72
  Fermi-wavevector in a.u.,A,eV,Ry     =   1.186118  2.241439 19.141722  1.406877
  Thomas-Fermi vector in A             =   2.322298
 
 Write flags
   LWAVE        =      F    write WAVECAR
   LDOWNSAMPLE  =      F    k-point downsampling of WAVECAR
   LCHARG       =      F    write CHGCAR
   LVTOT        =      F    write LOCPOT, total local potential
   LVHAR        =      F    write LOCPOT, Hartree potential only
   LELF         =      F    write electronic localiz. function (ELF)
   LORBIT       =     10    0 simple, 1 ext, 2 COOP (PROOUT), +10 PAW based schemes


 Dipole corrections
   LMONO  =      F    monopole corrections only (constant potential shift)
   LDIPOL =      F    correct potential (dipole corrections)
   IDIPOL =      0    1-x, 2-y, 3-z, 4-all directions 
   EPSILON=  1.0000000 bulk dielectric constant

 Exchange correlation treatment:
   GGA     =    --    GGA type
   LEXCH   =     8    internal setting for exchange type
   VOSKOWN=      0    Vosko Wilk Nusair interpolation
   LHFCALC =     F    Hartree Fock is set to
   LHFONE  =     F    Hartree Fock one center treatment
   AEXX    =    0.0000 exact exchange contribution

 Linear response parameters
   LEPSILON=     F    determine dielectric tensor
   LRPA    =     F    only Hartree local field effects (RPA)
   LNABLA  =     F    use nabla operator in PAW spheres
   LVEL    =     F    velocity operator in full k-point grid
   LINTERFAST=   F  fast interpolation
   KINTER  =     0    interpolate to denser k-point grid
   CSHIFT  =0.1000    complex shift for real part using Kramers Kronig
   OMEGAMAX=  -1.0    maximum frequency
   DEG_THRESHOLD= 0.2000000E-02 threshold for treating states as degnerate
   RTIME   =   -0.100 relaxation time in fs
  (WPLASMAI=    0.000 imaginary part of plasma frequency in eV, 0.658/RTIME)
   DFIELD  = 0.0000000 0.0000000 0.0000000 field for delta impulse in time
 
 Orbital magnetization related:
   ORBITALMAG=     F  switch on orbital magnetization
   LCHIMAG   =     F  perturbation theory with respect to B field
   DQ        =  0.001000  dq finite difference perturbation B field
   LLRAUG    =     F  two centre corrections for induced B field



--------------------------------------------------------------------------------------------------------


 Static calculation
 charge density and potential will be updated during run
 spin polarized calculation
 Conjugate gradient for all bands (Freysoldt, et al. PRB 79, 241103 (2009))
 preconditioned conjugated gradient                                        
 perform sub-space diagonalisation
    before iterative eigenvector-optimisation
 modified Broyden-mixing scheme, WC =      100.0
 initial mixing is a Kerker type mixing with AMIX =  0.4000 and BMIX =      1.0000
 Hartree-type preconditioning will be used
 using additional bands           21
 reciprocal scheme for non local part
 use partial core corrections
 no Harris-corrections to forces 
 use gradient corrections 
 use of overlap-Matrix (Vanderbilt PP)
 Methfessel and Paxton  Order N= 1 SIGMA  =   0.20


--------------------------------------------------------------------------------------------------------


  energy-cutoff  :      404.80
  volume of cell :      709.91
      direct lattice vectors                 reciprocal lattice vectors
     8.250148166  0.000000000  0.000000000     0.121209944  0.000000000  0.000000000
     0.000000000  8.250148166  0.000000000     0.000000000  0.121209944  0.000000000
     0.000000000  0.000000000 10.429911392     0.000000000  0.000000000  0.095878092

  length of vectors
     8.250148166  8.250148166 10.429911392     0.121209944  0.121209944  0.095878092


 
 k-points in units of 2pi/SCALE and weight: automatic KPOINTS                       
   0.00000000  0.00000000  0.00000000       0.010
   0.02424199  0.00000000  0.00000000       0.020
   0.04848398  0.00000000  0.00000000       0.020
   0.00000000  0.02424199  0.00000000       0.020
   0.02424199  0.02424199  0.00000000       0.040
   0.04848398  0.02424199  0.00000000       0.040
   0.00000000  0.04848398  0.00000000       0.020
   0.02424199  0.04848398  0.00000000       0.040
   0.04848398  0.04848398  0.00000000       0.040
   0.00000000  0.00000000  0.02396952       0.020
   0.02424199  0.00000000  0.02396952       0.040
   0.04848398  0.00000000  0.02396952       0.040
   0.00000000  0.02424199  0.02396952       0.040
   0.02424199  0.02424199  0.02396952       0.080
   0.04848398  0.02424199  0.02396952       0.080
   0.00000000  0.04848398  0.02396952       0.040
   0.02424199  0.04848398  0.02396952       0.080
   0.04848398  0.04848398  0.02396952       0.080
   0.00000000  0.00000000  0.04793905       0.010
   0.02424199  0.00000000  0.04793905       0.020
   0.04848398  0.00000000  0.04793905       0.020
   0.00000000  0.02424199  0.04793905       0.020
   0.02424199  0.02424199  0.04793905       0.040
   0.04848398  0.02424199  0.04793905       0.040
   0.00000000  0.04848398  0.04793905       0.020
   0.02424199  0.04848398  0.04793905       0.040
   0.04848398  0.04848398  0.04793905       0.040
 
 k-points in reciprocal lattice and weights: automatic KPOINTS                       
   0.00000000  0.00000000  0.00000000       0.010
   0.20000000  0.00000000  0.00000000       0.020
   0.40000000  0.00000000  0.00000000       0.020
   0.00000000  0.20000000  0.00000000       0.020
   0.20000000  0.20000000  0.00000000       0.040
   0.40000000  0.20000000  0.00000000       0.040
   0.00000000  0.40000000  0.00000000       0.020
   0.20000000  0.40000000  0.00000000       0.040
   0.40000000  0.40000000  0.00000000       0.040
   0.00000000  0.00000000  0.25000000       0.020
   0.20000000  0.00000000  0.25000000       0.040
   0.40000000  0.00000000  0.25000000       0.040
   0.00000000  0.20000000  0.25000000       0.040
   0.20000000  0.20000000  0.25000000       0.080
   0.40000000  0.20000000  0.25000000       0.080
   0.00000000  0.40000000  0.25000000       0.040
   0.20000000  0.40000000  0.25000000       0.080
   0.40000000  0.40000000  0.25000000       0.080
   0.00000000  0.00000000  0.50000000       0.010
   0.20000000  0.00000000  0.50000000       0.020
   0.40000000  0.00000000  0.50000000       0.020
   0.00000000  0.20000000  0.50000000       0.020
   0.20000000  0.20000000  0.50000000       0.040
   0.40000000  0.20000000  0.50000000       0.040
   0.00000000  0.40000000  0.50000000       0.020
   0.20000000  0.40000000  0.50000000       0.040
   0.40000000  0.40000000  0.50000000       0.040
 
 position of ions in fractional coordinates (direct lattice) 
   0.00000000  0.00000000  0.00000000
   0.00000000  0.00000000  0.33333333
   0.00000000  0.00000000  0.66666667
   0.00000000  0.33333333  0.00000000
   0.00000000  0.33333333  0.33333333
   0.00000000  0.33333333  0.66666667
   0.00000000  0.66666667  0.00000000
   0.00000000  0.66666667  0.33333333
   0.00000000  0.66666667  0.66666667
   0.33333333  0.00000000  0.00000000
   0.33333333  0.00000000  0.33333333
   0.33333333  0.00000000  0.66666667
   0.33333333  0.33333333  0.00000000
   0.33333333  0.33333333  0.33333333
   0.33333333  0.33333333  0.66666667
   0.33333333  0.66666667  0.00000000
   0.33333333  0.66666667  0.33333333
   0.33333333  0.66666667  0.66666667
   0.66666667  0.00000000  0.00000000
   0.66666667  0.00000000  0.33333333
   0.66666667  0.00000000  0.66666667
   0.66666667  0.33333333  0.00000000
   0.66666667  0.33333333  0.33333333
   0.66666667  0.33333333  0.66666667
   0.66666667  0.66666667  0.00000000
   0.66666667  0.66666667  0.33333333
   0.66666667  0.66666667  0.66666667
   0.16666667  0.16666667  0.16666667
   0.16666667  0.16666667  0.50000000
   0.16666667  0.16666667  0.83333333
   0.16666667  0.50000000  0.16666667
   0.16666667  0.50000000  0.50000000
   0.16666667  0.50000000  0.83333333
   0.16666667  0.83333333  0.16666667
   0.16666667  0.83333333  0.50000000
   0.16666667  0.83333333  0.83333333
   0.50000000  0.16666667  0.16666667
   0.50000000  0.16666667  0.50000000
   0.50000000  0.16666667  0.83333333
   0.50000000  0.50000000  0.16666667
   0.50000000  0.50000000  0.50000000
   0.50000000  0.50000000  0.83333333
   0.50000000  0.83333333  0.16666667
   0.50000000  0.83333333  0.50000000
   0.50000000  0.83333333  0.83333333
   0.83333333  0.16666667  0.16666667
   0.83333333  0.16666667  0.50000000
   0.83333333  0.16666667  0.83333333
   0.83333333  0.50000000  0.16666667
   0.83333333  0.50000000  0.50000000
   0.83333333  0.50000000  0.83333333
   0.83333333  0.83333333  0.16666667
   0.83333333  0.83333333  0.50000000
   0.83333333  0.83333333  0.83333333
 
 position of ions in cartesian coordinates  (Angst):
   0.00000000  0.00000000  0.00000000
   0.00000000  0.00000000  3.47663713
   0.00000000  0.00000000  6.95327426
   0.00000000  2.75004939  0.00000000
   0.00000000  2.75004939  3.47663713
   0.00000000  2.75004939  6.95327426
   0.00000000  5.50009878  0.00000000
   0.00000000  5.50009878  3.47663713
   0.00000000  5.50009878  6.95327426
   2.75004939  0.00000000  0.00000000
   2.75004939  0.00000000  3.47663713
   2.75004939  0.00000000  6.95327426
   2.75004939  2.75004939  0.00000000
   2.75004939  2.75004939  3.47663713
   2.75004939  2.75004939  6.95327426
   2.75004939  5.50009878  0.00000000
   2.75004939  5.50009878  3.47663713
   2.75004939  5.50009878  6.95327426
   5.50009878  0.00000000  0.00000000
   5.50009878  0.00000000  3.47663713
   5.50009878  0.00000000  6.95327426
   5.50009878  2.75004939  0.00000000
   5.50009878  2.75004939  3.47663713
   5.50009878  2.75004939  6.95327426
   5.50009878  5.50009878  0.00000000
   5.50009878  5.50009878  3.47663713
   5.50009878  5.50009878  6.95327426
   1.37502469  1.37502469  1.73831857
   1.37502469  1.37502469  5.21495570
   1.37502469  1.37502469  8.69159283
   1.37502469  4.12507408  1.73831857
   1.37502469  4.12507408  5.21495570
   1.37502469  4.12507408  8.69159283
   1.37502469  6.87512347  1.73831857
   1.37502469  6.87512347  5.21495570
   1.37502469  6.87512347  8.69159283
   4.12507408  1.37502469  1.73831857
   4.12507408  1.37502469  5.21495570
   4.12507408  1.37502469  8.69159283
   4.12507408  4.12507408  1.73831857
   4.12507408  4.12507408  5.21495570
   4.12507408  4.12507408  8.69159283
   4.12507408  6.87512347  1.73831857
   4.12507408  6.87512347  5.21495570
   4.12507408  6.87512347  8.69159283
   6.87512347  1.37502469  1.73831857
   6.87512347  1.37502469  5.21495570
   6.87512347  1.37502469  8.69159283
   6.87512347  4.12507408  1.73831857
   6.87512347  4.12507408  5.21495570
   6.87512347  4.12507408  8.69159283
   6.87512347  6.87512347  1.73831857
   6.87512347  6.87512347  5.21495570
   6.87512347  6.87512347  8.69159283
 


--------------------------------------------------------------------------------------------------------


 k-point  1 :   0.0000 0.0000 0.0000  plane waves:   13099
 k-point  2 :   0.2000 0.0000 0.0000  plane waves:   13101
 k-point  3 :   0.4000 0.0000 0.0000  plane waves:   13111
 k-point  4 :   0.0000 0.2000 0.0000  plane waves:   13101
 k-point  5 :   0.2000 0.2000 0.0000  plane waves:   13137
 k-point  6 :   0.4000 0.2000 0.0000  plane waves:   13119
 k-point  7 :   0.0000 0.4000 0.0000  plane waves:   13111
 k-point  8 :   0.2000 0.4000 0.0000  plane waves:   13119
 k-point  9 :   0.4000 0.4000 0.0000  plane waves:   13129
 k-point 10 :   0.0000 0.0000 0.2500  plane waves:   13134
 k-point 11 :   0.2000 0.0000 0.2500  plane waves:   13149
 k-point 12 :   0.4000 0.0000 0.2500  plane waves:   13119
 k-point 13 :   0.0000 0.2000 0.2500  plane waves:   13149
 k-point 14 :   0.2000 0.2000 0.2500  plane waves:   13145
 k-point 15 :   0.4000 0.2000 0.2500  plane waves:   13134
 k-point 16 :   0.0000 0.4000 0.2500  plane waves:   13119
 k-point 17 :   0.2000 0.4000 0.2500  plane waves:   13134
 k-point 18 :   0.4000 0.4000 0.2500  plane waves:   13108
 k-point 19 :   0.0000 0.0000 0.5000  plane waves:   13186
 k-point 20 :   0.2000 0.0000 0.5000  plane waves:   13124
 k-point 21 :   0.4000 0.0000 0.5000  plane waves:   13152
 k-point 22 :   0.0000 0.2000 0.5000  plane waves:   13124
 k-point 23 :   0.2000 0.2000 0.5000  plane waves:   13136
 k-point 24 :   0.4000 0.2000 0.5000  plane waves:   13128
 k-point 25 :   0.0000 0.4000 0.5000  plane waves:   13152
 k-point 26 :   0.2000 0.4000 0.5000  plane waves:   13128
 k-point 27 :   0.4000 0.4000 0.5000  plane waves:   13112

 maximum and minimum number of plane-waves per node :      3304     3246

 maximum number of plane-waves:     13186
 maximum index in each direction: 
   IXMAX=   13   IYMAX=   13   IZMAX=   17
   IXMIN=  -13   IYMIN=  -13   IZMIN=  -17


 parallel 3D FFT for wavefunctions:
    minimum data exchange during FFTs selected (reduces bandwidth)
 parallel 3D FFT for charge:
    minimum data exchange during FFTs selected (reduces bandwidth)


 total amount of memory used by VASP MPI-rank0   815466. kBytes
=======================================================================

   base      :      30000. kBytes
   nonl-proj :      28494. kBytes
   fftplans  :      31580. kBytes
   grid      :      21385. kBytes
   one-center:        435. kBytes
   wavefun   :     703572. kBytes
 
     INWAV:  cpu time    0.0001: real time    0.0001
 Broyden mixing: mesh for mixing (old mesh)
   NGX = 27   NGY = 27   NGZ = 35
  (NGX  =108   NGY  =108   NGZ  =140)
  gives a total of  25515 points

 initial charge density was supplied:
 charge density of overlapping atoms calculated
 number of electron     270.0000000 magnetization     -15.0000000
 keeping initial charge density in first step


--------------------------------------------------------------------------------------------------------


 Maximum index for augmentation-charges        10967 (set IRDMAX)


--------------------------------------------------------------------------------------------------------


 First call to EWALD:  gamma=   0.199
 Maximum number of real-space cells 3x 3x 2
 Maximum number of reciprocal cells 3x 3x 3

    FEWALD:  cpu time    0.0084: real time    0.0084


--------------------------------------- Iteration      1(   1)  ---------------------------------------


    POTLOK:  cpu time    0.3960: real time    0.3966
    SETDIJ:  cpu time    0.4735: real time    0.4752
    TRIAL :  cpu time   26.8251: real time   27.1203
    CORREC:  cpu time    0.0047: real time    0.0048
    --------------------------------------------
      LOOP:  cpu time   27.9385: real time   28.2434

 eigenvalue-minimisations  : 16848
 total energy-change (2. order) : 0.2089149E+04  (-0.8615724E+04)
 number of electron     270.0000000 magnetization     -15.0000000
 augmentation part      270.0000000 magnetization     -15.0000000

 Free energy of the ion-electron system (eV)
  ---------------------------------------------------
  alpha Z        PSCENC =       798.38614055
  Ewald energy   TEWEN  =    -12901.57693327
  -Hartree energ DENC   =     -2855.60785864
  -exchange      EXHF   =         0.00000000
  -V(xc)+E(xc)   XCENC  =      -996.06378190
  PAW double counting   =     12741.82587617   -11476.22345381
  entropy T*S    EENTRO =         0.00041688
  eigenvalues    EBANDS =      4080.73470918
  atomic energy  EATOM  =     12697.67401269
  ---------------------------------------------------
  free energy    TOTEN  =      2089.14912784 eV

  energy without entropy =     2089.14871096  energy(sigma->0) =     2089.14898888


--------------------------------------------------------------------------------------------------------




--------------------------------------- Iteration      1(   2)  ---------------------------------------


    TRIAL :  cpu time   27.9728: real time   28.1779
    CORREC:  cpu time    0.0062: real time    0.0071
    --------------------------------------------
      LOOP:  cpu time   27.9838: real time   28.1902

 eigenvalue-minimisations  : 16848
 total energy-change (2. order) :-0.2125970E+04  (-0.2097717E+04)
 number of electron     270.0000000 magnetization     -15.0000000
 augmentation part      270.0000000 magnetization     -15.0000000

 Free energy of the ion-electron system (eV)
  ---------------------------------------------------
  alpha Z        PSCENC =       798.38614055
  Ewald energy   TEWEN  =    -12901.57693327
  -Hartree energ DENC   =     -2855.60785864
  -exchange      EXHF   =         0.00000000
  -V(xc)+E(xc)   XCENC  =      -996.06378190
  PAW double counting   =     12741.82587617   -11476.22345381
  entropy T*S    EENTRO =         0.00344161
  eigenvalues    EBANDS =      1954.76125624
  atomic energy  EATOM  =     12697.67401269
  ---------------------------------------------------
  free energy    TOTEN  =       -36.82130037 eV

  energy without entropy =      -36.82474199  energy(sigma->0) =      -36.82244758


--------------------------------------------------------------------------------------------------------




--------------------------------------- Iteration      1(   3)  ---------------------------------------


    TRIAL :  cpu time   37.4563: real time   37.7799
    CORREC:  cpu time    0.0073: real time    0.0081
    --------------------------------------------
      LOOP:  cpu time   37.4645: real time   37.7922

 eigenvalue-minimisations  : 25536
 total energy-change (2. order) :-0.3015966E+03  (-0.2788602E+03)
 number of electron     270.0000000 magnetization     -15.0000000
 augmentation part      270.0000000 magnetization     -15.0000000

 Free energy of the ion-electron system (eV)
  ---------------------------------------------------
  alpha Z        PSCENC =       798.38614055
  Ewald energy   TEWEN  =    -12901.57693327
  -Hartree energ DENC   =     -2855.60785864
  -exchange      EXHF   =         0.00000000
  -V(xc)+E(xc)   XCENC  =      -996.06378190
  PAW double counting   =     12741.82587617   -11476.22345381
  entropy T*S    EENTRO =        -0.00051083
  eigenvalues    EBANDS =      1653.16857811
  atomic energy  EATOM  =     12697.67401269
  ---------------------------------------------------
  free energy    TOTEN  =      -338.41793094 eV

  energy without entropy =     -338.41742011  energy(sigma->0) =     -338.41776066


--------------------------------------------------------------------------------------------------------




--------------------------------------- Iteration      1(   4)  ---------------------------------------


    TRIAL :  cpu time   40.7278: real time   41.0088
    CORREC:  cpu time    0.0077: real time    0.0079
    --------------------------------------------
      LOOP:  cpu time   40.7364: real time   41.0201

 eigenvalue-minimisations  : 27504
 total energy-change (2. order) :-0.5670290E+02  (-0.5191718E+02)
 number of electron     270.0000000 magnetization     -15.0000000
 augmentation part      270.0000000 magnetization     -15.0000000

 Free energy of the ion-electron system (eV)
  ---------------------------------------------------
  alpha Z        PSCENC =       798.38614055
  Ewald energy   TEWEN  =    -12901.57693327
  -Hartree energ DENC   =     -2855.60785864
  -exchange      EXHF   =         0.00000000
  -V(xc)+E(xc)   XCENC  =      -996.06378190
  PAW double counting   =     12741.82587617   -11476.22345381
  entropy T*S    EENTRO =         0.02429305
  eigenvalues    EBANDS =      1596.44087360
  atomic energy  EATOM  =     12697.67401269
  ---------------------------------------------------
  free energy    TOTEN  =      -395.12083157 eV

  energy without entropy =     -395.14512462  energy(sigma->0) =     -395.12892925


--------------------------------------------------------------------------------------------------------




--------------------------------------- Iteration      1(   5)  ---------------------------------------


    TRIAL :  cpu time   42.0314: real time   42.4799
    CORREC:  cpu time    0.0078: real time    0.0087
    --------------------------------------------
      LOOP:  cpu time   42.0401: real time   42.4923

 eigenvalue-minimisations  : 28776
 total energy-change (2. order) :-0.8013760E+01  (-0.7595755E+01)
 number of electron     270.0000000 magnetization     -15.0000000
 augmentation part      270.0000000 magnetization     -15.0000000

 Free energy of the ion-electron system (eV)
  ---------------------------------------------------
  alpha Z        PSCENC =       798.38614055
  Ewald energy   TEWEN  =    -12901.57693327
  -Hartree energ DENC   =     -2855.60785864
  -exchange      EXHF   =         0.00000000
  -V(xc)+E(xc)   XCENC  =      -996.06378190
  PAW double counting   =     12741.82587617   -11476.22345381
  entropy T*S    EENTRO =         0.03402101
  eigenvalues    EBANDS =      1588.41738594
  atomic energy  EATOM  =     12697.67401269
  ---------------------------------------------------
  free energy    TOTEN  =      -403.13459127 eV

  energy without entropy =     -403.16861228  energy(sigma->0) =     -403.14593160


--------------------------------------------------------------------------------------------------------




--------------------------------------- Iteration      1(   6)  ---------------------------------------


    TRIAL :  cpu time   41.5409: real time   41.9308
    CORREC:  cpu time    0.0077: real time    0.0086
    --------------------------------------------
      LOOP:  cpu time   41.5655: real time   41.9591

 eigenvalue-minimisations  : 28456
 total energy-change (2. order) :-0.8907328E+00  (-0.8548885E+00)
 number of electron     270.0000000 magnetization     -15.0000000
 augmentation part      270.0000000 magnetization     -15.0000000

 Free energy of the ion-electron system (eV)
  ---------------------------------------------------
  alpha Z        PSCENC =       798.38614055
  Ewald energy   TEWEN  =    -12901.57693327
  -Hartree energ DENC   =     -2855.60785864
  -exchange      EXHF   =         0.00000000
  -V(xc)+E(xc)   XCENC  =      -996.06378190
  PAW double counting   =     12741.82587617   -11476.22345381
  entropy T*S    EENTRO =         0.04044412
  eigenvalues    EBANDS =      1587.52023001
  atomic energy  EATOM  =     12697.67401269
  ---------------------------------------------------
  free energy    TOTEN  =      -404.02532410 eV

  energy without entropy =     -404.06576821  energy(sigma->0) =     -404.03880547


--------------------------------------------------------------------------------------------------------




--------------------------------------- Iteration      1(   7)  ---------------------------------------


    TRIAL :  cpu time   42.5122: real time   42.7398
    CORREC:  cpu time    0.0078: real time    0.0087
    --------------------------------------------
      LOOP:  cpu time   42.5211: real time   42.7524

 eigenvalue-minimisations  : 29032
 total energy-change (2. order) :-0.1358028E+00  (-0.1311404E+00)
 number of electron     270.0000000 magnetization     -15.0000000
 augmentation part      270.0000000 magnetization     -15.0000000

 Free energy of the ion-electron system (eV)
  ---------------------------------------------------
  alpha Z        PSCENC =       798.38614055
  Ewald energy   TEWEN  =    -12901.57693327
  -Hartree energ DENC   =     -2855.60785864
  -exchange      EXHF   =         0.00000000
  -V(xc)+E(xc)   XCENC  =      -996.06378190
  PAW double counting   =     12741.82587617   -11476.22345381
  entropy T*S    EENTRO =         0.04295053
  eigenvalues    EBANDS =      1587.38192077
  atomic energy  EATOM  =     12697.67401269
  ---------------------------------------------------
  free energy    TOTEN  =      -404.16112693 eV

  energy without entropy =     -404.20407746  energy(sigma->0) =     -404.17544377


--------------------------------------------------------------------------------------------------------




--------------------------------------- Iteration      1(   8)  ---------------------------------------


    TRIAL :  cpu time   41.0801: real time   41.4611
    CORREC:  cpu time    0.0081: real time    0.0090
    CHARGE:  cpu time    1.4213: real time    1.4213
    --------------------------------------------
      LOOP:  cpu time   42.5108: real time   42.8952

 eigenvalue-minimisations  : 27936
 total energy-change (2. order) :-0.2317827E-01  (-0.2252758E-01)
 number of electron     269.9999995 magnetization     -10.3405459
 augmentation part       64.2123832 magnetization      -6.0068020

 Free energy of the ion-electron system (eV)
  ---------------------------------------------------
  alpha Z        PSCENC =       798.38614055
  Ewald energy   TEWEN  =    -12901.57693327
  -Hartree energ DENC   =     -2855.60785864
  -exchange      EXHF   =         0.00000000
  -V(xc)+E(xc)   XCENC  =      -996.06378190
  PAW double counting   =     12741.82587617   -11476.22345381
  entropy T*S    EENTRO =         0.04436888
  eigenvalues    EBANDS =      1587.35732414
  atomic energy  EATOM  =     12697.67401269
  ---------------------------------------------------
  free energy    TOTEN  =      -404.18430520 eV

  energy without entropy =     -404.22867408  energy(sigma->0) =     -404.19909483


--------------------------------------------------------------------------------------------------------




--------------------------------------- Iteration      1(   9)  ---------------------------------------


    POTLOK:  cpu time    0.3976: real time    0.3976
    SETDIJ:  cpu time    0.5351: real time    0.5351
    TRIAL :  cpu time   13.5574: real time   13.6814
    CORREC:  cpu time    4.4912: real time    4.5333
    CHARGE:  cpu time    1.3923: real time    1.4192
    --------------------------------------------
      LOOP:  cpu time   20.3980: real time   20.5916

 eigenvalue-minimisations  :     0
 total energy-change (2. order) : 0.2994398E+03  (-0.2190212E+03)
 number of electron     269.9999993 magnetization     -10.8416221
 augmentation part       82.6612707 magnetization      -7.2181591

 Free energy of the ion-electron system (eV)
  ---------------------------------------------------
  alpha Z        PSCENC =       798.38614055
  Ewald energy   TEWEN  =    -12901.57693327
  -Hartree energ DENC   =     -1273.13512821
  -exchange      EXHF   =         0.00000000
  -V(xc)+E(xc)   XCENC  =     -1041.63175270
  PAW double counting   =     19169.44292185   -17749.93205014
  entropy T*S    EENTRO =         0.02904037
  eigenvalues    EBANDS =       195.98389834
  atomic energy  EATOM  =     12697.67401269
  ---------------------------------------------------
  free energy    TOTEN  =      -104.74452202 eV

  energy without entropy =     -104.77356239  energy(sigma->0) =     -104.75420214


--------------------------------------------------------------------------------------------------------




--------------------------------------- Iteration      1(  10)  ---------------------------------------


    POTLOK:  cpu time    0.3907: real time    0.3907
    SETDIJ:  cpu time    0.4610: real time    0.4646
    TRIAL :  cpu time   14.4204: real time   14.6598
    CORREC:  cpu time    5.1464: real time    5.1931
    CHARGE:  cpu time    1.4163: real time    1.4163
    --------------------------------------------
      LOOP:  cpu time   21.8506: real time   22.1416

 eigenvalue-minimisations  :     0
 total energy-change (2. order) :-0.2137475E+03  (-0.1205354E+02)
 number of electron     269.9999993 magnetization     -11.0788637
 augmentation part       86.6949522 magnetization      -7.4970025

 Free energy of the ion-electron system (eV)
  ---------------------------------------------------
  alpha Z        PSCENC =       798.38614055
  Ewald energy   TEWEN  =    -12901.57693327
  -Hartree energ DENC   =     -2114.58243087
  -exchange      EXHF   =         0.00000000
  -V(xc)+E(xc)   XCENC  =     -1012.33403787
  PAW double counting   =     20648.44705095   -19411.35190127
  entropy T*S    EENTRO =         0.02118881
  eigenvalues    EBANDS =       976.81708138
  atomic energy  EATOM  =     12697.67401269
  ---------------------------------------------------
  free energy    TOTEN  =      -318.49197734 eV

  energy without entropy =     -318.51316614  energy(sigma->0) =     -318.49904027


--------------------------------------------------------------------------------------------------------




--------------------------------------- Iteration      1(  11)  ---------------------------------------


    POTLOK:  cpu time    0.3897: real time    0.3897
    SETDIJ:  cpu time    0.4629: real time    0.4629
    TRIAL :  cpu time   13.7728: real time   13.8500
    CORREC:  cpu time    4.5689: real time    4.5726
    CHARGE:  cpu time    1.4385: real time    1.4384
    --------------------------------------------
      LOOP:  cpu time   20.6499: real time   20.7321

 eigenvalue-minimisations  :     0
 total energy-change (2. order) :-0.1151318E+02  (-0.1123206E+02)
 number of electron     269.9999993 magnetization     -11.0752659
 augmentation part       89.0357145 magnetization      -7.7254590

 Free energy of the ion-electron system (eV)
  ---------------------------------------------------
  alpha Z        PSCENC =       798.38614055
  Ewald energy   TEWEN  =    -12901.57693327
  -Hartree energ DENC   =     -2354.46135939
  -exchange      EXHF   =         0.00000000
  -V(xc)+E(xc)   XCENC  =     -1003.48936063
  PAW double counting   =     21582.97627277   -20385.83021207
  entropy T*S    EENTRO =         0.02317652
  eigenvalues    EBANDS =      1236.29509735
  atomic energy  EATOM  =     12697.67401269
  ---------------------------------------------------
  free energy    TOTEN  =      -330.00515319 eV

  energy without entropy =     -330.02832971  energy(sigma->0) =     -330.01287870


--------------------------------------------------------------------------------------------------------




--------------------------------------- Iteration      1(  12)  ---------------------------------------


    POTLOK:  cpu time    0.3942: real time    0.4010
    SETDIJ:  cpu time    0.4528: real time    0.4529
    TRIAL :  cpu time   13.6037: real time   13.7686
    CORREC:  cpu time    4.4575: real time    4.5715
    CHARGE:  cpu time    1.4417: real time    1.4420
    --------------------------------------------
      LOOP:  cpu time   20.3548: real time   20.6418

 eigenvalue-minimisations  :     0
 total energy-change (2. order) :-0.1129953E+02  (-0.1154318E+02)
 number of electron     269.9999993 magnetization     -11.3391122
 augmentation part       86.7509846 magnetization      -7.8537090

 Free energy of the ion-electron system (eV)
  ---------------------------------------------------
  alpha Z        PSCENC =       798.38614055
  Ewald energy   TEWEN  =    -12901.57693327
  -Hartree energ DENC   =     -2552.45392027
  -exchange      EXHF   =         0.00000000
  -V(xc)+E(xc)   XCENC  =      -996.78378533
  PAW double counting   =     21823.78448339   -20636.16343148
  entropy T*S    EENTRO =        -0.00179896
  eigenvalues    EBANDS =      1425.80556974
  atomic energy  EATOM  =     12697.67401269
  ---------------------------------------------------
  free energy    TOTEN  =      -341.30468745 eV

  energy without entropy =     -341.30288850  energy(sigma->0) =     -341.30408780


--------------------------------------------------------------------------------------------------------




--------------------------------------- Iteration      1(  13)  ---------------------------------------


    POTLOK:  cpu time    0.3902: real time    0.3902
    SETDIJ:  cpu time    0.4635: real time    0.4635
    TRIAL :  cpu time   15.1010: real time   15.2723
    CORREC:  cpu time    4.4913: real time    4.5081
    CHARGE:  cpu time    1.4345: real time    1.4548
    --------------------------------------------
      LOOP:  cpu time   21.8837: real time   22.0930

 eigenvalue-minimisations  :     0
 total energy-change (2. order) :-0.1140951E+02  (-0.8989432E+00)
 number of electron     269.9999993 magnetization     -11.5186618
 augmentation part       86.1487977 magnetization      -7.8451156

 Free energy of the ion-electron system (eV)
  ---------------------------------------------------
  alpha Z        PSCENC =       798.38614055
  Ewald energy   TEWEN  =    -12901.57693327
  -Hartree energ DENC   =     -2516.99954498
  -exchange      EXHF   =         0.00000000
  -V(xc)+E(xc)   XCENC  =      -998.93150628
  PAW double counting   =     21290.03861825   -20051.87088828
  entropy T*S    EENTRO =        -0.00792443
  eigenvalues    EBANDS =      1330.56770533
  atomic energy  EATOM  =     12697.67401269
  ---------------------------------------------------
  free energy    TOTEN  =      -352.71419496 eV

  energy without entropy =     -352.70627052  energy(sigma->0) =     -352.71155348


--------------------------------------------------------------------------------------------------------




--------------------------------------- Iteration      1(  14)  ---------------------------------------


    POTLOK:  cpu time    0.3911: real time    0.3911
    SETDIJ:  cpu time    0.4972: real time    0.4972
    TRIAL :  cpu time   13.7325: real time   13.8242
    CORREC:  cpu time    4.4724: real time    4.4814
    CHARGE:  cpu time    1.4238: real time    1.4709
    --------------------------------------------
      LOOP:  cpu time   20.5185: real time   20.6672

 eigenvalue-minimisations  :     0
 total energy-change (2. order) :-0.8959106E+00  (-0.1230588E+01)
 number of electron     269.9999993 magnetization     -11.4596557
 augmentation part       85.9066988 magnetization      -7.7453816

 Free energy of the ion-electron system (eV)
  ---------------------------------------------------
  alpha Z        PSCENC =       798.38614055
  Ewald energy   TEWEN  =    -12901.57693327
  -Hartree energ DENC   =     -2483.24817449
  -exchange      EXHF   =         0.00000000
  -V(xc)+E(xc)   XCENC  =     -1000.22535819
  PAW double counting   =     20873.71100275   -19625.51679208
  entropy T*S    EENTRO =        -0.01055381
  eigenvalues    EBANDS =      1287.19392088
  atomic energy  EATOM  =     12697.67401269
  ---------------------------------------------------
  free energy    TOTEN  =      -353.61010560 eV

  energy without entropy =     -353.59955179  energy(sigma->0) =     -353.60658766


--------------------------------------------------------------------------------------------------------




--------------------------------------- Iteration      1(  15)  ---------------------------------------


    POTLOK:  cpu time    0.3904: real time    0.3904
    SETDIJ:  cpu time    0.4625: real time    0.4625
    TRIAL :  cpu time   13.6216: real time   13.7477
    CORREC:  cpu time    4.4354: real time    4.5300
    CHARGE:  cpu time    1.4210: real time    1.4922
    --------------------------------------------
      LOOP:  cpu time   20.3472: real time   20.6403

 eigenvalue-minimisations  :     0
 total energy-change (2. order) :-0.1226037E+01  (-0.6240706E+00)
 number of electron     269.9999992 magnetization     -11.4096896
 augmentation part       86.7307721 magnetization      -7.7546801

 Free energy of the ion-electron system (eV)
  ---------------------------------------------------
  alpha Z        PSCENC =       798.38614055
  Ewald energy   TEWEN  =    -12901.57693327
  -Hartree energ DENC   =     -2457.48511009
  -exchange      EXHF   =         0.00000000
  -V(xc)+E(xc)   XCENC  =     -1001.30202001
  PAW double counting   =     20064.73808678   -18808.12276517
  entropy T*S    EENTRO =        -0.01488671
  eigenvalues    EBANDS =      1252.86299982
  atomic energy  EATOM  =     12697.67401269
  ---------------------------------------------------
  free energy    TOTEN  =      -354.83614251 eV

  energy without entropy =     -354.82125580  energy(sigma->0) =     -354.83118027


--------------------------------------------------------------------------------------------------------




--------------------------------------- Iteration      1(  16)  ---------------------------------------


    POTLOK:  cpu time    0.4172: real time    0.4172
    SETDIJ:  cpu time    0.4559: real time    0.4559
    TRIAL :  cpu time   14.5238: real time   14.6475
    CORREC:  cpu time    4.5854: real time    4.6510
    CHARGE:  cpu time    1.4168: real time    1.4168
    --------------------------------------------
      LOOP:  cpu time   21.4004: real time   21.5915

 eigenvalue-minimisations  :     0
 total energy-change (2. order) :-0.6270963E+00  (-0.2329539E+00)
 number of electron     269.9999992 magnetization     -11.5129810
 augmentation part       87.1953908 magnetization      -7.8140789

 Free energy of the ion-electron system (eV)
  ---------------------------------------------------
  alpha Z        PSCENC =       798.38614055
  Ewald energy   TEWEN  =    -12901.57693327
  -Hartree energ DENC   =     -2490.99960884
  -exchange      EXHF   =         0.00000000
  -V(xc)+E(xc)   XCENC  =     -1000.08108583
  PAW double counting   =     19710.56800893   -18460.44121690
  entropy T*S    EENTRO =        -0.01620263
  eigenvalues    EBANDS =      1291.02233056
  atomic energy  EATOM  =     12697.67401269
  ---------------------------------------------------
  free energy    TOTEN  =      -355.46323881 eV

  energy without entropy =     -355.44703618  energy(sigma->0) =     -355.45783794


--------------------------------------------------------------------------------------------------------




--------------------------------------- Iteration      1(  17)  ---------------------------------------


    POTLOK:  cpu time    0.3907: real time    0.3907
    SETDIJ:  cpu time    0.4831: real time    0.4831
    TRIAL :  cpu time   13.8268: real time   13.8436
    CORREC:  cpu time    4.4170: real time    4.5279
    CHARGE:  cpu time    1.3805: real time    1.4535
    --------------------------------------------
      LOOP:  cpu time   20.5062: real time   20.7078

 eigenvalue-minimisations  :     0
 total energy-change (2. order) :-0.2336719E+00  (-0.3620859E+00)
 number of electron     269.9999992 magnetization     -11.4699639
 augmentation part       87.2361942 magnetization      -7.8948215

 Free energy of the ion-electron system (eV)
  ---------------------------------------------------
  alpha Z        PSCENC =       798.38614055
  Ewald energy   TEWEN  =    -12901.57693327
  -Hartree energ DENC   =     -2511.52474766
  -exchange      EXHF   =         0.00000000
  -V(xc)+E(xc)   XCENC  =      -999.21127732
  PAW double counting   =     19609.43385205   -18363.80552822
  entropy T*S    EENTRO =        -0.01821585
  eigenvalues    EBANDS =      1314.94377310
  atomic energy  EATOM  =     12697.67401269
  ---------------------------------------------------
  free energy    TOTEN  =      -355.69691070 eV

  energy without entropy =     -355.67869485  energy(sigma->0) =     -355.69083875


--------------------------------------------------------------------------------------------------------




--------------------------------------- Iteration      1(  18)  ---------------------------------------


    POTLOK:  cpu time    0.3904: real time    0.3904
    SETDIJ:  cpu time    0.4617: real time    0.4618
    TRIAL :  cpu time   13.6955: real time   13.8255
    CORREC:  cpu time    4.4794: real time    4.5264
    CHARGE:  cpu time    1.4111: real time    1.4356
    --------------------------------------------
      LOOP:  cpu time   20.4410: real time   20.6438

 eigenvalue-minimisations  :     0
 total energy-change (2. order) :-0.3622269E+00  (-0.9448989E-01)
 number of electron     269.9999992 magnetization     -11.4871435
 augmentation part       87.0320855 magnetization      -7.9286529

 Free energy of the ion-electron system (eV)
  ---------------------------------------------------
  alpha Z        PSCENC =       798.38614055
  Ewald energy   TEWEN  =    -12901.57693327
  -Hartree energ DENC   =     -2508.89350389
  -exchange      EXHF   =         0.00000000
  -V(xc)+E(xc)   XCENC  =      -998.87708491
  PAW double counting   =     19480.26542577   -18234.82609911
  entropy T*S    EENTRO =        -0.01921219
  eigenvalues    EBANDS =      1311.80712037
  atomic energy  EATOM  =     12697.67401269
  ---------------------------------------------------
  free energy    TOTEN  =      -356.05913765 eV

  energy without entropy =     -356.03992546  energy(sigma->0) =     -356.05273359


--------------------------------------------------------------------------------------------------------




--------------------------------------- Iteration      1(  19)  ---------------------------------------


    POTLOK:  cpu time    0.3940: real time    0.3986
    SETDIJ:  cpu time    0.4926: real time    0.5257
    TRIAL :  cpu time   14.4455: real time   14.5259
    CORREC:  cpu time    4.4954: real time    4.5578
    CHARGE:  cpu time    1.4409: real time    1.4409
    --------------------------------------------
      LOOP:  cpu time   22.1171: real time   22.3009

 eigenvalue-minimisations  :     0
 total energy-change (2. order) :-0.9417514E-01  (-0.8076565E-01)
 number of electron     269.9999992 magnetization     -11.5145355
 augmentation part       86.7877166 magnetization      -7.9600345

 Free energy of the ion-electron system (eV)
  ---------------------------------------------------
  alpha Z        PSCENC =       798.38614055
  Ewald energy   TEWEN  =    -12901.57693327
  -Hartree energ DENC   =     -2497.97432053
  -exchange      EXHF   =         0.00000000
  -V(xc)+E(xc)   XCENC  =      -999.13771351
  PAW double counting   =     19446.62398616   -18199.02775001
  entropy T*S    EENTRO =        -0.01938199
  eigenvalues    EBANDS =      1298.89847732
  atomic energy  EATOM  =     12697.67401269
  ---------------------------------------------------
  free energy    TOTEN  =      -356.15331279 eV

  energy without entropy =     -356.13393080  energy(sigma->0) =     -356.14685212


--------------------------------------------------------------------------------------------------------




--------------------------------------- Iteration      1(  20)  ---------------------------------------


    POTLOK:  cpu time    0.3902: real time    0.3902
    SETDIJ:  cpu time    0.4740: real time    0.4740
    TRIAL :  cpu time   13.5799: real time   13.7122
    CORREC:  cpu time    4.4671: real time    4.5260
    CHARGE:  cpu time    1.4214: real time    1.4385
    --------------------------------------------
      LOOP:  cpu time   20.3706: real time   20.5793

 eigenvalue-minimisations  :     0
 total energy-change (2. order) :-0.8069748E-01  (-0.1112205E+00)
 number of electron     269.9999992 magnetization     -11.5273377
 augmentation part       86.7461765 magnetization      -8.0109759

 Free energy of the ion-electron system (eV)
  ---------------------------------------------------
  alpha Z        PSCENC =       798.38614055
  Ewald energy   TEWEN  =    -12901.57693327
  -Hartree energ DENC   =     -2487.17819546
  -exchange      EXHF   =         0.00000000
  -V(xc)+E(xc)   XCENC  =      -999.41620416
  PAW double counting   =     19426.55288022   -18176.55369502
  entropy T*S    EENTRO =        -0.02033570
  eigenvalues    EBANDS =      1285.89736618
  atomic energy  EATOM  =     12697.67401269
  ---------------------------------------------------
  free energy    TOTEN  =      -356.23401027 eV

  energy without entropy =     -356.21367457  energy(sigma->0) =     -356.22723170


--------------------------------------------------------------------------------------------------------




--------------------------------------- Iteration      1(  21)  ---------------------------------------


    POTLOK:  cpu time    0.3903: real time    0.3903
    SETDIJ:  cpu time    0.4839: real time    0.4838
    TRIAL :  cpu time   13.5937: real time   13.7877
    CORREC:  cpu time    5.3450: real time    5.4171
    CHARGE:  cpu time    1.4517: real time    1.4583
    --------------------------------------------
      LOOP:  cpu time   21.2709: real time   21.5449

 eigenvalue-minimisations  :     0
 total energy-change (2. order) :-0.1112193E+00  (-0.5929244E-01)
 number of electron     269.9999992 magnetization     -11.5602921
 augmentation part       86.9488279 magnetization      -8.0510224

 Free energy of the ion-electron system (eV)
  ---------------------------------------------------
  alpha Z        PSCENC =       798.38614055
  Ewald energy   TEWEN  =    -12901.57693327
  -Hartree energ DENC   =     -2489.50195007
  -exchange      EXHF   =         0.00000000
  -V(xc)+E(xc)   XCENC  =      -999.19047300
  PAW double counting   =     19441.00201116   -18191.21030944
  entropy T*S    EENTRO =        -0.02071351
  eigenvalues    EBANDS =      1288.09260752
  atomic energy  EATOM  =     12697.67401269
  ---------------------------------------------------
  free energy    TOTEN  =      -356.34522957 eV

  energy without entropy =     -356.32451606  energy(sigma->0) =     -356.33832507


--------------------------------------------------------------------------------------------------------




--------------------------------------- Iteration      1(  22)  ---------------------------------------


    POTLOK:  cpu time    0.3897: real time    0.3897
    SETDIJ:  cpu time    0.4741: real time    0.4741
    TRIAL :  cpu time   14.3520: real time   14.4780
    CORREC:  cpu time    4.5841: real time    4.5879
    CHARGE:  cpu time    1.4172: real time    1.4172
    --------------------------------------------
      LOOP:  cpu time   21.2655: real time   21.3972

 eigenvalue-minimisations  :     0
 total energy-change (2. order) :-0.5940197E-01  (-0.2747085E-01)
 number of electron     269.9999992 magnetization     -11.5868993
 augmentation part       86.9878878 magnetization      -8.0663662

 Free energy of the ion-electron system (eV)
  ---------------------------------------------------
  alpha Z        PSCENC =       798.38614055
  Ewald energy   TEWEN  =    -12901.57693327
  -Hartree energ DENC   =     -2502.71015775
  -exchange      EXHF   =         0.00000000
  -V(xc)+E(xc)   XCENC  =      -998.64147811
  PAW double counting   =     19472.16226016   -18224.98283238
  entropy T*S    EENTRO =        -0.02046228
  eigenvalues    EBANDS =      1303.30507008
  atomic energy  EATOM  =     12697.67401269
  ---------------------------------------------------
  free energy    TOTEN  =      -356.40463154 eV

  energy without entropy =     -356.38416926  energy(sigma->0) =     -356.39781078


--------------------------------------------------------------------------------------------------------




--------------------------------------- Iteration      1(  23)  ---------------------------------------


    POTLOK:  cpu time    0.3917: real time    0.3917
    SETDIJ:  cpu time    0.5040: real time    0.5085
    TRIAL :  cpu time   13.5989: real time   13.7127
    CORREC:  cpu time    4.4939: real time    4.5144
    CHARGE:  cpu time    1.4208: real time    1.4208
    --------------------------------------------
      LOOP:  cpu time   20.4134: real time   20.5534

 eigenvalue-minimisations  :     0
 total energy-change (2. order) :-0.2746778E-01  (-0.3208145E-01)
 number of electron     269.9999992 magnetization     -11.6304681
 augmentation part       86.9494982 magnetization      -8.0887240

 Free energy of the ion-electron system (eV)
  ---------------------------------------------------
  alpha Z        PSCENC =       798.38614055
  Ewald energy   TEWEN  =    -12901.57693327
  -Hartree energ DENC   =     -2505.25835578
  -exchange      EXHF   =         0.00000000
  -V(xc)+E(xc)   XCENC  =      -998.49670500
  PAW double counting   =     19477.02351080   -18230.26487197
  entropy T*S    EENTRO =        -0.02024823
  eigenvalues    EBANDS =      1306.10156494
  atomic energy  EATOM  =     12697.67401269
  ---------------------------------------------------
  free energy    TOTEN  =      -356.43209932 eV

  energy without entropy =     -356.41185109  energy(sigma->0) =     -356.42534991


--------------------------------------------------------------------------------------------------------




--------------------------------------- Iteration      1(  24)  ---------------------------------------


    POTLOK:  cpu time    0.3900: real time    0.3900
    SETDIJ:  cpu time    0.4830: real time    0.4830
    TRIAL :  cpu time   14.3795: real time   14.6006
    CORREC:  cpu time    4.5117: real time    4.5330
    CHARGE:  cpu time    1.4205: real time    1.4636
    --------------------------------------------
      LOOP:  cpu time   21.2138: real time   21.5005

 eigenvalue-minimisations  :     0
 total energy-change (2. order) :-0.3213006E-01  (-0.3186456E-01)
[...]
   45        0.014   0.019   2.288   2.321
   46       -0.021  -0.020  -2.382  -2.424
   47       -0.018  -0.019  -2.364  -2.401
   48        0.014   0.019   2.274   2.307
   49       -0.010  -0.009  -2.328  -2.347
   50       -0.016  -0.023  -2.362  -2.401
   51        0.016   0.015   2.296   2.327
   52       -0.021  -0.021  -2.384  -2.426
   53       -0.018  -0.019  -2.363  -2.399
   54        0.014   0.019   2.271   2.304
--------------------------------------------------
tot          0.016   0.063 -11.968 -11.889
 
    FORLOC:  cpu time    0.0579: real time    0.0579
    FORNL :  cpu time   22.4989: real time   22.7362
    STRESS:  cpu time   31.4413: real time   31.6612
    FORCOR:  cpu time    0.4357: real time    0.4443
    OFIELD:  cpu time    0.0020: real time    0.0020

  FORCE on cell =-STRESS in cart. coord.  units (eV):
  Direction    XX          YY          ZZ          XY          YZ          ZX
  --------------------------------------------------------------------------------------
  Alpha Z   798.38614   798.38614   798.38614
  Ewald   -4053.61603 -4053.61603 -4794.40593    -0.00000    -0.00000    -0.00000
  Hartree  1083.98067  1085.29804   331.96881    -0.00000    -0.00000    -0.00000
  E(xc)   -1141.64976 -1141.89745 -1139.75645     0.00000     0.00000    -0.00000
  Local     369.46650   366.31069  1906.86752    -0.00000     0.00000    -0.00000
  n-local  -170.04434  -170.51343  -175.39587     0.38623    -0.26380    -0.27551
  augment   784.36474   785.38123   766.93556     0.00000     0.00001     0.00001
  Kinetic  2334.88900  2337.30569  2307.54653    -2.53792    -1.53420    -1.36576
  Fock        0.00000     0.00000     0.00000     0.00000     0.00000     0.00000
  -------------------------------------------------------------------------------------
  Total       5.77694     6.65488     2.14632     0.00000     0.00000     0.00000
  in kB      13.03781    15.01920     4.84397     0.00000     0.00000     0.00000
  external pressure =       10.97 kB  Pullay stress =        0.00 kB


 VOLUME and BASIS-vectors are now :
 -----------------------------------------------------------------------------
  energy-cutoff  :      404.80
  volume of cell :      709.91
      direct lattice vectors                 reciprocal lattice vectors
     8.250148166  0.000000000  0.000000000     0.121209944  0.000000000  0.000000000
     0.000000000  8.250148166  0.000000000     0.000000000  0.121209944  0.000000000
     0.000000000  0.000000000 10.429911392     0.000000000  0.000000000  0.095878092

  length of vectors
     8.250148166  8.250148166 10.429911392     0.121209944  0.121209944  0.095878092


 FORCES acting on ions:
    Electron-Ion                     Ewald-Force                    Non-Local-Force
 -----------------------------------------------------------------------------------------------
   -.642E-01 -.255E-10 -.457E-01   -.239E-08 -.239E-08 -.210E-08   0.165E+00 0.000E+00 -.107E-01
   0.877E-01 -.254E-10 0.702E-02   -.239E-08 -.239E-08 0.171E-08   -.559E-01 0.000E+00 0.527E-01
   -.567E-02 -.255E-10 -.368E-01   -.239E-08 -.239E-08 0.861E-08   0.101E-01 0.000E+00 0.215E-01
   -.988E-01 0.128E+00 -.120E+00   -.239E-08 -.802E-09 -.210E-08   0.819E-01 -.640E-01 0.410E-01
   -.182E-01 0.554E-01 0.239E-01   -.239E-08 -.802E-09 0.171E-08   -.170E-01 0.237E-01 0.176E-02
   0.398E-02 0.749E-02 0.586E-01   -.239E-08 -.802E-09 0.861E-08   0.924E-02 -.918E-02 -.195E-01
   -.988E-01 -.128E+00 -.120E+00   -.239E-08 0.631E-08 -.210E-08   0.819E-01 0.640E-01 0.410E-01
   -.182E-01 -.554E-01 0.239E-01   -.239E-08 0.631E-08 0.171E-08   -.170E-01 -.237E-01 0.176E-02
   0.398E-02 -.749E-02 0.586E-01   -.239E-08 0.631E-08 0.861E-08   0.924E-02 0.918E-02 -.195E-01
   0.642E-01 -.255E-10 -.457E-01   -.802E-09 -.239E-08 -.210E-08   -.165E+00 0.000E+00 -.107E-01
   -.877E-01 -.254E-10 0.702E-02   -.802E-09 -.239E-08 0.171E-08   0.559E-01 0.000E+00 0.527E-01
   0.567E-02 -.255E-10 -.368E-01   -.803E-09 -.239E-08 0.861E-08   -.101E-01 0.000E+00 0.215E-01
   0.988E-01 0.128E+00 -.120E+00   -.802E-09 -.802E-09 -.210E-08   -.819E-01 -.640E-01 0.410E-01
   0.182E-01 0.554E-01 0.239E-01   -.802E-09 -.802E-09 0.171E-08   0.170E-01 0.237E-01 0.176E-02
   -.398E-02 0.749E-02 0.586E-01   -.803E-09 -.802E-09 0.861E-08   -.924E-02 -.918E-02 -.195E-01
   0.988E-01 -.128E+00 -.120E+00   -.802E-09 0.631E-08 -.210E-08   -.819E-01 0.640E-01 0.410E-01
   0.182E-01 -.554E-01 0.239E-01   -.802E-09 0.631E-08 0.171E-08   0.170E-01 -.237E-01 0.176E-02
   -.398E-02 -.749E-02 0.586E-01   -.803E-09 0.631E-08 0.861E-08   -.924E-02 0.918E-02 -.195E-01
   -.328E-08 -.255E-10 -.372E-01   0.631E-08 -.239E-08 -.210E-08   0.000E+00 0.000E+00 0.173E-01
   -.327E-08 -.254E-10 0.269E-02   0.631E-08 -.239E-08 0.171E-08   0.000E+00 0.000E+00 -.406E-01
   -.329E-08 -.255E-10 0.182E+00   0.631E-08 -.239E-08 0.861E-08   0.000E+00 0.000E+00 -.748E-01
   -.329E-08 -.266E-01 -.564E-01   0.631E-08 -.802E-09 -.210E-08   0.000E+00 0.147E-01 0.649E-01
   -.328E-08 -.233E-01 0.933E-02   0.631E-08 -.802E-09 0.171E-08   0.000E+00 -.758E-02 -.625E-01
   -.329E-08 0.125E-02 0.116E+00   0.631E-08 -.802E-09 0.861E-08   -.678E-19 -.532E-02 -.647E-01
   -.329E-08 0.266E-01 -.564E-01   0.631E-08 0.631E-08 -.210E-08   0.000E+00 -.147E-01 0.649E-01
   -.328E-08 0.233E-01 0.933E-02   0.631E-08 0.631E-08 0.171E-08   -.407E-19 0.758E-02 -.625E-01
   -.329E-08 -.125E-02 0.116E+00   0.631E-08 0.631E-08 0.861E-08   0.000E+00 0.532E-02 -.647E-01
   0.478E-08 -.571E+00 -.259E+00   -.169E-07 -.169E-07 -.180E-07   0.000E+00 0.217E+00 0.185E+00
   0.485E-08 -.107E+00 0.154E+00   -.169E-07 -.169E-07 -.170E-08   0.000E+00 0.555E-02 -.147E+00
   0.483E-08 -.598E-02 0.242E+00   -.169E-07 -.169E-07 0.115E-07   0.000E+00 0.121E-01 -.295E+00
   0.488E-08 0.829E-11 0.142E+00   -.169E-07 0.802E-09 -.180E-07   0.000E+00 0.000E+00 -.135E+00
   0.483E-08 0.825E-11 -.903E-01   -.169E-07 0.802E-09 -.170E-08   0.000E+00 0.000E+00 0.925E-01
   0.488E-08 0.837E-11 -.269E+00   -.169E-07 0.802E-09 0.115E-07   0.000E+00 0.000E+00 0.403E+00
   0.478E-08 0.571E+00 -.259E+00   -.169E-07 0.130E-07 -.180E-07   0.000E+00 -.217E+00 0.185E+00
   0.485E-08 0.107E+00 0.154E+00   -.169E-07 0.130E-07 -.170E-08   0.000E+00 -.555E-02 -.147E+00
   0.483E-08 0.598E-02 0.242E+00   -.169E-07 0.130E-07 0.115E-07   0.000E+00 -.121E-01 -.295E+00
   0.256E+00 0.215E-01 0.431E-01   0.802E-09 -.169E-07 -.180E-07   -.121E+00 -.162E-01 -.123E+00
   -.528E-01 -.267E-01 -.440E-01   0.802E-09 -.169E-07 -.170E-08   0.105E-01 0.245E-01 0.805E-01
   0.350E-01 -.385E-01 -.905E-01   0.802E-09 -.169E-07 0.115E-07   -.323E-01 -.123E-01 0.167E+00
   -.219E+00 0.802E-11 -.409E-01   0.802E-09 0.802E-09 -.180E-07   0.205E+00 0.000E+00 -.867E-01
   -.907E-01 0.942E-11 0.359E-01   0.802E-09 0.802E-09 -.170E-08   0.117E+00 0.000E+00 0.728E-02
   -.675E-01 0.984E-11 0.661E-01   0.802E-09 0.802E-09 0.115E-07   0.108E-01 0.000E+00 0.145E-01
   0.256E+00 -.215E-01 0.431E-01   0.802E-09 0.130E-07 -.180E-07   -.121E+00 0.162E-01 -.123E+00
   -.528E-01 0.267E-01 -.440E-01   0.802E-09 0.130E-07 -.170E-08   0.105E-01 -.245E-01 0.805E-01
   0.350E-01 0.385E-01 -.905E-01   0.802E-09 0.130E-07 0.115E-07   -.323E-01 0.123E-01 0.167E+00
   -.256E+00 0.215E-01 0.431E-01   0.130E-07 -.169E-07 -.180E-07   0.121E+00 -.162E-01 -.123E+00
   0.528E-01 -.267E-01 -.440E-01   0.130E-07 -.169E-07 -.170E-08   -.105E-01 0.245E-01 0.805E-01
   -.350E-01 -.385E-01 -.905E-01   0.130E-07 -.169E-07 0.115E-07   0.323E-01 -.123E-01 0.167E+00
   0.219E+00 0.942E-11 -.409E-01   0.130E-07 0.802E-09 -.180E-07   -.205E+00 0.000E+00 -.867E-01
   0.907E-01 0.615E-11 0.359E-01   0.130E-07 0.802E-09 -.170E-08   -.117E+00 0.000E+00 0.728E-02
   0.675E-01 0.780E-11 0.661E-01   0.130E-07 0.802E-09 0.115E-07   -.108E-01 0.000E+00 0.145E-01
   -.256E+00 -.215E-01 0.431E-01   0.130E-07 0.130E-07 -.180E-07   0.121E+00 0.162E-01 -.123E+00
   0.528E-01 0.267E-01 -.440E-01   0.130E-07 0.130E-07 -.170E-08   -.105E-01 -.245E-01 0.805E-01
   -.350E-01 0.385E-01 -.905E-01   0.130E-07 0.130E-07 0.115E-07   0.323E-01 0.123E-01 0.167E+00
 -----------------------------------------------------------------------------------------------
   -.405E-07 -.449E-07 -.212E+00   -.614E-13 -.142E-13 0.128E-13   0.833E-16 -.104E-16 0.212E+00
 
 
 POSITION                                       TOTAL-FORCE (eV/Angst)
 -----------------------------------------------------------------------------------
      0.00000      0.00000      0.00000         0.087209     -0.000000     -0.054167
      0.00000      0.00000      3.47664         0.037307     -0.000000      0.053669
      0.00000      0.00000      6.95327         0.003657     -0.000000     -0.017889
      0.00000      2.75005      0.00000        -0.023677      0.070057     -0.081480
      0.00000      2.75005      3.47664        -0.033217      0.076775      0.024203
      0.00000      2.75005      6.95327         0.012539     -0.000876      0.041131
      0.00000      5.50010      0.00000        -0.023677     -0.070057     -0.081480
      0.00000      5.50010      3.47664        -0.033217     -0.076775      0.024203
      0.00000      5.50010      6.95327         0.012539      0.000876      0.041131
      2.75005      0.00000      0.00000        -0.087209     -0.000000     -0.054167
      2.75005      0.00000      3.47664        -0.037307     -0.000000      0.053669
      2.75005      0.00000      6.95327        -0.003657     -0.000000     -0.017889
      2.75005      2.75005      0.00000         0.023677      0.070057     -0.081480
      2.75005      2.75005      3.47664         0.033217      0.076775      0.024203
      2.75005      2.75005      6.95327        -0.012539     -0.000876      0.041131
      2.75005      5.50010      0.00000         0.023677     -0.070057     -0.081480
      2.75005      5.50010      3.47664         0.033217     -0.076775      0.024203
      2.75005      5.50010      6.95327        -0.012539      0.000876      0.041131
      5.50010      0.00000      0.00000         0.000000     -0.000000     -0.020771
      5.50010      0.00000      3.47664         0.000000     -0.000000     -0.034989
      5.50010      0.00000      6.95327         0.000000     -0.000000      0.114994
      5.50010      2.75005      0.00000         0.000000     -0.013607      0.003280
      5.50010      2.75005      3.47664         0.000000     -0.030576     -0.048214
      5.50010      2.75005      6.95327         0.000000     -0.003712      0.057223
      5.50010      5.50010      0.00000         0.000000      0.013607      0.003280
      5.50010      5.50010      3.47664         0.000000      0.030576     -0.048214
      5.50010      5.50010      6.95327         0.000000      0.003712      0.057223
      1.37502      1.37502      1.73832         0.000000     -0.363832     -0.079699
      1.37502      1.37502      5.21496         0.000000     -0.101091      0.008158
      1.37502      1.37502      8.69159         0.000000      0.003961     -0.043713
      1.37502      4.12507      1.73832         0.000000     -0.000000      0.009606
      1.37502      4.12507      5.21496         0.000000     -0.000000     -0.005185
      1.37502      4.12507      8.69159         0.000000     -0.000000      0.127185
      1.37502      6.87512      1.73832         0.000000      0.363832     -0.079699
      1.37502      6.87512      5.21496         0.000000      0.101091      0.008158
      1.37502      6.87512      8.69159         0.000000     -0.003961     -0.043713
      4.12507      1.37502      1.73832         0.137728      0.005926     -0.074258
      4.12507      1.37502      5.21496        -0.040220     -0.002692      0.028148
      4.12507      1.37502      8.69159         0.002022     -0.051147      0.075540
      4.12507      4.12507      1.73832        -0.016774     -0.000000     -0.120305
      4.12507      4.12507      5.21496         0.024643     -0.000000      0.035492
      4.12507      4.12507      8.69159        -0.057317     -0.000000      0.084178
      4.12507      6.87512      1.73832         0.137728     -0.005926     -0.074258
      4.12507      6.87512      5.21496        -0.040220      0.002692      0.028148
      4.12507      6.87512      8.69159         0.002022      0.051147      0.075540
      6.87512      1.37502      1.73832        -0.137728      0.005926     -0.074258
      6.87512      1.37502      5.21496         0.040220     -0.002692      0.028148
      6.87512      1.37502      8.69159        -0.002022     -0.051147      0.075540
      6.87512      4.12507      1.73832         0.016774     -0.000000     -0.120305
      6.87512      4.12507      5.21496        -0.024643     -0.000000      0.035492
      6.87512      4.12507      8.69159         0.057317     -0.000000      0.084178
      6.87512      6.87512      1.73832        -0.137728     -0.005926     -0.074258
      6.87512      6.87512      5.21496         0.040220      0.002692      0.028148
      6.87512      6.87512      8.69159        -0.002022      0.051147      0.075540
 -----------------------------------------------------------------------------------
    total drift:                               -0.000000     -0.000000      0.000177


--------------------------------------------------------------------------------------------------------



  FREE ENERGIE OF THE ION-ELECTRON SYSTEM (eV)
  ---------------------------------------------------
  free  energy   TOTEN  =      -356.58704090 eV

  energy  without entropy=     -356.57125588  energy(sigma->0) =     -356.58177923
 


--------------------------------------------------------------------------------------------------------


    POTLOK:  cpu time    0.8678: real time    0.9271


--------------------------------------------------------------------------------------------------------


     LOOP+:  cpu time 1620.7126: real time 1635.2307
    4ORBIT:  cpu time    0.0000: real time    0.0000
 


 total charge     
 
# of ion       s       p       d       tot
------------------------------------------
    1        0.405   0.429   0.000   0.834
    2        0.405   0.429   0.000   0.834
    3        0.405   0.427   0.000   0.832
    4        0.405   0.428   0.000   0.834
    5        0.404   0.429   0.000   0.834
    6        0.405   0.427   0.000   0.832
    7        0.405   0.428   0.000   0.833
    8        0.404   0.430   0.000   0.834
    9        0.405   0.427   0.000   0.832
   10        0.405   0.429   0.000   0.834
   11        0.405   0.430   0.000   0.834
   12        0.405   0.427   0.000   0.832
   13        0.405   0.429   0.000   0.834
   14        0.405   0.430   0.000   0.834
   15        0.405   0.427   0.000   0.832
   16        0.405   0.428   0.000   0.833
   17        0.404   0.430   0.000   0.834
   18        0.405   0.427   0.000   0.832
   19        0.405   0.426   0.000   0.831
   20        0.404   0.427   0.000   0.832
   21        0.405   0.427   0.000   0.832
   22        0.405   0.426   0.000   0.831
   23        0.404   0.428   0.000   0.832
   24        0.405   0.428   0.000   0.833
   25        0.405   0.426   0.000   0.831
   26        0.404   0.428   0.000   0.832
   27        0.405   0.428   0.000   0.833
   28        0.334   0.355   5.128   5.817
   29        0.331   0.353   5.129   5.813
   30        0.335   0.350   5.136   5.820
   31        0.331   0.358   5.131   5.821
   32        0.334   0.349   5.138   5.820
   33        0.334   0.353   5.131   5.819
   34        0.334   0.355   5.128   5.818
   35        0.331   0.352   5.143   5.826
   36        0.335   0.349   5.139   5.823
   37        0.333   0.355   5.133   5.821
   38        0.333   0.351   5.130   5.814
   39        0.333   0.352   5.127   5.813
   40        0.331   0.353   5.139   5.823
   41        0.334   0.352   5.131   5.818
   42        0.335   0.350   5.132   5.817
   43        0.333   0.355   5.127   5.815
   44        0.333   0.351   5.130   5.814
   45        0.334   0.352   5.127   5.813
   46        0.333   0.354   5.126   5.814
   47        0.333   0.350   5.141   5.825
   48        0.334   0.352   5.141   5.826
   49        0.331   0.353   5.137   5.821
   50        0.334   0.352   5.137   5.823
   51        0.335   0.350   5.141   5.826
   52        0.334   0.355   5.133   5.821
   53        0.333   0.350   5.145   5.828
   54        0.334   0.351   5.142   5.827
--------------------------------------------------
tot         19.936  21.064 138.624 179.623
 


 magnetization (x)
 
# of ion       s       p       d       tot
------------------------------------------
    1       -0.009  -0.020   0.000  -0.029
    2        0.012   0.021   0.000   0.033
    3        0.000  -0.002   0.000  -0.002
    4       -0.005  -0.010   0.000  -0.015
    5        0.017   0.029   0.000   0.046
    6        0.000  -0.000   0.000  -0.000
    7       -0.005  -0.011   0.000  -0.016
    8        0.016   0.029   0.000   0.046
    9        0.000  -0.000   0.000  -0.000
   10       -0.010  -0.019   0.000  -0.028
   11        0.012   0.020   0.000   0.032
   12        0.000  -0.002   0.000  -0.002
   13       -0.005  -0.009   0.000  -0.014
   14        0.017   0.029   0.000   0.045
   15       -0.000  -0.000   0.000  -0.000
   16       -0.005  -0.010   0.000  -0.015
   17        0.017   0.029   0.000   0.046
   18       -0.000  -0.000   0.000  -0.000
   19       -0.002  -0.005   0.000  -0.006
   20        0.021   0.035   0.000   0.055
   21       -0.000   0.002   0.000   0.002
   22       -0.000  -0.002   0.000  -0.002
   23        0.022   0.037   0.000   0.059
   24        0.000  -0.001   0.000  -0.001
   25       -0.000  -0.002   0.000  -0.002
   26        0.022   0.037   0.000   0.059
   27        0.000  -0.001   0.000  -0.001
   28        0.024   0.018   2.406   2.448
   29       -0.013  -0.020  -2.239  -2.272
   30        0.019   0.017   2.365   2.401
   31       -0.030  -0.032  -2.234  -2.296
   32       -0.020  -0.015  -2.401  -2.436
   33        0.013   0.023   2.267   2.302
   34        0.024   0.018   2.406   2.448
   35       -0.013  -0.020  -2.222  -2.255
   36        0.019   0.017   2.356   2.392
   37       -0.021  -0.021  -2.383  -2.425
   38       -0.018  -0.019  -2.382  -2.420
   39        0.015   0.019   2.295   2.329
   40       -0.010  -0.009  -2.327  -2.346
   41       -0.016  -0.023  -2.370  -2.409
   42        0.016   0.015   2.306   2.337
   43       -0.021  -0.021  -2.378  -2.420
   44       -0.018  -0.018  -2.380  -2.417
   45        0.014   0.019   2.288   2.321
   46       -0.021  -0.020  -2.382  -2.424
   47       -0.018  -0.019  -2.364  -2.401
   48        0.014   0.019   2.274   2.307
   49       -0.010  -0.009  -2.328  -2.347
   50       -0.016  -0.023  -2.362  -2.401
   51        0.016   0.015   2.296   2.327
   52       -0.021  -0.021  -2.384  -2.426
   53       -0.018  -0.019  -2.363  -2.399
   54        0.014   0.019   2.271   2.304
--------------------------------------------------
tot          0.016   0.063 -11.968 -11.889
 

 total amount of memory used by VASP MPI-rank0   815466. kBytes
=======================================================================

   base      :      30000. kBytes
   nonl-proj :      28494. kBytes
   fftplans  :      31580. kBytes
   grid      :      21385. kBytes
   one-center:        435. kBytes
   wavefun   :     703572. kBytes
 
  
  
 General timing and accounting informations for this job:
 ========================================================
  
                  Total CPU time used (sec):     1650.303
                            User time (sec):     1625.253
                          System time (sec):       25.050
                         Elapsed time (sec):     1667.216
  
                   Maximum memory used (kb):      978208.
                   Average memory used (kb):           0.
  
                          Minor page faults:       658465
                          Major page faults:           22
                 Voluntary context switches:         3110
