   36   36    1    2
  0.1314651E+02  0.8250148E-09  0.8250148E-09  0.6953274E-09  0.2000000E-15
  1.000000000000000E-004
  CAR 
 AlMn_pv                                 
    180     52    110
 
  0.0000000E+00  0.0000000E+00  0.0000000E+00  0.6666667E-02
    1       -2.519774     -2.520580   1.000000   1.000000
    2       -0.368220     -0.376397   1.000000   1.000000
    3       -0.343438     -0.348610   1.000000   1.000000
    4       -0.330682     -0.322039   1.000000   1.000000
    5       -0.305144     -0.302331   1.000000   1.000000
    6       -0.122934     -0.122715   1.000000   1.000000
    7        1.356350      1.360259   1.000000   1.000000
    8        1.375828      1.376679   1.000000   1.000000
    9        1.395287      1.389239   1.000000   1.000000
   10        1.402544      1.414761   1.000000   1.000000
   11        1.434244      1.422310   1.000000   1.000000
   12        1.561749      1.566439   1.000000   1.000000
   13        1.564433      1.573508   1.000000   1.000000
   14        1.611305      1.604951   1.000000   1.000000
   15        1.628490      1.619309   1.000000   1.000000
   16        2.735188      2.740444   1.000000   1.000000
   17        2.758321      2.754319   1.000000   1.000000
   18        2.815169      2.823705   1.000000   1.000000
   19        2.824379      2.827380   1.000000   1.000000
   20        3.494860      3.455939   1.000000   1.000000
   21        3.524575      3.537860   1.000000   1.000000
   22        3.573277      3.587438   1.000000   1.000000
   23        3.625187      3.623944   1.000000   1.000000
   24        4.080912      4.108640   1.000000   1.000000
   25        4.232770      4.197012   1.000000   1.000000
   26        4.368906      4.342776   1.000000   1.000000
   27        4.505976      4.504803   1.000000   1.000000
   28        4.517745      4.526432   1.000000   1.000000
   29        4.567509      4.571054   1.000000   1.000000
   30        4.661741      4.586090   1.000000   1.000000
   31        4.674109      4.670650   1.000000   1.000000
   32        4.718113      4.742130   1.000000   1.000000
   33        4.771593      4.781886   1.000000   1.000000
   34        4.780361      4.794228   1.000000   1.000000
   35        4.874470      4.848928   1.000000   1.000000
   36        4.877967      4.898976   1.000000   1.000000
   37        4.931483      4.914159   1.000000   1.000000
   38        4.931803      4.944776   1.000000   1.000000
   39        5.044085      5.050986   1.000000   1.000000
   40        5.081057      5.189435   1.000000   1.000000
   41        5.289393      5.297748   1.000000   1.000000
   42        5.289526      5.321097   1.000000   1.000000
   43        5.345800      5.354097   1.000000   1.000000
   44        5.402818      5.358375   1.000000   1.000000
   45        5.443833      5.382653   1.000000   1.000000
   46        5.443888      5.419978   1.000000   1.000000
   47        5.470578      5.476966   1.000000   1.000000
   48        5.514077      5.542912   1.000000   1.000000
   49        5.599006      5.592683   1.000000   1.000000
   50        5.665535      5.621905   1.000000   1.000000
   51        5.699690      5.640950   1.000000   1.000000
   52        5.723929      5.693021   1.000000   1.000000
   53        5.747566      5.748107   1.000000   1.000000
   54        5.794139      5.813397   1.000000   1.000000
   55        5.816364      5.869179   1.000000   1.000000
   56        5.854914      5.878736   1.000000   1.000000
   57        5.944020      5.945520   1.000000   1.000000
   58        6.175395      5.974148   1.000000   1.000000
   59        6.178395      6.209653   1.000000   1.000000
   60        6.253724      6.250265   1.000000   1.000000
   61        6.295218      6.264073   1.000000   1.000000
   62        6.375801      6.408375   1.000000   1.000000
   63        6.389742      6.439499   1.000000   1.000000
   64        6.405614      6.449449   1.000000   1.000000
   65        6.418214      6.506921   1.000000   1.000000
   66        6.440573      6.507145   1.000000   1.000000
   67        6.510149      6.542836   1.000000   1.000000
   68        6.544366      6.570794   1.000000   1.000000
   69        6.623170      6.592381   1.000000   1.000000
   70        6.646581      6.652832   1.000000   1.000000
   71        6.657958      6.665237   1.000000   1.000000
   72        6.716415      6.699436   1.000000   1.000000
   73        6.748717      6.699649   1.000000   1.000000
   74        6.766135      6.735667   1.000000   1.000000
   75        6.794581      6.739493   1.000000   1.000000
   76        6.841710      6.786486   1.000000   1.000000
   77        6.905209      6.901064   1.000000   1.000000
   78        6.961014      6.950011   1.000000   1.000000
   79        6.980433      6.973343   1.000000   1.000000
   80        7.096527      7.063206   1.000020   1.000007
   81        7.192292      7.242986   1.000297   1.001011
   82        7.245678      7.286243   1.001073   1.002554
   83        7.300739      7.299566   1.003398   1.003320
   84        7.336540      7.358630   1.006503   1.009309
   85        7.406741      7.392003   1.018055   1.015014
   86        7.506984      7.457062   1.035425   1.029409
   87        7.529363      7.541970   1.032550   1.028423
   88        7.597298      7.605967   0.978615   0.964978
   89        7.751566      7.620814   0.489290   0.937592
   90        7.764900      7.745894   0.433083   0.513202
   91        7.815349      7.928004   0.235821  -0.010584
   92        7.839146      7.959294   0.158253  -0.029697
   93        7.843127      7.963120   0.146620  -0.031146
   94        8.011794      8.041187  -0.034379  -0.029297
   95        8.059288      8.060643  -0.025277  -0.025006
   96        8.074385      8.088527  -0.021838  -0.018628
   97        8.170505      8.218311  -0.005484  -0.002209
   98        8.205845      8.270548  -0.002858  -0.000661
   99        8.283636      8.318736  -0.000502  -0.000203
  100        8.298393      8.391326  -0.000350  -0.000013
  101        8.318274      8.447926  -0.000204  -0.000004
  102        8.490331      8.496948  -0.000001  -0.000001
  103        8.604915      8.515980  -0.000000  -0.000000
  104        8.661697      8.648675  -0.000000  -0.000000
  105        8.688389      8.669583  -0.000000  -0.000000
  106        8.735714      8.725051  -0.000000  -0.000000
  107        8.748027      8.782672  -0.000000  -0.000000
  108        8.785453      8.832950  -0.000000  -0.000000
  109        8.853588      8.868817  -0.000000  -0.000000
  110        8.861142      8.879824  -0.000000  -0.000000
 
  0.2000000E+00  0.0000000E+00  0.0000000E+00  0.1333333E-01
    1       -2.429269     -2.430069   1.000000   1.000000
    2       -1.103142     -1.104354   1.000000   1.000000
    3       -0.276734     -0.264767   1.000000   1.000000
    4       -0.231696     -0.244277   1.000000   1.000000
    5       -0.057115     -0.056926   1.000000   1.000000
    6        0.566996      0.566696   1.000000   1.000000
    7        0.882733      0.883112   1.000000   1.000000
    8        0.917366      0.928136   1.000000   1.000000
    9        0.950751      0.938597   1.000000   1.000000
   10        1.441664      1.434028   1.000000   1.000000
   11        1.466296      1.480013   1.000000   1.000000
   12        1.490564      1.486862   1.000000   1.000000
   13        1.926150      1.924500   1.000000   1.000000
   14        2.314995      2.301909   1.000000   1.000000
   15        2.322113      2.322066   1.000000   1.000000
   16        2.326912      2.331804   1.000000   1.000000
   17        2.330742      2.343735   1.000000   1.000000
   18        2.835207      2.829417   1.000000   1.000000
   19        3.212822      3.220652   1.000000   1.000000
   20        3.291936      3.284961   1.000000   1.000000
   21        3.578829      3.588992   1.000000   1.000000
   22        3.658487      3.644300   1.000000   1.000000
   23        3.742134      3.738658   1.000000   1.000000
   24        4.062118      4.085210   1.000000   1.000000
   25        4.179224      4.151868   1.000000   1.000000
   26        4.309969      4.302896   1.000000   1.000000
   27        4.333088      4.316141   1.000000   1.000000
   28        4.476401      4.465151   1.000000   1.000000
   29        4.575744      4.558570   1.000000   1.000000
   30        4.586257      4.578104   1.000000   1.000000
   31        4.600729      4.605031   1.000000   1.000000
   32        4.616375      4.615362   1.000000   1.000000
   33        4.674664      4.681546   1.000000   1.000000
   34        4.743402      4.725473   1.000000   1.000000
   35        4.851977      4.871010   1.000000   1.000000
   36        4.916747      4.951260   1.000000   1.000000
   37        4.990470      4.998847   1.000000   1.000000
   38        4.991419      5.027886   1.000000   1.000000
   39        5.074196      5.070126   1.000000   1.000000
   40        5.077968      5.075225   1.000000   1.000000
   41        5.141611      5.156267   1.000000   1.000000
   42        5.263014      5.298743   1.000000   1.000000
   43        5.305322      5.335371   1.000000   1.000000
   44        5.379836      5.371619   1.000000   1.000000
   45        5.422602      5.374531   1.000000   1.000000
   46        5.431900      5.411205   1.000000   1.000000
   47        5.491687      5.470872   1.000000   1.000000
   48        5.511396      5.547019   1.000000   1.000000
   49        5.585342      5.579260   1.000000   1.000000
   50        5.670879      5.642985   1.000000   1.000000
   51        5.727011      5.643643   1.000000   1.000000
   52        5.762296      5.730177   1.000000   1.000000
   53        5.794154      5.835249   1.000000   1.000000
   54        5.867449      5.871596   1.000000   1.000000
   55        5.893534      5.878571   1.000000   1.000000
   56        5.923681      5.955480   1.000000   1.000000
   57        5.963233      5.973167   1.000000   1.000000
   58        6.168194      5.974157   1.000000   1.000000
   59        6.184502      6.221687   1.000000   1.000000
   60        6.276121      6.233496   1.000000   1.000000
   61        6.288889      6.304951   1.000000   1.000000
   62        6.337655      6.323459   1.000000   1.000000
   63        6.385724      6.374543   1.000000   1.000000
   64        6.389102      6.414899   1.000000   1.000000
   65        6.411811      6.439176   1.000000   1.000000
   66        6.425980      6.491758   1.000000   1.000000
   67        6.498090      6.540354   1.000000   1.000000
   68        6.544108      6.604631   1.000000   1.000000
   69        6.559791      6.628705   1.000000   1.000000
   70        6.622695      6.634407   1.000000   1.000000
   71        6.654369      6.668946   1.000000   1.000000
   72        6.655028      6.679456   1.000000   1.000000
   73        6.720567      6.707202   1.000000   1.000000
   74        6.778406      6.724012   1.000000   1.000000
   75        6.785917      6.743498   1.000000   1.000000
   76        6.793661      6.784487   1.000000   1.000000
   77        6.861299      6.808597   1.000000   1.000000
   78        6.932421      6.879511   1.000000   1.000000
   79        7.008039      7.018942   1.000001   1.000002
   80        7.052522      7.071380   1.000005   1.000009
   81        7.106554      7.134854   1.000027   1.000062
   82        7.256335      7.223019   1.001361   1.000635
   83        7.266623      7.245672   1.001700   1.001074
   84        7.360992      7.345623   1.009652   1.007567
   85        7.408845      7.403209   1.018510   1.017297
   86        7.465723      7.438199   1.031151   1.025194
   87        7.492863      7.551696   1.035013   1.023691
   88        7.618529      7.611389   0.942132   0.955578
   89        7.749088      7.648704   0.499774   0.870976
   90        7.753802      7.811285   0.479850   0.250173
   91        7.810754      7.938005   0.252148  -0.018442
   92        7.834486      7.950499   0.172489  -0.025900
   93        7.905501      7.986219   0.014630  -0.035213
   94        8.013065      8.020381  -0.034232  -0.033213
   95        8.054285      8.119228  -0.026463  -0.012534
   96        8.092622      8.142692  -0.017765  -0.008834
   97        8.183897      8.170858  -0.004322  -0.005504
   98        8.200202      8.234627  -0.003209  -0.001584
   99        8.232192      8.240337  -0.001668  -0.001400
  100        8.313875      8.350140  -0.000241  -0.000088
  101        8.325900      8.420253  -0.000173  -0.000011
  102        8.458597      8.440836  -0.000003  -0.000005
  103        8.538839      8.542429  -0.000000  -0.000000
  104        8.633463      8.560422  -0.000000  -0.000000
  105        8.683672      8.703680  -0.000000  -0.000000
  106        8.735629      8.830146  -0.000000  -0.000000
  107        8.841486      8.866781  -0.000000  -0.000000
  108        8.847149      8.911542  -0.000000  -0.000000
  109        8.926475      8.950109  -0.000000  -0.000000
  110        9.024284      8.995316  -0.000000  -0.000000
 
  0.4000000E+00  0.0000000E+00  0.0000000E+00  0.1333333E-01
    1       -2.159553     -2.160284   1.000000   1.000000
    2       -1.713927     -1.715004   1.000000   1.000000
    3       -0.030996     -0.018200   1.000000   1.000000
    4        0.012137     -0.000080   1.000000   1.000000
    5        0.137901      0.137909   1.000000   1.000000
    6        0.374309      0.383975   1.000000   1.000000
    7        0.413854      0.400709   1.000000   1.000000
    8        0.456955      0.457384   1.000000   1.000000
    9        1.578085      1.580734   1.000000   1.000000
   10        1.626139      1.617623   1.000000   1.000000
   11        1.648553      1.659527   1.000000   1.000000
   12        1.769125      1.764303   1.000000   1.000000
   13        1.931198      1.928342   1.000000   1.000000
   14        1.944518      1.961229   1.000000   1.000000
   15        2.234013      2.227964   1.000000   1.000000
   16        2.337432      2.334500   1.000000   1.000000
   17        2.680757      2.679101   1.000000   1.000000
   18        2.943866      2.933135   1.000000   1.000000
   19        3.022787      3.027934   1.000000   1.000000
   20        3.548943      3.547563   1.000000   1.000000
   21        3.734440      3.719912   1.000000   1.000000
   22        3.764006      3.770753   1.000000   1.000000
   23        3.817537      3.800154   1.000000   1.000000
   24        3.988401      3.994167   1.000000   1.000000
   25        4.020510      4.020428   1.000000   1.000000
   26        4.136664      4.138530   1.000000   1.000000
   27        4.209420      4.192818   1.000000   1.000000
   28        4.282118      4.272213   1.000000   1.000000
   29        4.322645      4.349663   1.000000   1.000000
   30        4.439402      4.439423   1.000000   1.000000
   31        4.477214      4.484370   1.000000   1.000000
   32        4.544375      4.546177   1.000000   1.000000
   33        4.717541      4.687265   1.000000   1.000000
   34        4.779241      4.731216   1.000000   1.000000
   35        4.843965      4.869301   1.000000   1.000000
   36        4.875049      4.921853   1.000000   1.000000
   37        4.995515      5.001740   1.000000   1.000000
   38        5.070026      5.053049   1.000000   1.000000
   39        5.078699      5.084825   1.000000   1.000000
   40        5.124695      5.208222   1.000000   1.000000
   41        5.184390      5.222586   1.000000   1.000000
   42        5.245064      5.297141   1.000000   1.000000
   43        5.311137      5.320592   1.000000   1.000000
   44        5.365934      5.321732   1.000000   1.000000
   45        5.404935      5.417400   1.000000   1.000000
   46        5.417115      5.420519   1.000000   1.000000
   47        5.509245      5.463082   1.000000   1.000000
   48        5.531928      5.477776   1.000000   1.000000
   49        5.635033      5.575386   1.000000   1.000000
   50        5.667922      5.647885   1.000000   1.000000
   51        5.708761      5.653922   1.000000   1.000000
   52        5.746069      5.751955   1.000000   1.000000
   53        5.752062      5.819864   1.000000   1.000000
   54        5.932186      5.861254   1.000000   1.000000
   55        5.968031      5.958631   1.000000   1.000000
   56        5.972297      5.966219   1.000000   1.000000
   57        6.112375      6.007369   1.000000   1.000000
   58        6.165637      6.150079   1.000000   1.000000
   59        6.190206      6.172933   1.000000   1.000000
   60        6.228379      6.192661   1.000000   1.000000
   61        6.239007      6.222488   1.000000   1.000000
   62        6.279986      6.248141   1.000000   1.000000
   63        6.326807      6.267769   1.000000   1.000000
   64        6.340118      6.353963   1.000000   1.000000
   65        6.381508      6.422960   1.000000   1.000000
   66        6.383905      6.481267   1.000000   1.000000
   67        6.446308      6.496943   1.000000   1.000000
   68        6.465982      6.510055   1.000000   1.000000
   69        6.495698      6.613442   1.000000   1.000000
   70        6.547445      6.624885   1.000000   1.000000
   71        6.663337      6.667816   1.000000   1.000000
   72        6.687229      6.680847   1.000000   1.000000
   73        6.731295      6.728133   1.000000   1.000000
   74        6.737741      6.733187   1.000000   1.000000
   75        6.794273      6.765004   1.000000   1.000000
   76        6.814255      6.777254   1.000000   1.000000
   77        6.840995      6.793486   1.000000   1.000000
   78        6.871865      6.828006   1.000000   1.000000
   79        6.982681      6.989501   1.000000   1.000001
   80        7.033348      7.049702   1.000003   1.000004
   81        7.072898      7.094805   1.000009   1.000019
   82        7.213443      7.246513   1.000504   1.001095
   83        7.227858      7.247659   1.000712   1.001123
   84        7.407839      7.296608   1.018285   1.003135
   85        7.420380      7.376855   1.021078   1.012204
   86        7.465581      7.439882   1.031137   1.025578
   87        7.528760      7.622915   1.032706   0.933157
   88        7.630559      7.653986   0.916574   0.856253
   89        7.725239      7.659823   0.599915   0.839083
   90        7.793107      7.807034   0.318444   0.265637
   91        7.807385      7.840895   0.264467   0.153048
   92        7.846432      7.971608   0.137201  -0.033222
   93        7.915393      7.983953   0.002275  -0.035047
   94        7.943275      8.008765  -0.021852  -0.034699
   95        8.000213      8.041139  -0.035317  -0.029354
   96        8.076653      8.143653  -0.021311  -0.008714
   97        8.108703      8.192528  -0.014494  -0.003707
   98        8.200299      8.193861  -0.003207  -0.003627
   99        8.234307      8.249540  -0.001601  -0.001140
  100        8.324296      8.280495  -0.000183  -0.000555
  101        8.334050      8.356034  -0.000141  -0.000077
  102        8.371997      8.384234  -0.000048  -0.000034
  103        8.391372      8.437936  -0.000027  -0.000006
  104        8.545266      8.515744  -0.000000  -0.000000
  105        8.659697      8.721798  -0.000000  -0.000000
  106        8.708625      8.727740  -0.000000  -0.000000
  107        8.869745      8.923607  -0.000000  -0.000000
  108        8.914018      8.938814  -0.000000  -0.000000
  109        8.958342      9.070828  -0.000000  -0.000000
  110        9.069978      9.098166  -0.000000  -0.000000
 
  0.0000000E+00  0.2000000E+00  0.0000000E+00  0.1333333E-01
    1       -2.429256     -2.430051   1.000000   1.000000
    2       -1.103384     -1.103962   1.000000   1.000000
    3       -0.268058     -0.280582   1.000000   1.000000
    4       -0.240117     -0.228753   1.000000   1.000000
    5       -0.057085     -0.056770   1.000000   1.000000
    6        0.566254      0.567072   1.000000   1.000000
    7        0.882658      0.884593   1.000000   1.000000
    8        0.928614      0.916263   1.000000   1.000000
    9        0.940456      0.950363   1.000000   1.000000
   10        1.421369      1.430035   1.000000   1.000000
   11        1.489624      1.479305   1.000000   1.000000
   12        1.490769      1.487197   1.000000   1.000000
   13        1.922754      1.927074   1.000000   1.000000
   14        2.293665      2.303219   1.000000   1.000000
   15        2.310038      2.319221   1.000000   1.000000
   16        2.341988      2.329290   1.000000   1.000000
   17        2.350472      2.344944   1.000000   1.000000
   18        2.833738      2.829064   1.000000   1.000000
   19        3.223886      3.213061   1.000000   1.000000
   20        3.269837      3.296391   1.000000   1.000000
   21        3.581669      3.559932   1.000000   1.000000
   22        3.659142      3.670577   1.000000   1.000000
   23        3.744446      3.745442   1.000000   1.000000
   24        4.062641      4.087869   1.000000   1.000000
   25        4.194766      4.162702   1.000000   1.000000
   26        4.292943      4.285991   1.000000   1.000000
   27        4.334481      4.316455   1.000000   1.000000
   28        4.431379      4.439170   1.000000   1.000000
   29        4.560998      4.551274   1.000000   1.000000
   30        4.566646      4.591460   1.000000   1.000000
   31        4.642387      4.604678   1.000000   1.000000
   32        4.676030      4.637366   1.000000   1.000000
   33        4.691232      4.677021   1.000000   1.000000
   34        4.741530      4.754976   1.000000   1.000000
   35        4.844680      4.904174   1.000000   1.000000
   36        4.894067      4.951353   1.000000   1.000000
   37        4.985131      4.991792   1.000000   1.000000
   38        5.022934      5.042796   1.000000   1.000000
   39        5.044228      5.060423   1.000000   1.000000
   40        5.066260      5.061968   1.000000   1.000000
   41        5.153786      5.146708   1.000000   1.000000
   42        5.303951      5.297738   1.000000   1.000000
   43        5.321775      5.302744   1.000000   1.000000
   44        5.349046      5.359676   1.000000   1.000000
   45        5.402424      5.393478   1.000000   1.000000
   46        5.456433      5.400063   1.000000   1.000000
   47        5.490263      5.503154   1.000000   1.000000
   48        5.566602      5.549485   1.000000   1.000000
   49        5.649223      5.619009   1.000000   1.000000
   50        5.697931      5.633058   1.000000   1.000000
   51        5.742298      5.671334   1.000000   1.000000
   52        5.756120      5.708434   1.000000   1.000000
   53        5.799224      5.814153   1.000000   1.000000
   54        5.835918      5.832235   1.000000   1.000000
   55        5.848097      5.870864   1.000000   1.000000
   56        5.885146      5.917430   1.000000   1.000000
   57        5.983812      5.931939   1.000000   1.000000
   58        6.132866      5.999601   1.000000   1.000000
   59        6.149276      6.205181   1.000000   1.000000
   60        6.236631      6.261466   1.000000   1.000000
   61        6.251225      6.304037   1.000000   1.000000
   62        6.331172      6.311897   1.000000   1.000000
   63        6.351054      6.358222   1.000000   1.000000
   64        6.373273      6.386825   1.000000   1.000000
   65        6.390492      6.478237   1.000000   1.000000
   66        6.448674      6.479988   1.000000   1.000000
   67        6.458922      6.513896   1.000000   1.000000
   68        6.495334      6.533141   1.000000   1.000000
   69        6.506341      6.563481   1.000000   1.000000
   70        6.573718      6.638690   1.000000   1.000000
   71        6.664262      6.643393   1.000000   1.000000
   72        6.727562      6.694206   1.000000   1.000000
   73        6.735854      6.715575   1.000000   1.000000
   74        6.803302      6.738056   1.000000   1.000000
   75        6.815030      6.789841   1.000000   1.000000
   76        6.827762      6.814184   1.000000   1.000000
   77        6.875158      6.857767   1.000000   1.000000
   78        6.915160      6.933440   1.000000   1.000000
   79        6.980544      6.985036   1.000000   1.000000
   80        7.048319      7.008531   1.000004   1.000001
   81        7.137650      7.160148   1.000068   1.000127
   82        7.206682      7.261048   1.000427   1.001509
   83        7.357983      7.325211   1.009217   1.005341
   84        7.407512      7.413987   1.018215   1.019647
   85        7.417158      7.427529   1.020356   1.022721
   86        7.493580      7.480098   1.035063   1.033592
   87        7.536860      7.543331   1.030331   1.027839
   88        7.584266      7.608292   0.995880   0.961036
   89        7.734578      7.662771   0.560983   0.830116
   90        7.736373      7.807947   0.553527   0.262294
   91        7.840376      7.845477   0.154671   0.139492
   92        7.851137      7.922083   0.124163  -0.004918
   93        7.910544      7.971506   0.008046  -0.033215
   94        7.997718      8.035270  -0.035406  -0.030570
   95        8.098938      8.089664  -0.016417  -0.018367
   96        8.164301      8.134825  -0.006175  -0.009956
   97        8.197226      8.256859  -0.003362  -0.000950
   98        8.242335      8.259851  -0.001333  -0.000893
   99        8.275817      8.308165  -0.000621  -0.000271
  100        8.328764      8.389652  -0.000159  -0.000028
  101        8.356921      8.424840  -0.000073  -0.000009
  102        8.461645      8.443236  -0.000003  -0.000004
  103        8.524788      8.546005  -0.000000  -0.000000
  104        8.592386      8.561776  -0.000000  -0.000000
  105        8.662455      8.629245  -0.000000  -0.000000
  106        8.665806      8.702085  -0.000000  -0.000000
  107        8.717230      8.806116  -0.000000  -0.000000
  108        8.876675      8.839884  -0.000000  -0.000000
  109        8.952520      8.975132  -0.000000  -0.000000
  110        9.002859      9.014330  -0.000000  -0.000000
 
  0.2000000E+00  0.2000000E+00  0.0000000E+00  0.1333333E-01
    1       -2.339017     -2.339828   1.000000   1.000000
    2       -1.029688     -1.026020   1.000000   1.000000
    3       -1.004929     -1.010202   1.000000   1.000000
    4        0.008609      0.008903   1.000000   1.000000
    5        0.226070      0.225983   1.000000   1.000000
    6        0.634975      0.639627   1.000000   1.000000
    7        0.658888      0.653483   1.000000   1.000000
    8        0.939153      0.936387   1.000000   1.000000
    9        0.954450      0.959542   1.000000   1.000000
   10        1.584592      1.580596   1.000000   1.000000
   11        1.723479      1.725502   1.000000   1.000000
   12        1.772184      1.768275   1.000000   1.000000
   13        1.842672      1.840947   1.000000   1.000000
   14        1.979048      1.985250   1.000000   1.000000
   15        2.001185      2.001205   1.000000   1.000000
   16        2.798435      2.802842   1.000000   1.000000
   17        2.864516      2.867276   1.000000   1.000000
   18        2.875450      2.869193   1.000000   1.000000
   19        2.889137      2.888006   1.000000   1.000000
   20        2.943176      2.940846   1.000000   1.000000
   21        3.655718      3.657867   1.000000   1.000000
   22        3.783712      3.785081   1.000000   1.000000
   23        3.796506      3.790806   1.000000   1.000000
   24        3.853263      3.859141   1.000000   1.000000
   25        4.146764      4.112778   1.000000   1.000000
   26        4.326224      4.321758   1.000000   1.000000
   27        4.347725      4.350307   1.000000   1.000000
   28        4.370508      4.377879   1.000000   1.000000
   29        4.411714      4.448654   1.000000   1.000000
   30        4.483930      4.457549   1.000000   1.000000
   31        4.485061      4.488748   1.000000   1.000000
   32        4.636124      4.610142   1.000000   1.000000
   33        4.656498      4.678185   1.000000   1.000000
   34        4.790669      4.774782   1.000000   1.000000
   35        4.803577      4.792606   1.000000   1.000000
   36        4.858164      4.896538   1.000000   1.000000
   37        4.922260      4.938914   1.000000   1.000000
   38        4.947017      4.982416   1.000000   1.000000
   39        5.089774      5.097267   1.000000   1.000000
   40        5.194260      5.116225   1.000000   1.000000
   41        5.251403      5.233402   1.000000   1.000000
   42        5.252486      5.305311   1.000000   1.000000
   43        5.303757      5.339029   1.000000   1.000000
   44        5.321165      5.344271   1.000000   1.000000
   45        5.396436      5.409522   1.000000   1.000000
   46        5.457009      5.442821   1.000000   1.000000
   47        5.523387      5.476932   1.000000   1.000000
   48        5.555961      5.549986   1.000000   1.000000
   49        5.692445      5.627831   1.000000   1.000000
   50        5.715751      5.661813   1.000000   1.000000
   51        5.762457      5.705471   1.000000   1.000000
   52        5.855138      5.771249   1.000000   1.000000
   53        5.857620      5.833231   1.000000   1.000000
   54        5.865707      5.857622   1.000000   1.000000
   55        5.894243      5.906764   1.000000   1.000000
   56        5.940719      5.929631   1.000000   1.000000
   57        5.941234      5.986145   1.000000   1.000000
   58        6.149156      6.022512   1.000000   1.000000
   59        6.167563      6.191102   1.000000   1.000000
   60        6.211132      6.215338   1.000000   1.000000
   61        6.263161      6.269862   1.000000   1.000000
   62        6.287089      6.269907   1.000000   1.000000
   63        6.354745      6.403707   1.000000   1.000000
   64        6.386939      6.425637   1.000000   1.000000
   65        6.405456      6.445893   1.000000   1.000000
   66        6.443154      6.446203   1.000000   1.000000
   67        6.451085      6.533494   1.000000   1.000000
   68        6.466605      6.577573   1.000000   1.000000