       N       E                     dE             d eps       ncg     rms          ort
DAV:   1     0.135230352086E+04    0.13523E+04   -0.58480E+04  5720   0.144E+03
DAV:   2    -0.561075612199E+02   -0.14084E+04   -0.13790E+04  5720   0.446E+02
DAV:   3    -0.236807043785E+03   -0.18070E+03   -0.16358E+03  5720   0.172E+02
DAV:   4    -0.265725328097E+03   -0.28918E+02   -0.25947E+02  5720   0.748E+01
DAV:   5    -0.269043743321E+03   -0.33184E+01   -0.31550E+01  5720   0.223E+01
DAV:   6    -0.269330875552E+03   -0.28713E+00   -0.27849E+00  5720   0.565E+00
DAV:   7    -0.269363783417E+03   -0.32908E-01   -0.32290E-01  5720   0.170E+00
DAV:   8    -0.269367401736E+03   -0.36183E-02   -0.35705E-02  5720   0.465E-01
SDA:   9    -0.623324893891E+02    0.20703E+03   -0.35705E-02  5720   0.231E+04 0.000E+00
CGA:  10    -0.208298071127E+03   -0.14597E+03   -0.14689E+03  5720   0.118E+03 0.365E+03
CGA:  11    -0.217873349690E+03   -0.95753E+01   -0.95354E+01  5720   0.579E+02 0.154E+01
CGA:  12    -0.226698904385E+03   -0.88256E+01   -0.88508E+01  5720   0.947E+02 0.172E+00
CGA:  13    -0.232835986575E+03   -0.61371E+01   -0.62383E+01  5720   0.131E+02 0.391E+00
CGA:  14    -0.233810663060E+03   -0.97468E+00   -0.98763E+00  5720   0.540E+01-0.876E-01
CGA:  15    -0.234590299849E+03   -0.77964E+00   -0.78041E+00  5720   0.648E+01 0.104E-01
CGA:  16    -0.235152640816E+03   -0.56234E+00   -0.56466E+00  5720   0.199E+01-0.574E-02
CGA:  17    -0.235316453594E+03   -0.16381E+00   -0.16409E+00  5720   0.140E+01-0.503E-03
CGA:  18    -0.235500708656E+03   -0.18426E+00   -0.18421E+00  5720   0.145E+01-0.119E-02
CGA:  19    -0.235622007152E+03   -0.12130E+00   -0.12215E+00  5720   0.615E+00-0.601E-02
CGA:  20    -0.235672080149E+03   -0.50073E-01   -0.50265E-01  5720   0.358E+00-0.150E-02
CGA:  21    -0.235738079964E+03   -0.66000E-01   -0.65959E-01  5720   0.533E+00 0.813E-03
CGA:  22    -0.235787355636E+03   -0.49276E-01   -0.49352E-01  5720   0.213E+00-0.509E-03
CGA:  23    -0.235806618479E+03   -0.19263E-01   -0.19249E-01  5720   0.133E+00-0.177E-03
CGA:  24    -0.235825752254E+03   -0.19134E-01   -0.19132E-01  5720   0.171E+00-0.348E-03
CGA:  25    -0.235845140684E+03   -0.19388E-01   -0.19387E-01  5720   0.114E+00-0.358E-03
CGA:  26    -0.235856153414E+03   -0.11013E-01   -0.11007E-01  5720   0.984E-01-0.212E-03
CGA:  27    -0.235870776237E+03   -0.14623E-01   -0.14623E-01  5720   0.806E-01-0.128E-03
CGA:  28    -0.235879485748E+03   -0.87095E-02   -0.87006E-02  5720   0.341E-01 0.441E-04
CGA:  29    -0.235882889610E+03   -0.34039E-02   -0.34051E-02  5720   0.317E-01 0.769E-04
CGA:  30    -0.235887364344E+03   -0.44747E-02   -0.44747E-02  5720   0.361E-01 0.748E-04
CGA:  31    -0.235891476678E+03   -0.41123E-02   -0.41142E-02  5720   0.204E-01 0.105E-03
CGA:  32    -0.235893590013E+03   -0.21133E-02   -0.21147E-02  5720   0.174E-01 0.642E-04
CGA:  33    -0.235896192453E+03   -0.26024E-02   -0.26014E-02  5720   0.155E-01 0.976E-04
CGA:  34    -0.235897962535E+03   -0.17701E-02   -0.17719E-02  5720   0.822E-02 0.956E-04
CGA:  35    -0.235898696861E+03   -0.73433E-03   -0.73679E-03  5720   0.561E-02 0.541E-04
CGA:  36    -0.235899482942E+03   -0.78608E-03   -0.78585E-03  5720   0.636E-02 0.530E-04
CGA:  37    -0.235900258203E+03   -0.77526E-03   -0.77581E-03  5720   0.469E-02 0.343E-04
CGA:  38    -0.235900899230E+03   -0.64103E-03   -0.64100E-03  5720   0.371E-02 0.167E-04
CGA:  39    -0.235901287033E+03   -0.38780E-03   -0.38814E-03  5720   0.251E-02 0.123E-04
SDA:  40    -0.235901542163E+03   -0.25513E-03   -0.25546E-03  5720   0.135E-02 0.950E-05
CGA:  41    -0.235901668773E+03   -0.12661E-03   -0.12647E-03  5720   0.163E-02-0.405E-05
CGA:  42    -0.235901884954E+03   -0.21618E-03   -0.21623E-03  5720   0.964E-03-0.130E-04
CGA:  43    -0.235901987930E+03   -0.10298E-03   -0.10277E-03  5720   0.931E-03-0.964E-05
CGA:  44    -0.235902162590E+03   -0.17466E-03   -0.17585E-03  5720   0.602E-03-0.194E-04
CGA:  45    -0.235902213593E+03   -0.51003E-04   -0.50815E-04  5720   0.418E-03-0.406E-05
CGA:  46    -0.235902322355E+03   -0.10876E-03   -0.10943E-03  5720   0.818E-03-0.519E-05
CGA:  47    -0.235902386000E+03   -0.63645E-04   -0.63465E-04  5720   0.281E-03-0.281E-05
CGA:  48    -0.235902436743E+03   -0.50743E-04   -0.50880E-04  5720   0.615E-03-0.271E-05
CGA:  49    -0.235902500045E+03   -0.63302E-04   -0.63235E-04  5720   0.283E-03-0.156E-05
CGA:  50    -0.235902530425E+03   -0.30381E-04   -0.30471E-04  5720   0.219E-03 0.344E-05
CGA:  51    -0.235902551583E+03   -0.21158E-04   -0.21304E-04  5720   0.112E-03 0.421E-05
CGA:  52    -0.235902569470E+03   -0.17887E-04   -0.17844E-04  5720   0.146E-03 0.179E-05
CGA:  53    -0.235902590005E+03   -0.20535E-04   -0.20535E-04  5720   0.660E-04 0.108E-06
CGA:  54    -0.235902599041E+03   -0.90363E-05   -0.90337E-05  5720   0.127E-03 0.597E-06
CGA:  55    -0.235902614480E+03   -0.15439E-04   -0.15456E-04  5720   0.421E-04 0.152E-05
CGA:  56    -0.235902617607E+03   -0.31266E-05   -0.31293E-05  5720   0.195E-04 0.138E-07
CGA:  57    -0.235902622839E+03   -0.52320E-05   -0.53530E-05  5720   0.592E-04-0.839E-06
CGA:  58    -0.235902628446E+03   -0.56075E-05   -0.55716E-05  5720   0.130E-04-0.915E-06
CGA:  59    -0.235902631333E+03   -0.28869E-05   -0.29099E-05  5720   0.357E-04-0.230E-06
CGA:  60    -0.235902634334E+03   -0.30008E-05   -0.29924E-05  5720   0.127E-04-0.401E-07
CGA:  61    -0.235902635670E+03   -0.13362E-05   -0.13406E-05  5720   0.112E-04 0.140E-06
CGA:  62    -0.235902637013E+03   -0.13426E-05   -0.13462E-05  5720   0.627E-05 0.235E-06
CGA:  63    -0.235902637608E+03   -0.59568E-06   -0.59543E-06  5720   0.533E-05 0.164E-07
CGA:  64    -0.235902639138E+03   -0.15299E-05   -0.15896E-05  5720   0.125E-04-0.367E-06
CGA:  65    -0.235902639830E+03   -0.69185E-06   -0.69038E-06  5720   0.216E-05-0.320E-07
CGA:  66    -0.235902639954E+03   -0.12406E-06   -0.13762E-06  5720   0.973E-06 0.184E-06
CGA:  67    -0.235902640043E+03   -0.89023E-07   -0.97746E-07  5720   0.787E-06 0.228E-06
CGA:  68    -0.235902640140E+03   -0.96468E-07   -0.10052E-06  5720   0.132E-05 0.135E-06
CGA:  69    -0.235902640728E+03   -0.58856E-06   -0.51696E-06  5720   0.679E-05 0.352E-06
CGA:  70    -0.235902641335E+03   -0.60678E-06   -0.58707E-06  5720  -0.495E-05 0.786E-06
SDA:  71    -0.235902636246E+03    0.50891E-05    0.11579E-05  5720   0.344E-04-0.438E-04
CGA:  72    -0.235902638294E+03   -0.20479E-05   -0.20337E-05  5720   0.145E-04-0.992E-07
CGA:  73    -0.235902639991E+03   -0.16974E-05   -0.16904E-05  5720   0.612E-05-0.278E-06
CGA:  74    -0.235902640399E+03   -0.40752E-06   -0.40686E-06  5720   0.574E-06-0.199E-07
CGA:  75    -0.235902640453E+03   -0.54113E-07   -0.56103E-07  5720   0.459E-06 0.737E-07
   1 F= -.23590264E+03 E0= -.23590449E+03  d E =0.554017E-02  mag=     0.1582
