 vasp.5.4.4.18Apr17-6-g9f103f2a35 (build Dec 20 2018 12:05:58) complex          
  
 executed on             LinuxIFC date 2019.06.20  15:36:05
 running on   32 total cores
 distrk:  each k-point on    8 cores,    4 groups
 distr:  one band on NCORES_PER_BAND=   4 cores,    2 groups


--------------------------------------------------------------------------------------------------------


 INCAR:
 POTCAR:    PAW_PBE Al 04Jan2001                  
 POTCAR:    PAW_PBE Mn 06Sep2000                  

 ----------------------------------------------------------------------------- 
|                                                                             |
|           W    W    AA    RRRRR   N    N  II  N    N   GGGG   !!!           |
|           W    W   A  A   R    R  NN   N  II  NN   N  G    G  !!!           |
|           W    W  A    A  R    R  N N  N  II  N N  N  G       !!!           |
|           W WW W  AAAAAA  RRRRR   N  N N  II  N  N N  G  GGG   !            |
|           WW  WW  A    A  R   R   N   NN  II  N   NN  G    G                |
|           W    W  A    A  R    R  N    N  II  N    N   GGGG   !!!           |
|                                                                             |
|      You have enabled k-point parallelism (KPAR>1).                         |
|      This developmental code was originally  written by Paul Kent at ORNL,  |
|      and carefully double checked in Vienna.                                |
|      GW as well as linear response parallelism added by Martijn Marsman     |
|      and Georg Kresse.                                                      |
|      Carefully verify results versus KPAR=1.                                |
|      Report problems to Paul Kent and Vienna.                               |
|                                                                             |
 ----------------------------------------------------------------------------- 

 POTCAR:    PAW_PBE Al 04Jan2001                  
   VRHFIN =Al: s2p1                                                             
   LEXCH  = PE                                                                  
   EATOM  =    53.5387 eV,    3.9350 Ry                                         
                                                                                
   TITEL  = PAW_PBE Al 04Jan2001                                                
   LULTRA =        F    use ultrasoft PP ?                                      
   IUNSCR =        1    unscreen: 0-lin 1-nonlin 2-no                           
   RPACOR =    1.500    partial core radius                                     
   POMASS =   26.981; ZVAL   =    3.000    mass and valenz                      
   RCORE  =    1.900    outmost cutoff radius                                   
   RWIGS  =    2.650; RWIGS  =    1.402    wigner-seitz radius (au A)           
   ENMAX  =  240.300; ENMIN  =  180.225 eV                                      
   ICORE  =        2    local potential                                         
   LCOR   =        T    correct aug charges                                     
   LPAW   =        T    paw PP                                                  
   EAUG   =  291.052                                                            
   DEXC   =    0.000                                                            
   RMAX   =    1.939    core radius for proj-oper                               
   RAUG   =    1.300    factor for augmentation sphere                          
   RDEP   =    1.966    radius for radial grids                                 
   RDEPT  =    1.856    core radius for aug-charge                              
                                                                                
   Atomic configuration                                                         
    6 entries                                                                   
     n  l   j            E        occ.                                          
     1  0  0.50     -1511.1048   2.0000                                         
     2  0  0.50      -108.1629   2.0000                                         
     2  1  1.50       -69.6402   6.0000                                         
     3  0  0.50        -7.7528   2.0000                                         
     3  1  1.50        -2.7121   1.0000                                         
     3  2  2.50        -2.7212   0.0000                                         
   Description                                                                  
     l       E           TYP  RCUT    TYP  RCUT                                 
     0     -7.7528455     23  1.900                                             
     0     -3.3096929     23  1.900                                             
     1     -2.7120682     23  1.900                                             
     1     13.6058260     23  1.900                                             
     2     -2.7211652      7  1.900                                             
  local pseudopotential read in
  partial core-charges read in
  partial kinetic energy density read in
  atomic valenz-charges read in
  non local Contribution for L=           0  read in
    real space projection operators read in
  non local Contribution for L=           0  read in
    real space projection operators read in
  non local Contribution for L=           1  read in
    real space projection operators read in
  non local Contribution for L=           1  read in
    real space projection operators read in
    PAW grid and wavefunctions read in
 
   number of l-projection  operators is LMAX  =           4
   number of lm-projection operators is LMMAX =           8
 
 POTCAR:    PAW_PBE Mn 06Sep2000                  
   VRHFIN =Mn: d6 s1                                                            
   LEXCH  = PE                                                                  
   EATOM  =   416.7541 eV,   30.6306 Ry                                         
                                                                                
   TITEL  = PAW_PBE Mn 06Sep2000                                                
   LULTRA =        F    use ultrasoft PP ?                                      
   IUNSCR =        1    unscreen: 0-lin 1-nonlin 2-no                           
   RPACOR =    2.000    partial core radius                                     
   POMASS =   54.938; ZVAL   =    7.000    mass and valenz                      
   RCORE  =    2.300    outmost cutoff radius                                   
   RWIGS  =    2.500; RWIGS  =    1.323    wigner-seitz radius (au A)           
   ENMAX  =  269.864; ENMIN  =  202.398 eV                                      
   RCLOC  =    1.725    cutoff for local pot                                    
   LCOR   =        T    correct aug charges                                     
   LPAW   =        T    paw PP                                                  
   EAUG   =  500.711                                                            
   DEXC   =    0.000                                                            
   RMAX   =    2.343    core radius for proj-oper                               
   RAUG   =    1.300    factor for augmentation sphere                          
   RDEP   =    2.338    radius for radial grids                                 
   RDEPT  =    1.911    core radius for aug-charge                              
                                                                                
   Atomic configuration                                                         
    9 entries                                                                   
     n  l   j            E        occ.                                          
     1  0  0.50     -6424.8288   2.0000                                         
     2  0  0.50      -739.1154   2.0000                                         
     2  1  1.50      -625.3949   6.0000                                         
     3  0  0.50       -81.6100   2.0000                                         
     3  1  1.50       -50.4667   6.0000                                         
     3  2  2.50        -3.3745   6.0000                                         
     4  0  0.50        -4.1331   1.0000                                         
     4  1  0.50        -4.0817   0.0000                                         
     4  3  2.50        -1.3606   0.0000                                         
   Description                                                                  
     l       E           TYP  RCUT    TYP  RCUT                                 
     2     -3.3744664     23  2.300                                             
     2     -4.7350490     23  2.300                                             
     0     -4.1331408     23  2.300                                             
     0      7.6656614     23  2.300                                             
     1     -2.7211652     23  2.300                                             
     1     20.4087390     23  2.300                                             
  local pseudopotential read in
  partial core-charges read in
  partial kinetic energy density read in
  atomic valenz-charges read in
  non local Contribution for L=           2  read in
    real space projection operators read in
  non local Contribution for L=           2  read in
    real space projection operators read in
  non local Contribution for L=           0  read in
    real space projection operators read in
  non local Contribution for L=           0  read in
    real space projection operators read in
  non local Contribution for L=           1  read in
    real space projection operators read in
  non local Contribution for L=           1  read in
    real space projection operators read in
    PAW grid and wavefunctions read in
 
   number of l-projection  operators is LMAX  =           6
   number of lm-projection operators is LMMAX =          18
 

 ----------------------------------------------------------------------------- 
|                                                                             |
|  ADVICE TO THIS USER RUNNING 'VASP/VAMP'   (HEAR YOUR MASTER'S VOICE ...):  |
|                                                                             |
|      You have a (more or less) 'large supercell' and for larger cells       |
|      it might be more efficient to use real space projection opertators     |
|      So try LREAL= Auto  in the INCAR   file.                               |
|      Mind:          For very  accurate calculation you might also keep the  |
|      reciprocal projection scheme          (i.e. LREAL=.FALSE.)             |
|                                                                             |
 ----------------------------------------------------------------------------- 

  PAW_PBE Al 04Jan2001                  :
 energy of atom  1       EATOM=  -53.5387
 kinetic energy error for atom=    0.0005 (will be added to EATOM!!)
  PAW_PBE Mn 06Sep2000                  :
 energy of atom  2       EATOM= -416.7541
 kinetic energy error for atom=    0.0080 (will be added to EATOM!!)
 
 
 POSCAR: NewRef: 18, @ ['Mn', array([1.37502469, 
  positions in cartesian coordinates
  velocities in cartesian coordinates
  No initial velocities read in
 exchange correlation table for  LEXCH =        8
   RHO(1)=    0.500       N(1)  =     2000
   RHO(2)=  100.500       N(2)  =     4000
 


--------------------------------------------------------------------------------------------------------


 ion  position               nearest neighbor table
   1  0.000  0.000  0.000-  20 2.61  24 2.61  32 2.61  36 2.61  31 2.61  23 2.61  35 2.61  19 2.61
                             3 2.75   7 2.75   5 2.75  13 2.75
   2  0.000  0.000  0.500-  19 2.61  23 2.61  31 2.61  35 2.61  20 2.61  32 2.61  24 2.61  36 2.61
                             4 2.75   8 2.75   6 2.75  14 2.75
   3  0.000  0.333  0.000-  20 2.61  32 2.61  22 2.61  34 2.61  19 2.61  31 2.61  33 2.61  21 2.61
                             9 2.75   1 2.75   5 2.75  15 2.75
   4  0.000  0.333  0.500-  19 2.61  31 2.61  21 2.61  33 2.61  32 2.61  20 2.61  22 2.61  34 2.61
                            10 2.75   2 2.75   6 2.75  16 2.75
   5  0.000  0.667  0.000-  22 2.61  34 2.61  24 2.61  36 2.61  21 2.61  33 2.61  35 2.61  23 2.61
                             3 2.75  11 2.75   1 2.75  17 2.75
   6  0.000  0.667  0.500-  21 2.61  33 2.61  23 2.61  35 2.61  34 2.61  22 2.61  24 2.61  36 2.61
                             4 2.75  12 2.75   2 2.75  18 2.75
   7  0.333  0.000  0.000-  20 2.61  24 2.61  26 2.61  30 2.61  23 2.61  19 2.61  29 2.61  25 2.61
                            13 2.75   1 2.75   9 2.75  11 2.75
   8  0.333  0.000  0.500-  19 2.61  23 2.61  25 2.61  29 2.61  20 2.61  24 2.61  26 2.61  30 2.61
                            14 2.75   2 2.75  10 2.75  12 2.75
   9  0.333  0.333  0.000-  20 2.61  22 2.61  26 2.61  19 2.61  28 2.61  21 2.61  25 2.61  27 2.61
                             3 2.75   7 2.75  11 2.75  15 2.75
  10  0.333  0.333  0.500-  19 2.61  21 2.61  25 2.61  20 2.61  27 2.61  26 2.61  22 2.61  28 2.61
                             4 2.75   8 2.75  12 2.75  16 2.75
  11  0.333  0.667  0.000-  22 2.61  24 2.61  28 2.61  21 2.61  30 2.61  23 2.61  27 2.61  29 2.61
                            17 2.75   5 2.75   9 2.75   7 2.75
  12  0.333  0.667  0.500-  21 2.61  23 2.61  27 2.61  22 2.61  29 2.61  28 2.61  24 2.61  30 2.61
                            18 2.75   6 2.75  10 2.75   8 2.75
  13  0.667  0.000  0.000-  26 2.61  30 2.61  32 2.61  36 2.61  29 2.61  25 2.61  35 2.61  31 2.61
                             7 2.75  15 2.75   1 2.75  17 2.75
  14  0.667  0.000  0.500-  25 2.61  29 2.61  31 2.61  35 2.61  26 2.61  30 2.61  32 2.61  36 2.61
                             8 2.75  16 2.75   2 2.75  18 2.75
  15  0.667  0.333  0.000-  26 2.61  28 2.61  32 2.61  25 2.61  34 2.61  27 2.61  31 2.61  33 2.61
                            17 2.75   9 2.75  13 2.75   3 2.75
  16  0.667  0.333  0.500-  25 2.61  27 2.61  31 2.61  26 2.61  33 2.61  32 2.61  28 2.61  34 2.61
                            18 2.75  10 2.75  14 2.75   4 2.75
  17  0.667  0.667  0.000-  28 2.61  30 2.61  34 2.61  27 2.61  36 2.61  29 2.61  33 2.61  35 2.61
                            11 2.75  15 2.75  13 2.75   5 2.75
  18  0.667  0.667  0.500-  27 2.61  29 2.61  33 2.61  28 2.61  35 2.61  34 2.61  30 2.61  36 2.61
                            12 2.75  16 2.75  14 2.75   6 2.75
  19  0.167  0.167  0.250-  10 2.61   8 2.61   4 2.61   9 2.61   2 2.61   7 2.61   3 2.61   1 2.61
                            21 2.75  25 2.75  23 2.75  31 2.75
  20  0.167  0.167  0.750-   9 2.61   7 2.61   3 2.61  10 2.61   1 2.61   4 2.61   8 2.61   2 2.61
                            22 2.75  26 2.75  24 2.75  32 2.75
  21  0.167  0.500  0.250-  12 2.61  10 2.61   6 2.61  11 2.61   4 2.61   9 2.61   5 2.61   3 2.61
                            19 2.75  23 2.75  27 2.75  33 2.75
  22  0.167  0.500  0.750-  11 2.61   9 2.61   5 2.61  12 2.61   3 2.61   6 2.61  10 2.61   4 2.61
                            20 2.75  24 2.75  28 2.75  34 2.75
  23  0.167  0.833  0.250-   8 2.61  12 2.61   2 2.61   6 2.61  11 2.61   7 2.61   5 2.61   1 2.61
                            21 2.75  29 2.75  19 2.75  35 2.75
  24  0.167  0.833  0.750-   7 2.61  11 2.61   1 2.61   5 2.61   8 2.61  12 2.61   2 2.61   6 2.61
                            22 2.75  30 2.75  20 2.75  36 2.75
  25  0.500  0.167  0.250-  16 2.61  14 2.61  10 2.61  15 2.61   8 2.61  13 2.61   9 2.61   7 2.61
                            19 2.75  27 2.75  31 2.75  29 2.75
  26  0.500  0.167  0.750-  15 2.61  13 2.61   9 2.61  16 2.61   7 2.61  10 2.61  14 2.61   8 2.61
                            20 2.75  28 2.75  32 2.75  30 2.75
  27  0.500  0.500  0.250-  18 2.61  16 2.61  12 2.61  17 2.61  10 2.61  15 2.61  11 2.61   9 2.61
                            21 2.75  25 2.75  29 2.75  33 2.75
  28  0.500  0.500  0.750-  17 2.61  15 2.61  11 2.61  18 2.61   9 2.61  12 2.61  16 2.61  10 2.61
                            22 2.75  26 2.75  30 2.75  34 2.75
  29  0.500  0.833  0.250-  14 2.61  18 2.61   8 2.61  12 2.61  17 2.61  13 2.61  11 2.61   7 2.61
                            23 2.75  27 2.75  35 2.75  25 2.75
  30  0.500  0.833  0.750-  13 2.61  17 2.61   7 2.61  11 2.61  14 2.61  18 2.61   8 2.61  12 2.61
                            24 2.75  28 2.75  36 2.75  26 2.75
  31  0.833  0.167  0.250-   4 2.61  16 2.61  14 2.61   2 2.61  15 2.61   3 2.61  13 2.61   1 2.61
                            25 2.75  33 2.75  19 2.75  35 2.75
  32  0.833  0.167  0.750-   3 2.61  15 2.61  13 2.61   1 2.61   4 2.61  16 2.61   2 2.61  14 2.61
                            26 2.75  34 2.75  20 2.75  36 2.75
  33  0.833  0.500  0.250-   6 2.61  18 2.61  16 2.61   4 2.61  17 2.61   5 2.61  15 2.61   3 2.61
                            27 2.75  31 2.75  35 2.75  21 2.75
  34  0.833  0.500  0.750-   5 2.61  17 2.61  15 2.61   3 2.61   6 2.61  18 2.61   4 2.61  16 2.61
                            28 2.75  32 2.75  36 2.75  22 2.75
  35  0.833  0.833  0.250-   2 2.61   6 2.61  14 2.61  18 2.61  13 2.61   5 2.61  17 2.61   1 2.61
                            29 2.75  33 2.75  31 2.75  23 2.75
  36  0.833  0.833  0.750-   1 2.61   5 2.61  13 2.61  17 2.61   2 2.61  14 2.61   6 2.61  18 2.61
                            30 2.75  34 2.75  32 2.75  24 2.75
 
  LATTYP: Found a simple tetragonal cell.
 ALAT       =     8.2501481662
 C/A-ratio  =     0.8428059861
  
  Lattice vectors:
  
 A1 = (   8.2501481662,   0.0000000000,   0.0000000000)
 A2 = (   0.0000000000,   8.2501481662,   0.0000000000)
 A3 = (   0.0000000000,   0.0000000000,   6.9532742610)


Analysis of symmetry for initial positions (statically):
=====================================================================
 Subroutine PRICEL returns following result:
 
  LATTYP: Found a simple tetragonal cell.
 ALAT       =     2.7500493888
 C/A-ratio  =     1.2642089792
  
  Lattice vectors:
  
 A1 = (   2.7500493888,   0.0000000000,   0.0000000000)
 A2 = (   0.0000000000,   2.7500493888,   0.0000000000)
 A3 = (   0.0000000000,   0.0000000000,   3.4766371305)
 
  18 primitive cells build up your supercell.
 

 Routine SETGRP: Setting up the symmetry group for a 
 simple tetragonal supercell.


 Subroutine GETGRP returns: Found 16 space group operations
 (whereof 16 operations were pure point group operations)
 out of a pool of 16 trial point group operations.


The static configuration has the point symmetry D_4h.


Analysis of symmetry for dynamics (positions and initial velocities):
=====================================================================
 Subroutine PRICEL returns following result:
 
  LATTYP: Found a simple tetragonal cell.
 ALAT       =     2.7500493888
 C/A-ratio  =     1.2642089792
  
  Lattice vectors:
  
 A1 = (   2.7500493888,   0.0000000000,   0.0000000000)
 A2 = (   0.0000000000,   2.7500493888,   0.0000000000)
 A3 = (   0.0000000000,   0.0000000000,   3.4766371305)
 
  18 primitive cells build up your supercell.
 

 Routine SETGRP: Setting up the symmetry group for a 
 simple tetragonal supercell.


 Subroutine GETGRP returns: Found 16 space group operations
 (whereof 16 operations were pure point group operations)
 out of a pool of 16 trial point group operations.


The dynamic configuration has the point symmetry D_4h.


Analysis of structural, dynamic, and magnetic symmetry:
=====================================================================
 Subroutine PRICEL returns:
 Original cell was already a primitive cell.
 

 Routine SETGRP: Setting up the symmetry group for a 
 simple tetragonal supercell.


 Subroutine GETGRP returns: Found  2 space group operations
 (whereof  1 operations were pure point group operations)
 out of a pool of 16 trial point group operations.


The magnetic configuration has the point symmetry C_1 .
 The point group associated with its full space group is C_1h.


 Subroutine INISYM returns: Found  2 space group operations
 (whereof  1 operations are pure point group operations),
 and found     1 'primitive' translations

 
 
 KPOINTS: automatic KPOINTS                       

Automatic generation of k-mesh.
 generate k-points for:    5    5    6
Space group operators:
 irot       det(A)        alpha          n_x          n_y          n_z        tau_x        tau_y        tau_z
    1     1.000000     0.000001     1.000000     0.000000     0.000000     0.000000     0.000000     0.000000
    2    -1.000000   179.999999     0.000000     0.000000     1.000000     0.000000     0.000000     0.500000
 
 Subroutine IBZKPT returns following result:
 ===========================================
 
 Found     52 irreducible k-points:
 
 Following reciprocal coordinates:
            Coordinates               Weight
  0.000000  0.000000  0.000000      1.000000
  0.200000  0.000000  0.000000      2.000000
  0.400000  0.000000  0.000000      2.000000
  0.000000  0.200000  0.000000      2.000000
  0.200000  0.200000  0.000000      2.000000
  0.400000  0.200000  0.000000      2.000000
 -0.400000  0.200000  0.000000      2.000000
 -0.200000  0.200000  0.000000      2.000000
  0.000000  0.400000  0.000000      2.000000
  0.200000  0.400000  0.000000      2.000000
  0.400000  0.400000  0.000000      2.000000
 -0.400000  0.400000  0.000000      2.000000
 -0.200000  0.400000  0.000000      2.000000
  0.000000  0.000000  0.166667      2.000000
  0.200000  0.000000  0.166667      4.000000
  0.400000  0.000000  0.166667      4.000000
  0.000000  0.200000  0.166667      4.000000
  0.200000  0.200000  0.166667      4.000000
  0.400000  0.200000  0.166667      4.000000
 -0.400000  0.200000  0.166667      4.000000
 -0.200000  0.200000  0.166667      4.000000
  0.000000  0.400000  0.166667      4.000000
  0.200000  0.400000  0.166667      4.000000
  0.400000  0.400000  0.166667      4.000000
 -0.400000  0.400000  0.166667      4.000000
 -0.200000  0.400000  0.166667      4.000000
  0.000000  0.000000  0.333333      2.000000
  0.200000  0.000000  0.333333      4.000000
  0.400000  0.000000  0.333333      4.000000
  0.000000  0.200000  0.333333      4.000000
  0.200000  0.200000  0.333333      4.000000
  0.400000  0.200000  0.333333      4.000000
 -0.400000  0.200000  0.333333      4.000000
 -0.200000  0.200000  0.333333      4.000000
  0.000000  0.400000  0.333333      4.000000
  0.200000  0.400000  0.333333      4.000000
  0.400000  0.400000  0.333333      4.000000
 -0.400000  0.400000  0.333333      4.000000
 -0.200000  0.400000  0.333333      4.000000
  0.000000  0.000000  0.500000      1.000000
  0.200000  0.000000  0.500000      2.000000
  0.400000  0.000000  0.500000      2.000000
  0.000000  0.200000  0.500000      2.000000
  0.200000  0.200000  0.500000      2.000000
  0.400000  0.200000  0.500000      2.000000
 -0.400000  0.200000  0.500000      2.000000
 -0.200000  0.200000  0.500000      2.000000
  0.000000  0.400000  0.500000      2.000000
  0.200000  0.400000  0.500000      2.000000
  0.400000  0.400000  0.500000      2.000000
 -0.400000  0.400000  0.500000      2.000000
 -0.200000  0.400000  0.500000      2.000000
 
 Following cartesian coordinates:
            Coordinates               Weight
  0.000000  0.000000  0.000000      1.000000
  0.024242  0.000000  0.000000      2.000000
  0.048484  0.000000  0.000000      2.000000
  0.000000  0.024242  0.000000      2.000000
  0.024242  0.024242  0.000000      2.000000
  0.048484  0.024242  0.000000      2.000000
 -0.048484  0.024242  0.000000      2.000000
 -0.024242  0.024242  0.000000      2.000000
  0.000000  0.048484  0.000000      2.000000
  0.024242  0.048484  0.000000      2.000000
  0.048484  0.048484  0.000000      2.000000
 -0.048484  0.048484  0.000000      2.000000
 -0.024242  0.048484  0.000000      2.000000
  0.000000  0.000000  0.023970      2.000000
  0.024242  0.000000  0.023970      4.000000
  0.048484  0.000000  0.023970      4.000000
  0.000000  0.024242  0.023970      4.000000
  0.024242  0.024242  0.023970      4.000000
  0.048484  0.024242  0.023970      4.000000
 -0.048484  0.024242  0.023970      4.000000
 -0.024242  0.024242  0.023970      4.000000
  0.000000  0.048484  0.023970      4.000000
  0.024242  0.048484  0.023970      4.000000
  0.048484  0.048484  0.023970      4.000000
 -0.048484  0.048484  0.023970      4.000000
 -0.024242  0.048484  0.023970      4.000000
  0.000000  0.000000  0.047939      2.000000
  0.024242  0.000000  0.047939      4.000000
  0.048484  0.000000  0.047939      4.000000
  0.000000  0.024242  0.047939      4.000000
  0.024242  0.024242  0.047939      4.000000
  0.048484  0.024242  0.047939      4.000000
 -0.048484  0.024242  0.047939      4.000000
 -0.024242  0.024242  0.047939      4.000000
  0.000000  0.048484  0.047939      4.000000
  0.024242  0.048484  0.047939      4.000000
  0.048484  0.048484  0.047939      4.000000
 -0.048484  0.048484  0.047939      4.000000
 -0.024242  0.048484  0.047939      4.000000
  0.000000  0.000000  0.071909      1.000000
  0.024242  0.000000  0.071909      2.000000
  0.048484  0.000000  0.071909      2.000000
  0.000000  0.024242  0.071909      2.000000
  0.024242  0.024242  0.071909      2.000000
  0.048484  0.024242  0.071909      2.000000
 -0.048484  0.024242  0.071909      2.000000
 -0.024242  0.024242  0.071909      2.000000
  0.000000  0.048484  0.071909      2.000000
  0.024242  0.048484  0.071909      2.000000
  0.048484  0.048484  0.071909      2.000000
 -0.048484  0.048484  0.071909      2.000000
 -0.024242  0.048484  0.071909      2.000000
 


--------------------------------------------------------------------------------------------------------




 Dimension of arrays:
   k-points           NKPTS =     52   k-points in BZ     NKDIM =     52   number of bands    NBANDS=    110
   number of dos      NEDOS =    301   number of ions     NIONS =     36
   non local maximal  LDIM  =      6   non local SUM 2l+1 LMDIM =     18
   total plane-waves  NPLWV = 139968
   max r-space proj   IRMAX =      1   max aug-charges    IRDMAX=  92271
   dimension x,y,z NGX =    54 NGY =   54 NGZ =   48
   dimension x,y,z NGXF=   108 NGYF=  108 NGZF=   96
   support grid    NGXF=   216 NGYF=  216 NGZF=  192
   ions per type =              18  18
   NGX,Y,Z   is equivalent  to a cutoff of  10.88, 10.88, 11.48 a.u.
   NGXF,Y,Z  is equivalent  to a cutoff of  21.76, 21.76, 22.95 a.u.

 SYSTEM =  AlMn_pv                                 
 POSCAR =  NewRef: 18, @ ['Mn', array([1.37502469, 

 Startparameter for this run:
   NWRITE =      2    write-flag & timer
   PREC   = accura    normal or accurate (medium, high low for compatibility)
   ISTART =      0    job   : 0-new  1-cont  2-samecut
   ICHARG =      2    charge: 1-file 2-atom 10-const
   ISPIN  =      2    spin polarized calculation?
   LNONCOLLINEAR =      F non collinear calculations
   LSORBIT =      F    spin-orbit coupling
   INIWAV =      1    electr: 0-lowe 1-rand  2-diag
   LASPH  =      F    aspherical Exc in radial PAW
   METAGGA=      F    non-selfconsistent MetaGGA calc.

 Electronic Relaxation 1
   ENCUT  =  404.8 eV  29.75 Ry    5.45 a.u.  13.53 13.53 11.41*2*pi/ulx,y,z
   ENINI  =  404.8     initial cutoff
   ENAUG  =  500.7 eV  augmentation charge cutoff
   NELM   =    100;   NELMIN=  4; NELMDL= -8     # of ELM steps 
   EDIFF  = 0.1E-06   stopping-criterion for ELM
   LREAL  =      F    real-space projection
   NLSPLINE    = F    spline interpolate recip. space projectors
   LCOMPAT=      F    compatible to vasp.4.4
   GGA_COMPAT  = T    GGA compatible to vasp.4.4-vasp.4.6
   LMAXPAW     = -100 max onsite density
   LMAXMIX     =    2 max onsite mixed and CHGCAR
   VOSKOWN=      0    Vosko Wilk Nusair interpolation
   ROPT   =    0.00000   0.00000
 Ionic relaxation
   EDIFFG = 0.1E-05   stopping-criterion for IOM
   NSW    =      0    number of steps for IOM
   NBLOCK =      1;   KBLOCK =      1    inner block; outer block 
   IBRION =     -1    ionic relax: 0-MD 1-quasi-New 2-CG
   NFREE  =      0    steps in history (QN), initial steepest desc. (CG)
   ISIF   =      2    stress and relaxation
   IWAVPR =     10    prediction:  0-non 1-charg 2-wave 3-comb
   ISYM   =      2    0-nonsym 1-usesym 2-fastsym
   LCORR  =      T    Harris-Foulkes like correction to forces

   POTIM  = 0.2000    time-step for ionic-motion
   TEIN   =    0.0    initial temperature
   TEBEG  =    0.0;   TEEND  =   0.0 temperature during run
   SMASS  =  -3.00    Nose mass-parameter (am)
   estimated Nose-frequenzy (Omega)   =  0.10E-29 period in steps =****** mass=  -0.156E-26a.u.
   SCALEE = 1.0000    scale energy and forces
   NPACO  =    256;   APACO  = 16.0  distance and # of slots for P.C.
   PSTRESS=    0.0 pullay stress

  Mass of Ions in am
   POMASS =  26.98 54.94
  Ionic Valenz
   ZVAL   =   3.00  7.00
  Atomic Wigner-Seitz radii
   RWIGS  =  -1.00 -1.00
  virtual crystal weights 
   VCA    =   1.00  1.00
   NELECT =     180.0000    total number of electrons
   NUPDOWN=      -1.0000    fix difference up-down

 DOS related values:
   EMIN   =  10.00;   EMAX   =-10.00  energy-range for DOS
   EFERMI =   0.00
   ISMEAR =     1;   SIGMA  =   0.20  broadening in eV -4-tet -1-fermi 0-gaus

 Electronic relaxation 2 (details)
   IALGO  =     58    algorithm
   LDIAG  =      T    sub-space diagonalisation (order eigenvalues)
   LSUBROT=      F    optimize rotation matrix (better conditioning)
   TURBO    =      0    0=normal 1=particle mesh
   IRESTART =      0    0=no restart 2=restart with 2 vectors
   NREBOOT  =      0    no. of reboots
   NMIN     =      0    reboot dimension
   EREF     =   0.00    reference energy to select bands
   IMIX   =      4    mixing-type and parameters
     AMIX     =   0.40;   BMIX     =  1.00
     AMIX_MAG =   1.60;   BMIX_MAG =  1.00
     AMIN     =   0.10
     WC   =   100.;   INIMIX=   1;  MIXPRE=   1;  MAXMIX= -45

 Intra band minimization:
   WEIMIN = 0.0000     energy-eigenvalue tresh-hold
   EBREAK =  0.23E-09  absolut break condition
   DEPER  =   0.30     relativ break condition  

   TIME   =   0.40     timestep for ELM

  volume/ion in A,a.u.               =      13.15        88.72
  Fermi-wavevector in a.u.,A,eV,Ry     =   1.186118  2.241439 19.141722  1.406877
  Thomas-Fermi vector in A             =   2.322298
 
 Write flags
   LWAVE        =      F    write WAVECAR
   LDOWNSAMPLE  =      F    k-point downsampling of WAVECAR
   LCHARG       =      F    write CHGCAR
   LVTOT        =      F    write LOCPOT, total local potential
   LVHAR        =      F    write LOCPOT, Hartree potential only
   LELF         =      F    write electronic localiz. function (ELF)
   LORBIT       =     10    0 simple, 1 ext, 2 COOP (PROOUT), +10 PAW based schemes


 Dipole corrections
   LMONO  =      F    monopole corrections only (constant potential shift)
   LDIPOL =      F    correct potential (dipole corrections)
   IDIPOL =      0    1-x, 2-y, 3-z, 4-all directions 
   EPSILON=  1.0000000 bulk dielectric constant

 Exchange correlation treatment:
   GGA     =    --    GGA type
   LEXCH   =     8    internal setting for exchange type
   VOSKOWN=      0    Vosko Wilk Nusair interpolation
   LHFCALC =     F    Hartree Fock is set to
   LHFONE  =     F    Hartree Fock one center treatment
   AEXX    =    0.0000 exact exchange contribution

 Linear response parameters
   LEPSILON=     F    determine dielectric tensor
   LRPA    =     F    only Hartree local field effects (RPA)
   LNABLA  =     F    use nabla operator in PAW spheres
   LVEL    =     F    velocity operator in full k-point grid
   LINTERFAST=   F  fast interpolation
   KINTER  =     0    interpolate to denser k-point grid
   CSHIFT  =0.1000    complex shift for real part using Kramers Kronig
   OMEGAMAX=  -1.0    maximum frequency
   DEG_THRESHOLD= 0.2000000E-02 threshold for treating states as degnerate
   RTIME   =   -0.100 relaxation time in fs
  (WPLASMAI=    0.000 imaginary part of plasma frequency in eV, 0.658/RTIME)
   DFIELD  = 0.0000000 0.0000000 0.0000000 field for delta impulse in time
 
 Orbital magnetization related:
   ORBITALMAG=     F  switch on orbital magnetization
   LCHIMAG   =     F  perturbation theory with respect to B field
   DQ        =  0.001000  dq finite difference perturbation B field
   LLRAUG    =     F  two centre corrections for induced B field



--------------------------------------------------------------------------------------------------------


 Static calculation
 charge density and potential will be updated during run
 spin polarized calculation
 Conjugate gradient for all bands (Freysoldt, et al. PRB 79, 241103 (2009))
 preconditioned conjugated gradient                                        
 perform sub-space diagonalisation
    before iterative eigenvector-optimisation
 modified Broyden-mixing scheme, WC =      100.0
 initial mixing is a Kerker type mixing with AMIX =  0.4000 and BMIX =      1.0000
 Hartree-type preconditioning will be used
 using additional bands           20
 reciprocal scheme for non local part
 use partial core corrections
 no Harris-corrections to forces 
 use gradient corrections 
 use of overlap-Matrix (Vanderbilt PP)
 Methfessel and Paxton  Order N= 1 SIGMA  =   0.20


--------------------------------------------------------------------------------------------------------


  energy-cutoff  :      404.80
  volume of cell :      473.27
      direct lattice vectors                 reciprocal lattice vectors
     8.250148166  0.000000000  0.000000000     0.121209944  0.000000000  0.000000000
     0.000000000  8.250148166  0.000000000     0.000000000  0.121209944  0.000000000
     0.000000000  0.000000000  6.953274261     0.000000000  0.000000000  0.143817137

  length of vectors
     8.250148166  8.250148166  6.953274261     0.121209944  0.121209944  0.143817137


 
 k-points in units of 2pi/SCALE and weight: automatic KPOINTS                       
   0.00000000  0.00000000  0.00000000       0.007
   0.02424199  0.00000000  0.00000000       0.013
   0.04848398  0.00000000  0.00000000       0.013
   0.00000000  0.02424199  0.00000000       0.013
   0.02424199  0.02424199  0.00000000       0.013
   0.04848398  0.02424199  0.00000000       0.013
  -0.04848398  0.02424199  0.00000000       0.013
  -0.02424199  0.02424199  0.00000000       0.013
   0.00000000  0.04848398  0.00000000       0.013
   0.02424199  0.04848398  0.00000000       0.013
   0.04848398  0.04848398  0.00000000       0.013
  -0.04848398  0.04848398  0.00000000       0.013
  -0.02424199  0.04848398  0.00000000       0.013
   0.00000000  0.00000000  0.02396952       0.013
   0.02424199  0.00000000  0.02396952       0.027
   0.04848398  0.00000000  0.02396952       0.027
   0.00000000  0.02424199  0.02396952       0.027
   0.02424199  0.02424199  0.02396952       0.027
   0.04848398  0.02424199  0.02396952       0.027
  -0.04848398  0.02424199  0.02396952       0.027
  -0.02424199  0.02424199  0.02396952       0.027
   0.00000000  0.04848398  0.02396952       0.027
   0.02424199  0.04848398  0.02396952       0.027
   0.04848398  0.04848398  0.02396952       0.027
  -0.04848398  0.04848398  0.02396952       0.027
  -0.02424199  0.04848398  0.02396952       0.027
   0.00000000  0.00000000  0.04793905       0.013
   0.02424199  0.00000000  0.04793905       0.027
   0.04848398  0.00000000  0.04793905       0.027
   0.00000000  0.02424199  0.04793905       0.027
   0.02424199  0.02424199  0.04793905       0.027
   0.04848398  0.02424199  0.04793905       0.027
  -0.04848398  0.02424199  0.04793905       0.027
  -0.02424199  0.02424199  0.04793905       0.027
   0.00000000  0.04848398  0.04793905       0.027
   0.02424199  0.04848398  0.04793905       0.027
   0.04848398  0.04848398  0.04793905       0.027
  -0.04848398  0.04848398  0.04793905       0.027
  -0.02424199  0.04848398  0.04793905       0.027
   0.00000000  0.00000000  0.07190857       0.007
   0.02424199  0.00000000  0.07190857       0.013
   0.04848398  0.00000000  0.07190857       0.013
   0.00000000  0.02424199  0.07190857       0.013
   0.02424199  0.02424199  0.07190857       0.013
   0.04848398  0.02424199  0.07190857       0.013
  -0.04848398  0.02424199  0.07190857       0.013
  -0.02424199  0.02424199  0.07190857       0.013
   0.00000000  0.04848398  0.07190857       0.013
   0.02424199  0.04848398  0.07190857       0.013
   0.04848398  0.04848398  0.07190857       0.013
  -0.04848398  0.04848398  0.07190857       0.013
  -0.02424199  0.04848398  0.07190857       0.013
 
 k-points in reciprocal lattice and weights: automatic KPOINTS                       
   0.00000000  0.00000000  0.00000000       0.007
   0.20000000  0.00000000  0.00000000       0.013
   0.40000000  0.00000000  0.00000000       0.013
   0.00000000  0.20000000  0.00000000       0.013
   0.20000000  0.20000000  0.00000000       0.013
   0.40000000  0.20000000  0.00000000       0.013
  -0.40000000  0.20000000  0.00000000       0.013
  -0.20000000  0.20000000  0.00000000       0.013
   0.00000000  0.40000000  0.00000000       0.013
   0.20000000  0.40000000  0.00000000       0.013
   0.40000000  0.40000000  0.00000000       0.013
  -0.40000000  0.40000000  0.00000000       0.013
  -0.20000000  0.40000000  0.00000000       0.013
   0.00000000  0.00000000  0.16666667       0.013
   0.20000000  0.00000000  0.16666667       0.027
   0.40000000  0.00000000  0.16666667       0.027
   0.00000000  0.20000000  0.16666667       0.027
   0.20000000  0.20000000  0.16666667       0.027
   0.40000000  0.20000000  0.16666667       0.027
  -0.40000000  0.20000000  0.16666667       0.027
  -0.20000000  0.20000000  0.16666667       0.027
   0.00000000  0.40000000  0.16666667       0.027
   0.20000000  0.40000000  0.16666667       0.027
   0.40000000  0.40000000  0.16666667       0.027
  -0.40000000  0.40000000  0.16666667       0.027
  -0.20000000  0.40000000  0.16666667       0.027
   0.00000000  0.00000000  0.33333333       0.013
   0.20000000  0.00000000  0.33333333       0.027
   0.40000000  0.00000000  0.33333333       0.027
   0.00000000  0.20000000  0.33333333       0.027
   0.20000000  0.20000000  0.33333333       0.027
   0.40000000  0.20000000  0.33333333       0.027
  -0.40000000  0.20000000  0.33333333       0.027
  -0.20000000  0.20000000  0.33333333       0.027
   0.00000000  0.40000000  0.33333333       0.027
   0.20000000  0.40000000  0.33333333       0.027
   0.40000000  0.40000000  0.33333333       0.027
  -0.40000000  0.40000000  0.33333333       0.027
  -0.20000000  0.40000000  0.33333333       0.027
   0.00000000  0.00000000  0.50000000       0.007
   0.20000000  0.00000000  0.50000000       0.013
   0.40000000  0.00000000  0.50000000       0.013
   0.00000000  0.20000000  0.50000000       0.013
   0.20000000  0.20000000  0.50000000       0.013
   0.40000000  0.20000000  0.50000000       0.013
  -0.40000000  0.20000000  0.50000000       0.013
  -0.20000000  0.20000000  0.50000000       0.013
   0.00000000  0.40000000  0.50000000       0.013
   0.20000000  0.40000000  0.50000000       0.013
   0.40000000  0.40000000  0.50000000       0.013
  -0.40000000  0.40000000  0.50000000       0.013
  -0.20000000  0.40000000  0.50000000       0.013
 
 position of ions in fractional coordinates (direct lattice) 
   0.00000000  0.00000000  0.00000000
   0.00000000  0.00000000  0.50000000
   0.00000000  0.33333333  0.00000000
   0.00000000  0.33333333  0.50000000
   0.00000000  0.66666667  0.00000000
   0.00000000  0.66666667  0.50000000
   0.33333333  0.00000000  0.00000000
   0.33333333  0.00000000  0.50000000
   0.33333333  0.33333333  0.00000000
   0.33333333  0.33333333  0.50000000
   0.33333333  0.66666667  0.00000000
   0.33333333  0.66666667  0.50000000
   0.66666667  0.00000000  0.00000000
   0.66666667  0.00000000  0.50000000
   0.66666667  0.33333333  0.00000000
   0.66666667  0.33333333  0.50000000
   0.66666667  0.66666667  0.00000000
   0.66666667  0.66666667  0.50000000
   0.16666667  0.16666667  0.25000000
   0.16666667  0.16666667  0.75000000
   0.16666667  0.50000000  0.25000000
   0.16666667  0.50000000  0.75000000
   0.16666667  0.83333333  0.25000000
   0.16666667  0.83333333  0.75000000
   0.50000000  0.16666667  0.25000000
   0.50000000  0.16666667  0.75000000
   0.50000000  0.50000000  0.25000000
   0.50000000  0.50000000  0.75000000
   0.50000000  0.83333333  0.25000000
   0.50000000  0.83333333  0.75000000
   0.83333333  0.16666667  0.25000000
   0.83333333  0.16666667  0.75000000
   0.83333333  0.50000000  0.25000000
   0.83333333  0.50000000  0.75000000
   0.83333333  0.83333333  0.25000000
   0.83333333  0.83333333  0.75000000
 
 position of ions in cartesian coordinates  (Angst):
   0.00000000  0.00000000  0.00000000
   0.00000000  0.00000000  3.47663713
   0.00000000  2.75004939  0.00000000
   0.00000000  2.75004939  3.47663713
   0.00000000  5.50009878  0.00000000
   0.00000000  5.50009878  3.47663713
   2.75004939  0.00000000  0.00000000
   2.75004939  0.00000000  3.47663713
   2.75004939  2.75004939  0.00000000
   2.75004939  2.75004939  3.47663713
   2.75004939  5.50009878  0.00000000
   2.75004939  5.50009878  3.47663713
   5.50009878  0.00000000  0.00000000
   5.50009878  0.00000000  3.47663713
   5.50009878  2.75004939  0.00000000
   5.50009878  2.75004939  3.47663713
   5.50009878  5.50009878  0.00000000
   5.50009878  5.50009878  3.47663713
   1.37502469  1.37502469  1.73831857
   1.37502469  1.37502469  5.21495570
   1.37502469  4.12507408  1.73831857
   1.37502469  4.12507408  5.21495570
   1.37502469  6.87512347  1.73831857
   1.37502469  6.87512347  5.21495570
   4.12507408  1.37502469  1.73831857
   4.12507408  1.37502469  5.21495570
   4.12507408  4.12507408  1.73831857
   4.12507408  4.12507408  5.21495570
   4.12507408  6.87512347  1.73831857
   4.12507408  6.87512347  5.21495570
   6.87512347  1.37502469  1.73831857
   6.87512347  1.37502469  5.21495570
   6.87512347  4.12507408  1.73831857
   6.87512347  4.12507408  5.21495570
   6.87512347  6.87512347  1.73831857
   6.87512347  6.87512347  5.21495570
 


--------------------------------------------------------------------------------------------------------


 k-point  1 :   0.0000 0.0000 0.0000  plane waves:    8799
 k-point  2 :   0.2000 0.0000 0.0000  plane waves:    8753
 k-point  3 :   0.4000 0.0000 0.0000  plane waves:    8757
 k-point  4 :   0.0000 0.2000 0.0000  plane waves:    8753
 k-point  5 :   0.2000 0.2000 0.0000  plane waves:    8767
 k-point  6 :   0.4000 0.2000 0.0000  plane waves:    8761
 k-point  7 :  -0.4000 0.2000 0.0000  plane waves:    8761
 k-point  8 :  -0.2000 0.2000 0.0000  plane waves:    8767
 k-point  9 :   0.0000 0.4000 0.0000  plane waves:    8757
 k-point 10 :   0.2000 0.4000 0.0000  plane waves:    8761
 k-point 11 :   0.4000 0.4000 0.0000  plane waves:    8731
 k-point 12 :  -0.4000 0.4000 0.0000  plane waves:    8731
 k-point 13 :  -0.2000 0.4000 0.0000  plane waves:    8761
 k-point 14 :   0.0000 0.0000 0.1667  plane waves:    8763
 k-point 15 :   0.2000 0.0000 0.1667  plane waves:    8771
 k-point 16 :   0.4000 0.0000 0.1667  plane waves:    8747
 k-point 17 :   0.0000 0.2000 0.1667  plane waves:    8771
 k-point 18 :   0.2000 0.2000 0.1667  plane waves:    8764
 k-point 19 :   0.4000 0.2000 0.1667  plane waves:    8768
 k-point 20 :  -0.4000 0.2000 0.1667  plane waves:    8768
 k-point 21 :  -0.2000 0.2000 0.1667  plane waves:    8764
 k-point 22 :   0.0000 0.4000 0.1667  plane waves:    8747
 k-point 23 :   0.2000 0.4000 0.1667  plane waves:    8768
 k-point 24 :   0.4000 0.4000 0.1667  plane waves:    8740
 k-point 25 :  -0.4000 0.4000 0.1667  plane waves:    8740
 k-point 26 :  -0.2000 0.4000 0.1667  plane waves:    8768
 k-point 27 :   0.0000 0.0000 0.3333  plane waves:    8743
 k-point 28 :   0.2000 0.0000 0.3333  plane waves:    8736
 k-point 29 :   0.4000 0.0000 0.3333  plane waves:    8753
 k-point 30 :   0.0000 0.2000 0.3333  plane waves:    8736
 k-point 31 :   0.2000 0.2000 0.3333  plane waves:    8753
 k-point 32 :   0.4000 0.2000 0.3333  plane waves:    8743
 k-point 33 :  -0.4000 0.2000 0.3333  plane waves:    8743
 k-point 34 :  -0.2000 0.2000 0.3333  plane waves:    8753
 k-point 35 :   0.0000 0.4000 0.3333  plane waves:    8753
 k-point 36 :   0.2000 0.4000 0.3333  plane waves:    8743
 k-point 37 :   0.4000 0.4000 0.3333  plane waves:    8755
 k-point 38 :  -0.4000 0.4000 0.3333  plane waves:    8755
 k-point 39 :  -0.2000 0.4000 0.3333  plane waves:    8743
 k-point 40 :   0.0000 0.0000 0.5000  plane waves:    8742
 k-point 41 :   0.2000 0.0000 0.5000  plane waves:    8756
 k-point 42 :   0.4000 0.0000 0.5000  plane waves:    8744
 k-point 43 :   0.0000 0.2000 0.5000  plane waves:    8756
 k-point 44 :   0.2000 0.2000 0.5000  plane waves:    8762
 k-point 45 :   0.4000 0.2000 0.5000  plane waves:    8732
 k-point 46 :  -0.4000 0.2000 0.5000  plane waves:    8732
 k-point 47 :  -0.2000 0.2000 0.5000  plane waves:    8762
 k-point 48 :   0.0000 0.4000 0.5000  plane waves:    8744
 k-point 49 :   0.2000 0.4000 0.5000  plane waves:    8732
 k-point 50 :   0.4000 0.4000 0.5000  plane waves:    8736
 k-point 51 :  -0.4000 0.4000 0.5000  plane waves:    8736
 k-point 52 :  -0.2000 0.4000 0.5000  plane waves:    8732

 maximum and minimum number of plane-waves per node :      2210     2164

 maximum number of plane-waves:      8799
 maximum index in each direction: 
   IXMAX=   13   IYMAX=   13   IZMAX=   11
   IXMIN=  -13   IYMIN=  -13   IZMIN=  -11


 parallel 3D FFT for wavefunctions:
    minimum data exchange during FFTs selected (reduces bandwidth)
 parallel 3D FFT for charge:
    minimum data exchange during FFTs selected (reduces bandwidth)


 total amount of memory used by VASP MPI-rank0   740218. kBytes
=======================================================================

   base      :      30000. kBytes
   nonl-proj :      34307. kBytes
   fftplans  :      21726. kBytes
   grid      :      14732. kBytes
   one-center:        279. kBytes
   wavefun   :     639174. kBytes
 
     INWAV:  cpu time    0.0000: real time    0.0000
 Broyden mixing: mesh for mixing (old mesh)
   NGX = 27   NGY = 27   NGZ = 23
  (NGX  =108   NGY  =108   NGZ  = 96)
  gives a total of  16767 points

 initial charge density was supplied:
 charge density of overlapping atoms calculated
 number of electron     180.0000000 magnetization       0.0000000
 keeping initial charge density in first step


--------------------------------------------------------------------------------------------------------


 Maximum index for augmentation-charges        11261 (set IRDMAX)


--------------------------------------------------------------------------------------------------------


 First call to EWALD:  gamma=   0.227
 Maximum number of real-space cells 3x 3x 3
 Maximum number of reciprocal cells 3x 3x 3

    FEWALD:  cpu time    0.0022: real time    0.0021


--------------------------------------- Iteration      1(   1)  ---------------------------------------


    POTLOK:  cpu time    0.2591: real time    0.2623
    SETDIJ:  cpu time    1.2198: real time    1.2399
    TRIAL :  cpu time   18.7455: real time   18.9936
    CORREC:  cpu time    0.0065: real time    0.0066
    --------------------------------------------
      LOOP:  cpu time   20.4446: real time   20.7255

 eigenvalue-minimisations  : 22880
 total energy-change (2. order) : 0.1352304E+04  (-0.5848047E+04)
 number of electron     180.0000000 magnetization       0.0000000
 augmentation part      180.0000000 magnetization       0.0000000

 Free energy of the ion-electron system (eV)
  ---------------------------------------------------
  alpha Z        PSCENC =       532.25742704
  Ewald energy   TEWEN  =     -8601.05107233
  -Hartree energ DENC   =     -1903.73857242
  -exchange      EXHF   =         0.00000000
  -V(xc)+E(xc)   XCENC  =      -664.63353414
  PAW double counting   =      8494.55058411    -7650.81563588
  entropy T*S    EENTRO =         0.00261862
  eigenvalues    EBANDS =      2680.61569740
  atomic energy  EATOM  =      8465.11600846
  ---------------------------------------------------
  free energy    TOTEN  =      1352.30352086 eV

  energy without entropy =     1352.30090224  energy(sigma->0) =     1352.30264799


--------------------------------------------------------------------------------------------------------




--------------------------------------- Iteration      1(   2)  ---------------------------------------


    TRIAL :  cpu time   18.0548: real time   18.1520
    CORREC:  cpu time    0.0081: real time    0.0082
    --------------------------------------------
      LOOP:  cpu time   18.0640: real time   18.1636

 eigenvalue-minimisations  : 22880
 total energy-change (2. order) :-0.1408411E+04  (-0.1379013E+04)
 number of electron     180.0000000 magnetization       0.0000000
 augmentation part      180.0000000 magnetization       0.0000000

 Free energy of the ion-electron system (eV)
  ---------------------------------------------------
  alpha Z        PSCENC =       532.25742704
  Ewald energy   TEWEN  =     -8601.05107233
  -Hartree energ DENC   =     -1903.73857242
  -exchange      EXHF   =         0.00000000
  -V(xc)+E(xc)   XCENC  =      -664.63353414
  PAW double counting   =      8494.55058411    -7650.81563588
  entropy T*S    EENTRO =         0.00593558
  eigenvalues    EBANDS =      1272.20129836
  atomic energy  EATOM  =      8465.11600846
  ---------------------------------------------------
  free energy    TOTEN  =       -56.10756122 eV

  energy without entropy =      -56.11349680  energy(sigma->0) =      -56.10953975


--------------------------------------------------------------------------------------------------------




--------------------------------------- Iteration      1(   3)  ---------------------------------------


    TRIAL :  cpu time   26.1732: real time   26.4928
    CORREC:  cpu time    0.0094: real time    0.0102
    --------------------------------------------
      LOOP:  cpu time   26.1834: real time   26.5065

 eigenvalue-minimisations  : 35022
 total energy-change (2. order) :-0.1806995E+03  (-0.1635820E+03)
 number of electron     180.0000000 magnetization       0.0000000
 augmentation part      180.0000000 magnetization       0.0000000

 Free energy of the ion-electron system (eV)
  ---------------------------------------------------
  alpha Z        PSCENC =       532.25742704
  Ewald energy   TEWEN  =     -8601.05107233
  -Hartree energ DENC   =     -1903.73857242
  -exchange      EXHF   =         0.00000000
  -V(xc)+E(xc)   XCENC  =      -664.63353414
  PAW double counting   =      8494.55058411    -7650.81563588
  entropy T*S    EENTRO =         0.00133351
  eigenvalues    EBANDS =      1091.50641786
  atomic energy  EATOM  =      8465.11600846
  ---------------------------------------------------
  free energy    TOTEN  =      -236.80704379 eV

  energy without entropy =     -236.80837729  energy(sigma->0) =     -236.80748829


--------------------------------------------------------------------------------------------------------




--------------------------------------- Iteration      1(   4)  ---------------------------------------


    TRIAL :  cpu time   27.1928: real time   27.3906
    CORREC:  cpu time    0.0099: real time    0.0100
    --------------------------------------------
      LOOP:  cpu time   27.2034: real time   27.4043

 eigenvalue-minimisations  : 37384
 total energy-change (2. order) :-0.2891828E+02  (-0.2594680E+02)
 number of electron     180.0000000 magnetization       0.0000000
 augmentation part      180.0000000 magnetization       0.0000000

 Free energy of the ion-electron system (eV)
  ---------------------------------------------------
  alpha Z        PSCENC =       532.25742704
  Ewald energy   TEWEN  =     -8601.05107233
  -Hartree energ DENC   =     -1903.73857242
  -exchange      EXHF   =         0.00000000
  -V(xc)+E(xc)   XCENC  =      -664.63353414
  PAW double counting   =      8494.55058411    -7650.81563588
  entropy T*S    EENTRO =         0.02540665
  eigenvalues    EBANDS =      1062.56406041
  atomic energy  EATOM  =      8465.11600846
  ---------------------------------------------------
  free energy    TOTEN  =      -265.72532810 eV

  energy without entropy =     -265.75073475  energy(sigma->0) =     -265.73379698


--------------------------------------------------------------------------------------------------------




--------------------------------------- Iteration      1(   5)  ---------------------------------------


    TRIAL :  cpu time   27.1159: real time   27.4015
    CORREC:  cpu time    0.0100: real time    0.0109
    --------------------------------------------
      LOOP:  cpu time   27.1274: real time   27.4165

 eigenvalue-minimisations  : 38544
 total energy-change (2. order) :-0.3318415E+01  (-0.3154988E+01)
 number of electron     180.0000000 magnetization       0.0000000
 augmentation part      180.0000000 magnetization       0.0000000

 Free energy of the ion-electron system (eV)
  ---------------------------------------------------
  alpha Z        PSCENC =       532.25742704
  Ewald energy   TEWEN  =     -8601.05107233
  -Hartree energ DENC   =     -1903.73857242
  -exchange      EXHF   =         0.00000000
  -V(xc)+E(xc)   XCENC  =      -664.63353414
  PAW double counting   =      8494.55058411    -7650.81563588
  entropy T*S    EENTRO =         0.03080893
  eigenvalues    EBANDS =      1059.24024291
  atomic energy  EATOM  =      8465.11600846
  ---------------------------------------------------
  free energy    TOTEN  =      -269.04374332 eV

  energy without entropy =     -269.07455225  energy(sigma->0) =     -269.05401296


--------------------------------------------------------------------------------------------------------




--------------------------------------- Iteration      1(   6)  ---------------------------------------


    TRIAL :  cpu time   27.9193: real time   28.1910
    CORREC:  cpu time    0.0103: real time    0.0111
    --------------------------------------------
      LOOP:  cpu time   27.9321: real time   28.2053

 eigenvalue-minimisations  : 38248
 total energy-change (2. order) :-0.2871322E+00  (-0.2784925E+00)
 number of electron     180.0000000 magnetization       0.0000000
 augmentation part      180.0000000 magnetization       0.0000000

 Free energy of the ion-electron system (eV)
  ---------------------------------------------------
  alpha Z        PSCENC =       532.25742704
  Ewald energy   TEWEN  =     -8601.05107233
  -Hartree energ DENC   =     -1903.73857242
  -exchange      EXHF   =         0.00000000
  -V(xc)+E(xc)   XCENC  =      -664.63353414
  PAW double counting   =      8494.55058411    -7650.81563588
  entropy T*S    EENTRO =         0.03323993
  eigenvalues    EBANDS =      1058.95067968
  atomic energy  EATOM  =      8465.11600846
  ---------------------------------------------------
  free energy    TOTEN  =      -269.33087555 eV

  energy without entropy =     -269.36411548  energy(sigma->0) =     -269.34195553


--------------------------------------------------------------------------------------------------------




--------------------------------------- Iteration      1(   7)  ---------------------------------------


    TRIAL :  cpu time   27.3681: real time   27.6193
    CORREC:  cpu time    0.0102: real time    0.0103
    --------------------------------------------
      LOOP:  cpu time   27.3795: real time   27.6332

 eigenvalue-minimisations  : 39056
 total energy-change (2. order) :-0.3290787E-01  (-0.3228996E-01)
 number of electron     180.0000000 magnetization       0.0000000
 augmentation part      180.0000000 magnetization       0.0000000

 Free energy of the ion-electron system (eV)
  ---------------------------------------------------
  alpha Z        PSCENC =       532.25742704
  Ewald energy   TEWEN  =     -8601.05107233
  -Hartree energ DENC   =     -1903.73857242
  -exchange      EXHF   =         0.00000000
  -V(xc)+E(xc)   XCENC  =      -664.63353414
  PAW double counting   =      8494.55058411    -7650.81563588
  entropy T*S    EENTRO =         0.03407148
  eigenvalues    EBANDS =      1058.91694026
  atomic energy  EATOM  =      8465.11600846
  ---------------------------------------------------
  free energy    TOTEN  =      -269.36378342 eV

  energy without entropy =     -269.39785490  energy(sigma->0) =     -269.37514058


--------------------------------------------------------------------------------------------------------




--------------------------------------- Iteration      1(   8)  ---------------------------------------


    TRIAL :  cpu time   27.5352: real time   27.8132
    CORREC:  cpu time    0.0345: real time    0.0346
    CHARGE:  cpu time    1.0815: real time    1.0850
    --------------------------------------------
      LOOP:  cpu time   28.6522: real time   28.9370

 eigenvalue-minimisations  : 37552
 total energy-change (2. order) :-0.3618319E-02  (-0.3570513E-02)
 number of electron     179.9999997 magnetization      -0.7895131
 augmentation part       42.5784679 magnetization      -0.3757288

 Free energy of the ion-electron system (eV)
  ---------------------------------------------------
  alpha Z        PSCENC =       532.25742704
  Ewald energy   TEWEN  =     -8601.05107233
  -Hartree energ DENC   =     -1903.73857242
  -exchange      EXHF   =         0.00000000
  -V(xc)+E(xc)   XCENC  =      -664.63353414
  PAW double counting   =      8494.55058411    -7650.81563588
  entropy T*S    EENTRO =         0.03441308
  eigenvalues    EBANDS =      1058.91298034
  atomic energy  EATOM  =      8465.11600846
  ---------------------------------------------------
  free energy    TOTEN  =      -269.36740174 eV

  energy without entropy =     -269.40181482  energy(sigma->0) =     -269.37887276


--------------------------------------------------------------------------------------------------------




--------------------------------------- Iteration      1(   9)  ---------------------------------------


    POTLOK:  cpu time    0.2534: real time    0.2536
    SETDIJ:  cpu time    0.3200: real time    0.3201
    TRIAL :  cpu time    8.9582: real time    8.9816
    CORREC:  cpu time    3.3189: real time    3.3773
    CHARGE:  cpu time    1.0780: real time    1.0830
    --------------------------------------------
      LOOP:  cpu time   13.9307: real time   14.0192

 eigenvalue-minimisations  :     0
 total energy-change (2. order) : 0.2070349E+03  (-0.1468900E+03)
 number of electron     179.9999997 magnetization      -0.5750848
 augmentation part       54.5032006 magnetization      -0.2986153

 Free energy of the ion-electron system (eV)
  ---------------------------------------------------
  alpha Z        PSCENC =       532.25742704
  Ewald energy   TEWEN  =     -8601.05107233
  -Hartree energ DENC   =      -841.50158804
  -exchange      EXHF   =         0.00000000
  -V(xc)+E(xc)   XCENC  =      -694.89074634
  PAW double counting   =     12755.66740240   -11808.72665266
  entropy T*S    EENTRO =         0.00750812
  eigenvalues    EBANDS =       130.76231901
  atomic energy  EATOM  =      8465.11600846
  ---------------------------------------------------
  free energy    TOTEN  =       -62.33248939 eV

  energy without entropy =      -62.33999751  energy(sigma->0) =      -62.33499209


--------------------------------------------------------------------------------------------------------




--------------------------------------- Iteration      1(  10)  ---------------------------------------


    POTLOK:  cpu time    0.2489: real time    0.2601
    SETDIJ:  cpu time    0.3125: real time    0.3243
    TRIAL :  cpu time    8.9364: real time    9.0500
    CORREC:  cpu time    3.3071: real time    3.3309
    CHARGE:  cpu time    1.0663: real time    1.0880
    --------------------------------------------
      LOOP:  cpu time   13.8725: real time   14.0578

 eigenvalue-minimisations  :     0
 total energy-change (2. order) :-0.1459656E+03  (-0.9535418E+01)
 number of electron     179.9999996 magnetization      -0.4723308
 augmentation part       57.7970947 magnetization      -0.2623751

 Free energy of the ion-electron system (eV)
  ---------------------------------------------------
  alpha Z        PSCENC =       532.25742704
  Ewald energy   TEWEN  =     -8601.05107233
  -Hartree energ DENC   =     -1378.49753048
  -exchange      EXHF   =         0.00000000
  -V(xc)+E(xc)   XCENC  =      -676.55110724
  PAW double counting   =     13662.87152234   -12833.08195559
  entropy T*S    EENTRO =        -0.00081469
  eigenvalues    EBANDS =       620.63112856
  atomic energy  EATOM  =      8465.11600846
  ---------------------------------------------------
  free energy    TOTEN  =      -208.29807113 eV

  energy without entropy =     -208.29725644  energy(sigma->0) =     -208.29779956


--------------------------------------------------------------------------------------------------------




--------------------------------------- Iteration      1(  11)  ---------------------------------------


    POTLOK:  cpu time    0.2480: real time    0.2481
    SETDIJ:  cpu time    0.3621: real time    0.3623
    TRIAL :  cpu time    9.8288: real time    9.9446
    CORREC:  cpu time    3.3647: real time    3.4086
    CHARGE:  cpu time    1.0601: real time    1.0866
    --------------------------------------------
      LOOP:  cpu time   14.8995: real time   15.0873

 eigenvalue-minimisations  :     0
 total energy-change (2. order) :-0.9575279E+01  (-0.8850829E+01)
 number of electron     179.9999996 magnetization      -0.2773478
 augmentation part       59.1813144 magnetization      -0.1627752

 Free energy of the ion-electron system (eV)
  ---------------------------------------------------
  alpha Z        PSCENC =       532.25742704
  Ewald energy   TEWEN  =     -8601.05107233
  -Hartree energ DENC   =     -1568.17328789
  -exchange      EXHF   =         0.00000000
  -V(xc)+E(xc)   XCENC  =      -669.80415348
  PAW double counting   =     14434.79723827   -13638.58170333
  entropy T*S    EENTRO =        -0.00720988
  eigenvalues    EBANDS =       827.56700827
  atomic energy  EATOM  =      8465.11600846
  ---------------------------------------------------
  free energy    TOTEN  =      -217.87334969 eV

  energy without entropy =     -217.86613981  energy(sigma->0) =     -217.87094640


--------------------------------------------------------------------------------------------------------




--------------------------------------- Iteration      1(  12)  ---------------------------------------


    POTLOK:  cpu time    0.2473: real time    0.2473
    SETDIJ:  cpu time    0.3207: real time    0.3308
    TRIAL :  cpu time    9.5781: real time    9.7025
    CORREC:  cpu time    3.3393: real time    3.3549
    CHARGE:  cpu time    1.0779: real time    1.0780
    --------------------------------------------
      LOOP:  cpu time   14.5780: real time   14.7289

 eigenvalue-minimisations  :     0
 total energy-change (2. order) :-0.8825555E+01  (-0.6238260E+01)
 number of electron     179.9999996 magnetization      -0.1232257
 augmentation part       58.2747255 magnetization      -0.0619180

 Free energy of the ion-electron system (eV)
  ---------------------------------------------------
  alpha Z        PSCENC =       532.25742704
  Ewald energy   TEWEN  =     -8601.05107233
  -Hartree energ DENC   =     -1703.87565737
  -exchange      EXHF   =         0.00000000
  -V(xc)+E(xc)   XCENC  =      -665.35814940
  PAW double counting   =     14451.37059294   -13655.80898074
  entropy T*S    EENTRO =        -0.00913283
  eigenvalues    EBANDS =       950.65813689
  atomic energy  EATOM  =      8465.11600846
  ---------------------------------------------------
  free energy    TOTEN  =      -226.69890439 eV

  energy without entropy =     -226.68977156  energy(sigma->0) =     -226.69586011


--------------------------------------------------------------------------------------------------------




--------------------------------------- Iteration      1(  13)  ---------------------------------------


    POTLOK:  cpu time    0.2475: real time    0.2475
    SETDIJ:  cpu time    0.3321: real time    0.3323
    TRIAL :  cpu time    8.9397: real time    8.9601
    CORREC:  cpu time    3.3119: real time    3.3222
    CHARGE:  cpu time    1.0575: real time    1.1090
    --------------------------------------------
      LOOP:  cpu time   13.9256: real time   14.0093

 eigenvalue-minimisations  :     0
 total energy-change (2. order) :-0.6137082E+01  (-0.9876305E+00)
 number of electron     179.9999997 magnetization      -0.1379321
 augmentation part       57.4035748 magnetization      -0.0537379

 Free energy of the ion-electron system (eV)
  ---------------------------------------------------
  alpha Z        PSCENC =       532.25742704
  Ewald energy   TEWEN  =     -8601.05107233
  -Hartree energ DENC   =     -1703.15424203
  -exchange      EXHF   =         0.00000000
  -V(xc)+E(xc)   XCENC  =      -665.81994472
  PAW double counting   =     14198.76131658   -13378.72465826
  entropy T*S    EENTRO =        -0.00662547
  eigenvalues    EBANDS =       919.78831152
  atomic energy  EATOM  =      8465.11600846
  ---------------------------------------------------
  free energy    TOTEN  =      -232.83598657 eV

  energy without entropy =     -232.82936111  energy(sigma->0) =     -232.83377809


--------------------------------------------------------------------------------------------------------




--------------------------------------- Iteration      1(  14)  ---------------------------------------


    POTLOK:  cpu time    0.2472: real time    0.2473
    SETDIJ:  cpu time    0.3199: real time    0.3205
    TRIAL :  cpu time    8.9092: real time    8.9944
    CORREC:  cpu time    3.3807: real time    3.4264
    CHARGE:  cpu time    1.0838: real time    1.0967
    --------------------------------------------
      LOOP:  cpu time   13.9446: real time   14.0899

 eigenvalue-minimisations  :     0
 total energy-change (2. order) :-0.9746765E+00  (-0.7804137E+00)
 number of electron     179.9999997 magnetization      -0.0278693
 augmentation part       57.2308667 magnetization       0.0076745

 Free energy of the ion-electron system (eV)
  ---------------------------------------------------
  alpha Z        PSCENC =       532.25742704
  Ewald energy   TEWEN  =     -8601.05107233
  -Hartree energ DENC   =     -1658.90037532
  -exchange      EXHF   =         0.00000000
  -V(xc)+E(xc)   XCENC  =      -667.42269609
  PAW double counting   =     13903.69101660   -13070.70073863
  entropy T*S    EENTRO =        -0.00640631
  eigenvalues    EBANDS =       863.20639268
  atomic energy  EATOM  =      8465.11600846
  ---------------------------------------------------
  free energy    TOTEN  =      -233.81066306 eV

  energy without entropy =     -233.80425675  energy(sigma->0) =     -233.80852762


--------------------------------------------------------------------------------------------------------




--------------------------------------- Iteration      1(  15)  ---------------------------------------


    POTLOK:  cpu time    0.2479: real time    0.2480
    SETDIJ:  cpu time    0.3188: real time    0.3229
    TRIAL :  cpu time    9.8665: real time    9.9691
    CORREC:  cpu time    3.3944: real time    3.4196
    CHARGE:  cpu time    1.1056: real time    1.1151
    --------------------------------------------
      LOOP:  cpu time   14.9352: real time   15.0767

 eigenvalue-minimisations  :     0
 total energy-change (2. order) :-0.7796368E+00  (-0.5646630E+00)
 number of electron     179.9999996 magnetization      -0.0369643
 augmentation part       57.7493291 magnetization       0.0301251

 Free energy of the ion-electron system (eV)
  ---------------------------------------------------
  alpha Z        PSCENC =       532.25742704
  Ewald energy   TEWEN  =     -8601.05107233
  -Hartree energ DENC   =     -1640.69014720
  -exchange      EXHF   =         0.00000000
  -V(xc)+E(xc)   XCENC  =      -668.04090724
  PAW double counting   =     13408.55318665   -12570.42340344
  entropy T*S    EENTRO =        -0.00358418
  eigenvalues    EBANDS =       839.69501453
  atomic energy  EATOM  =      8465.11600846
  ---------------------------------------------------
  free energy    TOTEN  =      -234.59029985 eV

  energy without entropy =     -234.58671567  energy(sigma->0) =     -234.58910512


--------------------------------------------------------------------------------------------------------




--------------------------------------- Iteration      1(  16)  ---------------------------------------


    POTLOK:  cpu time    0.2474: real time    0.2475
    SETDIJ:  cpu time    0.3450: real time    0.3452
    TRIAL :  cpu time    9.5802: real time    9.6398
    CORREC:  cpu time    3.3620: real time    3.4627
    CHARGE:  cpu time    1.0608: real time    1.0620
    --------------------------------------------
      LOOP:  cpu time   14.5998: real time   14.7625

 eigenvalue-minimisations  :     0
 total energy-change (2. order) :-0.5623410E+00  (-0.1640859E+00)
 number of electron     179.9999996 magnetization       0.0212969
 augmentation part       58.0858492 magnetization       0.0611587

 Free energy of the ion-electron system (eV)
  ---------------------------------------------------
  alpha Z        PSCENC =       532.25742704
  Ewald energy   TEWEN  =     -8601.05107233
  -Hartree energ DENC   =     -1658.20091014
  -exchange      EXHF   =         0.00000000
  -V(xc)+E(xc)   XCENC  =      -667.28791002
  PAW double counting   =     13090.50985199   -12256.03789950
  entropy T*S    EENTRO =        -0.00280715
  eigenvalues    EBANDS =       859.54544786
  atomic energy  EATOM  =      8465.11600846
  ---------------------------------------------------
  free energy    TOTEN  =      -235.15264082 eV

  energy without entropy =     -235.14983367  energy(sigma->0) =     -235.15170510


--------------------------------------------------------------------------------------------------------




--------------------------------------- Iteration      1(  17)  ---------------------------------------


    POTLOK:  cpu time    0.2481: real time    0.2482
    SETDIJ:  cpu time    0.3224: real time    0.3225
    TRIAL :  cpu time    8.9198: real time    8.9406
    CORREC:  cpu time    3.4171: real time    3.4211
    CHARGE:  cpu time    1.0595: real time    1.0660
    --------------------------------------------
      LOOP:  cpu time   13.9810: real time   14.0144

 eigenvalue-minimisations  :     0
 total energy-change (2. order) :-0.1638128E+00  (-0.1842117E+00)
 number of electron     179.9999996 magnetization       0.0523712
 augmentation part       58.2707985 magnetization       0.0782887

 Free energy of the ion-electron system (eV)
  ---------------------------------------------------
  alpha Z        PSCENC =       532.25742704
  Ewald energy   TEWEN  =     -8601.05107233
  -Hartree energ DENC   =     -1672.70734472
  -exchange      EXHF   =         0.00000000
  -V(xc)+E(xc)   XCENC  =      -666.66938851
  PAW double counting   =     13028.89636448   -12197.87077016
  entropy T*S    EENTRO =        -0.00179505
  eigenvalues    EBANDS =       876.71512929
  atomic energy  EATOM  =      8465.11600846
  ---------------------------------------------------
  free energy    TOTEN  =      -235.31645359 eV

  energy without entropy =     -235.31465854  energy(sigma->0) =     -235.31585524


--------------------------------------------------------------------------------------------------------




--------------------------------------- Iteration      1(  18)  ---------------------------------------


    POTLOK:  cpu time    0.2469: real time    0.2469
    SETDIJ:  cpu time    0.3379: real time    0.3378
    TRIAL :  cpu time    8.8801: real time    9.0004
    CORREC:  cpu time    3.4182: real time    3.4196
    CHARGE:  cpu time    1.0508: real time    1.0959
    --------------------------------------------
      LOOP:  cpu time   13.9542: real time   14.1219

 eigenvalue-minimisations  :     0
 total energy-change (2. order) :-0.1842551E+00  (-0.1221461E+00)
 number of electron     179.9999996 magnetization       0.0723029
 augmentation part       58.1072650 magnetization       0.0922571

 Free energy of the ion-electron system (eV)
  ---------------------------------------------------
  alpha Z        PSCENC =       532.25742704
  Ewald energy   TEWEN  =     -8601.05107233
  -Hartree energ DENC   =     -1679.23497648
  -exchange      EXHF   =         0.00000000
  -V(xc)+E(xc)   XCENC  =      -666.26224534
  PAW double counting   =     12983.78993454   -12154.90332797
  entropy T*S    EENTRO =        -0.00080042
  eigenvalues    EBANDS =       884.78933847
  atomic energy  EATOM  =      8465.11600846
  ---------------------------------------------------
  free energy    TOTEN  =      -235.50070866 eV

  energy without entropy =     -235.49990824  energy(sigma->0) =     -235.50044185


--------------------------------------------------------------------------------------------------------




--------------------------------------- Iteration      1(  19)  ---------------------------------------


    POTLOK:  cpu time    0.2487: real time    0.2487
    SETDIJ:  cpu time    0.3352: real time    0.3406
    TRIAL :  cpu time    8.9253: real time    9.0082
    CORREC:  cpu time    3.9583: real time    4.0277
    CHARGE:  cpu time    1.0859: real time    1.1052
    --------------------------------------------
      LOOP:  cpu time   14.5564: real time   14.7347

 eigenvalue-minimisations  :     0
 total energy-change (2. order) :-0.1212985E+00  (-0.5026471E-01)
 number of electron     179.9999996 magnetization       0.0954570
 augmentation part       57.9232645 magnetization       0.1042068

 Free energy of the ion-electron system (eV)
  ---------------------------------------------------
  alpha Z        PSCENC =       532.25742704
  Ewald energy   TEWEN  =     -8601.05107233
  -Hartree energ DENC   =     -1669.25281363
  -exchange      EXHF   =         0.00000000
  -V(xc)+E(xc)   XCENC  =      -666.47985868
  PAW double counting   =     12954.64424286   -12124.16199645
  entropy T*S    EENTRO =        -0.00035587
  eigenvalues    EBANDS =       873.30685600
  atomic energy  EATOM  =      8465.11600846
  ---------------------------------------------------
  free energy    TOTEN  =      -235.62200715 eV

  energy without entropy =     -235.62165128  energy(sigma->0) =     -235.62188853


--------------------------------------------------------------------------------------------------------




--------------------------------------- Iteration      1(  20)  ---------------------------------------


    POTLOK:  cpu time    0.2479: real time    0.2480
    SETDIJ:  cpu time    0.3208: real time    0.3210
    TRIAL :  cpu time    9.6166: real time    9.6825
    CORREC:  cpu time    3.4221: real time    3.4334
    CHARGE:  cpu time    1.0308: real time    1.1359
    --------------------------------------------
      LOOP:  cpu time   14.6415: real time   14.8241

 eigenvalue-minimisations  :     0
 total energy-change (2. order) :-0.5007300E-01  (-0.6595950E-01)
 number of electron     179.9999996 magnetization       0.1234525
 augmentation part       57.7907451 magnetization       0.1220573

 Free energy of the ion-electron system (eV)
  ---------------------------------------------------
  alpha Z        PSCENC =       532.25742704
  Ewald energy   TEWEN  =     -8601.05107233
  -Hartree energ DENC   =     -1660.00014683
  -exchange      EXHF   =         0.00000000
  -V(xc)+E(xc)   XCENC  =      -666.74851439
  PAW double counting   =     12942.69850669   -12110.36990535
  entropy T*S    EENTRO =         0.00067031
  eigenvalues    EBANDS =       862.42597243
  atomic energy  EATOM  =      8465.11600846
  ---------------------------------------------------
  free energy    TOTEN  =      -235.67208015 eV

  energy without entropy =     -235.67275046  energy(sigma->0) =     -235.67230359


--------------------------------------------------------------------------------------------------------




--------------------------------------- Iteration      1(  21)  ---------------------------------------


    POTLOK:  cpu time    0.2471: real time    0.2471
    SETDIJ:  cpu time    0.3199: real time    0.3200
    TRIAL :  cpu time    8.9917: real time    9.0229
    CORREC:  cpu time    3.4085: real time    3.4203
    CHARGE:  cpu time    1.0618: real time    1.0623
    --------------------------------------------
      LOOP:  cpu time   14.0301: real time   14.0749

 eigenvalue-minimisations  :     0
 total energy-change (2. order) :-0.6599982E-01  (-0.4935174E-01)
 number of electron     179.9999996 magnetization       0.1517984
 augmentation part       57.8586814 magnetization       0.1405153

 Free energy of the ion-electron system (eV)
  ---------------------------------------------------
  alpha Z        PSCENC =       532.25742704
  Ewald energy   TEWEN  =     -8601.05107233
  -Hartree energ DENC   =     -1655.69308023
  -exchange      EXHF   =         0.00000000
  -V(xc)+E(xc)   XCENC  =      -666.82669527
  PAW double counting   =     12948.89352500   -12115.52839890
  entropy T*S    EENTRO =         0.00155679
  eigenvalues    EBANDS =       857.09353595
  atomic energy  EATOM  =      8465.11600846
  ---------------------------------------------------
  free energy    TOTEN  =      -235.73807996 eV

  energy without entropy =     -235.73963675  energy(sigma->0) =     -235.73859889


--------------------------------------------------------------------------------------------------------




--------------------------------------- Iteration      1(  22)  ---------------------------------------


    POTLOK:  cpu time    0.2477: real time    0.2477
    SETDIJ:  cpu time    0.3216: real time    0.3218
    TRIAL :  cpu time    8.8833: real time    9.0002
    CORREC:  cpu time    3.3754: real time    3.4056
    CHARGE:  cpu time    1.0775: real time    1.0780
    --------------------------------------------
      LOOP:  cpu time   13.9254: real time   14.0747

 eigenvalue-minimisations  :     0
 total energy-change (2. order) :-0.4927567E-01  (-0.1924934E-01)
 number of electron     179.9999996 magnetization       0.1735855
 augmentation part       57.9600380 magnetization       0.1531845

 Free energy of the ion-electron system (eV)
  ---------------------------------------------------
  alpha Z        PSCENC =       532.25742704
  Ewald energy   TEWEN  =     -8601.05107233
  -Hartree energ DENC   =     -1661.69405026
  -exchange      EXHF   =         0.00000000
  -V(xc)+E(xc)   XCENC  =      -666.54799837
  PAW double counting   =     12973.21671556   -12140.95745499
  entropy T*S    EENTRO =         0.00205641
  eigenvalues    EBANDS =       863.87151247
  atomic energy  EATOM  =      8465.11600846
  ---------------------------------------------------
  free energy    TOTEN  =      -235.78735564 eV

  energy without entropy =     -235.78941204  energy(sigma->0) =     -235.78804110


--------------------------------------------------------------------------------------------------------




--------------------------------------- Iteration      1(  23)  ---------------------------------------


    POTLOK:  cpu time    0.2477: real time    0.2479
    SETDIJ:  cpu time    0.3621: real time    0.3623
    TRIAL :  cpu time    8.9277: real time    9.0118
    CORREC:  cpu time    3.2793: real time    3.3837
    CHARGE:  cpu time    1.0742: real time    1.0810
    --------------------------------------------
[...]
  8.438  14.380  -0.000   0.000   0.000  -0.001   0.001   0.001
 14.380  24.506  -0.001   0.000   0.000  -0.002   0.001   0.001
 -0.000  -0.001   1.996   0.000   0.000   5.747   0.000   0.000
  0.000   0.000   0.000   1.995  -0.000   0.000   5.746  -0.000
  0.000   0.000   0.000  -0.000   1.996   0.000  -0.000   5.747
 -0.001  -0.002   5.747   0.000   0.000  16.471   0.001   0.000
  0.001   0.001   0.000   5.746  -0.000   0.001  16.467  -0.001
  0.001   0.001   0.000  -0.000   5.747   0.000  -0.001  16.471
 total augmentation occupancy for first ion, spin component:           1
  4.361  -1.242  -0.002   0.001  -0.001  -0.000  -0.000   0.000
 -1.242   0.373   0.000  -0.000   0.000   0.000   0.000  -0.000
 -0.002   0.000   1.415  -0.009   0.003  -0.101   0.000  -0.000
  0.001  -0.000  -0.009   1.485   0.010   0.000  -0.101  -0.000
 -0.001   0.000   0.003   0.010   1.406  -0.000  -0.000  -0.100
 -0.000   0.000  -0.101   0.000  -0.000   0.007  -0.000   0.000
 -0.000   0.000   0.000  -0.101  -0.000  -0.000   0.007   0.000
  0.000  -0.000  -0.000  -0.000  -0.100   0.000   0.000   0.007
 total augmentation occupancy for first ion, spin component:           2
  0.007  -0.003   0.034  -0.052  -0.034  -0.001   0.002   0.001
 -0.003   0.001   0.004  -0.010  -0.006  -0.000   0.001   0.001
  0.034   0.004   0.001   0.002  -0.002  -0.000   0.000   0.000
 -0.052  -0.010   0.002   0.006   0.000   0.000  -0.000   0.000
 -0.034  -0.006  -0.002   0.000   0.006   0.000   0.000  -0.000
 -0.001  -0.000  -0.000   0.000   0.000   0.000  -0.000  -0.000
  0.002   0.001   0.000  -0.000   0.000  -0.000   0.000  -0.000
  0.001   0.001   0.000   0.000  -0.000  -0.000  -0.000   0.000


------------------------ aborting loop because EDIFF is reached ----------------------------------------


 


 total charge     
 
# of ion       s       p       d       tot
------------------------------------------
    1        0.406   0.426   0.000   0.832
    2        0.405   0.425   0.000   0.831
    3        0.405   0.426   0.000   0.831
    4        0.405   0.426   0.000   0.832
    5        0.405   0.425   0.000   0.830
    6        0.405   0.425   0.000   0.830
    7        0.405   0.430   0.000   0.835
    8        0.405   0.430   0.000   0.835
    9        0.405   0.429   0.000   0.833
   10        0.405   0.429   0.000   0.834
   11        0.405   0.426   0.000   0.831
   12        0.405   0.426   0.000   0.831
   13        0.405   0.429   0.000   0.833
   14        0.405   0.429   0.000   0.834
   15        0.405   0.429   0.000   0.834
   16        0.405   0.429   0.000   0.834
   17        0.405   0.429   0.000   0.834
   18        0.405   0.429   0.000   0.834
   19        0.330   0.355   5.143   5.828
   20        0.332   0.355   5.137   5.823
   21        0.333   0.352   5.138   5.823
   22        0.337   0.353   5.125   5.816
   23        0.332   0.349   5.145   5.827
   24        0.336   0.356   5.127   5.818
   25        0.331   0.356   5.124   5.811
   26        0.333   0.354   5.142   5.829
   27        0.330   0.355   5.141   5.825
   28        0.335   0.355   5.124   5.815
   29        0.334   0.352   5.138   5.824
   30        0.338   0.362   5.104   5.804
   31        0.337   0.356   5.118   5.812
   32        0.334   0.351   5.140   5.825
   33        0.335   0.355   5.122   5.812
   34        0.330   0.354   5.143   5.827
   35        0.334   0.353   5.134   5.821
   36        0.330   0.356   5.133   5.819
--------------------------------------------------
tot         13.293  14.074  92.379 119.746
 


 magnetization (x)
 
# of ion       s       p       d       tot
------------------------------------------
    1        0.000   0.002   0.000   0.002
    2        0.000   0.001   0.000   0.001
    3       -0.001  -0.000   0.000  -0.002
    4       -0.001  -0.001   0.000  -0.002
    5       -0.007  -0.015   0.000  -0.023
    6       -0.007  -0.015   0.000  -0.023
    7        0.000  -0.001   0.000  -0.000
    8        0.000  -0.001   0.000  -0.001
    9       -0.004  -0.008   0.000  -0.011
   10       -0.004  -0.008   0.000  -0.012
   11       -0.005  -0.012   0.000  -0.017
   12       -0.005  -0.012   0.000  -0.017
   13        0.009   0.018   0.000   0.027
   14        0.009   0.018   0.000   0.027
   15        0.005   0.011   0.000   0.016
   16        0.005   0.011   0.000   0.016
   17        0.004   0.008   0.000   0.012
   18        0.004   0.008   0.000   0.012
   19        0.014   0.032   1.958   2.004
   20       -0.029  -0.036  -2.193  -2.258
   21        0.015   0.007   2.314   2.336
   22        0.021   0.021   2.425   2.467
   23        0.017  -0.000   2.346   2.363
   24        0.030   0.032   2.287   2.349
   25       -0.005  -0.015  -2.349  -2.369
   26        0.029   0.019   2.183   2.231
   27       -0.015  -0.019  -2.096  -2.129
   28        0.019   0.019   2.408   2.447
   29       -0.026  -0.006  -2.323  -2.355
   30       -0.040  -0.034  -2.528  -2.602
   31       -0.033  -0.033  -2.366  -2.433
   32       -0.019  -0.002  -2.359  -2.380
   33        0.021   0.025   2.440   2.485
   34       -0.017  -0.025  -2.050  -2.093
   35        0.023   0.016   2.346   2.385
   36       -0.010  -0.014  -2.238  -2.262
--------------------------------------------------
tot         -0.005  -0.010   0.207   0.192
 
    FORLOC:  cpu time    0.0285: real time    0.0285
    FORNL :  cpu time   12.8477: real time   13.0493
    STRESS:  cpu time   18.5326: real time   18.6837
    FORCOR:  cpu time    0.2732: real time    0.2866
    OFIELD:  cpu time    0.0014: real time    0.0014

  FORCE on cell =-STRESS in cart. coord.  units (eV):
  Direction    XX          YY          ZZ          XY          YZ          ZX
  --------------------------------------------------------------------------------------
  Alpha Z   532.25743   532.25743   532.25743
  Ewald   -2702.40749 -2702.40749 -3196.26924    -0.00000    -0.00000    -0.00000
  Hartree   720.90316   721.69741   224.12761    -0.01993    -0.00000    -0.00000
  E(xc)    -759.99685  -760.27299  -759.82041     0.01310     0.00000     0.00000
  Local     248.78980   247.20708  1265.24621     0.15384     0.00000     0.00000
  n-local  -110.15479  -111.12652  -120.83431     0.32826    -0.18464    -0.11776
  augment   520.98530   521.74513   513.93310    -0.11512     0.00001     0.00001
  Kinetic  1556.90035  1556.54688  1540.76079    -0.08821     0.81489     0.10803
  Fock        0.00000     0.00000     0.00000     0.00000     0.00000     0.00000
  -------------------------------------------------------------------------------------
  Total       7.27690     5.64693    -0.59882     0.27194     0.00000     0.00000
  in kB      24.63451    19.11656    -2.02719     0.92061     0.00000     0.00000
  external pressure =       13.91 kB  Pullay stress =        0.00 kB


 VOLUME and BASIS-vectors are now :
 -----------------------------------------------------------------------------
  energy-cutoff  :      404.80
  volume of cell :      473.27
      direct lattice vectors                 reciprocal lattice vectors
     8.250148166  0.000000000  0.000000000     0.121209944  0.000000000  0.000000000
     0.000000000  8.250148166  0.000000000     0.000000000  0.121209944  0.000000000
     0.000000000  0.000000000  6.953274261     0.000000000  0.000000000  0.143817137

  length of vectors
     8.250148166  8.250148166  6.953274261     0.121209944  0.121209944  0.143817137


 FORCES acting on ions:
    Electron-Ion                     Ewald-Force                    Non-Local-Force
 -----------------------------------------------------------------------------------------------
   0.260E-02 0.519E-01 0.553E-02   -.239E-08 -.239E-08 0.411E-08   0.199E-01 0.217E-01 -.207E-01
   0.260E-02 0.519E-01 -.553E-02   -.239E-08 -.239E-08 0.411E-08   0.199E-01 0.217E-01 0.207E-01
   0.642E-02 -.354E-01 -.538E-01   -.239E-08 -.802E-09 0.411E-08   0.263E-01 -.835E-02 0.371E-01
   0.642E-02 -.354E-01 0.538E-01   -.239E-08 -.802E-09 0.411E-08   0.263E-01 -.835E-02 -.371E-01
   -.160E+00 -.337E-02 -.286E-01   -.239E-08 0.631E-08 0.411E-08   0.152E+00 -.225E-02 0.853E-01
   -.160E+00 -.337E-02 0.286E-01   -.239E-08 0.631E-08 0.411E-08   0.152E+00 -.225E-02 -.853E-01
   -.816E-01 -.164E+00 0.137E+00   -.802E-09 -.239E-08 0.411E-08   0.264E-01 0.556E-01 -.392E-01
   -.816E-01 -.164E+00 -.137E+00   -.802E-09 -.239E-08 0.411E-08   0.264E-01 0.556E-01 0.392E-01
   0.992E-01 0.133E+00 0.554E-01   -.802E-09 -.802E-09 0.411E-08   -.594E-02 -.412E-01 -.414E-01
   0.992E-01 0.133E+00 -.554E-01   -.802E-09 -.802E-09 0.411E-08   -.594E-02 -.412E-01 0.414E-01
   -.488E-01 0.272E-01 0.680E-01   -.802E-09 0.631E-08 0.411E-08   -.954E-01 -.266E-01 -.308E-01
   -.488E-01 0.272E-01 -.680E-01   -.802E-09 0.631E-08 0.411E-08   -.954E-01 -.266E-01 0.308E-01
   0.504E-01 0.641E-01 -.192E-01   0.631E-08 -.239E-08 0.411E-08   -.469E-01 -.146E-01 -.725E-02
   0.504E-01 0.641E-01 0.192E-01   0.631E-08 -.239E-08 0.411E-08   -.469E-01 -.146E-01 0.725E-02
   -.142E+00 -.202E+00 -.882E-01   0.631E-08 -.802E-09 0.411E-08   0.265E-01 0.152E-01 0.373E-01
   -.142E+00 -.202E+00 0.882E-01   0.631E-08 -.802E-09 0.411E-08   0.265E-01 0.152E-01 -.373E-01
   0.225E+00 0.169E+00 0.729E-01   0.631E-08 0.631E-08 0.411E-08   -.991E-01 -.284E-01 -.455E-01
   0.225E+00 0.169E+00 -.729E-01   0.631E-08 0.631E-08 0.411E-08   -.991E-01 -.284E-01 0.455E-01
   0.441E-02 -.292E-01 -.218E-09   -.169E-07 -.169E-07 -.411E-08   -.106E+00 0.172E-02 0.000E+00
   -.491E+00 -.918E-01 -.240E-08   -.169E-07 -.169E-07 -.411E-08   0.127E+00 0.564E-01 0.000E+00
   -.338E+00 0.110E+00 -.182E-08   -.169E-07 0.802E-09 -.411E-08   0.116E+00 -.627E-01 0.000E+00
   0.696E+00 0.656E+00 -.296E-08   -.169E-07 0.802E-09 -.411E-08   -.413E+00 -.408E+00 0.000E+00
   -.133E+00 -.723E-01 -.176E-08   -.169E-07 0.130E-07 -.411E-08   0.673E-01 0.298E-01 0.000E+00
   0.174E+00 -.667E+00 -.482E-08   -.169E-07 0.130E-07 -.411E-08   -.867E-01 0.314E+00 0.000E+00
   0.537E+00 0.183E+00 -.149E-09   0.802E-09 -.169E-07 -.411E-08   -.353E+00 -.117E+00 0.000E+00
   0.184E+00 0.380E+00 -.365E-08   0.802E-09 -.169E-07 -.411E-08   -.265E+00 -.217E+00 0.000E+00
   -.169E+00 -.191E+00 -.175E-08   0.802E-09 0.802E-09 -.411E-08   0.197E+00 0.153E+00 0.000E+00
   -.556E+00 -.424E+00 -.442E-08   0.802E-09 0.802E-09 -.411E-08   0.240E+00 0.301E+00 0.000E+00
   -.743E-01 0.158E-01 -.155E-08   0.802E-09 0.130E-07 -.411E-08   0.477E-01 -.263E-01 0.000E+00
   0.649E+00 0.161E+00 -.615E-08   0.802E-09 0.130E-07 -.411E-08   -.366E+00 -.852E-01 0.000E+00
   -.770E+00 -.130E+00 0.687E-09   0.130E-07 -.169E-07 -.411E-08   0.426E+00 0.126E+00 0.000E+00
   0.408E+00 -.969E-01 -.320E-08   0.130E-07 -.169E-07 -.411E-08   -.277E+00 0.604E-01 0.000E+00
   0.441E+00 0.544E+00 -.126E-08   0.130E-07 0.802E-09 -.411E-08   -.110E+00 -.353E+00 0.000E+00
   -.385E-01 0.913E-01 -.390E-08   0.130E-07 0.802E-09 -.411E-08   0.794E-01 -.968E-01 0.000E+00
   0.111E+00 -.469E+00 -.115E-08   0.130E-07 0.130E-07 -.411E-08   0.162E+00 0.305E+00 0.000E+00
   -.415E+00 -.214E-01 -.593E-08   0.130E-07 0.130E-07 -.411E-08   0.381E+00 0.391E-01 0.000E+00
 -----------------------------------------------------------------------------------------------
   0.128E+00 0.363E-01 -.836E-07   -.197E-14 0.275E-13 0.265E-14   -.128E+00 -.363E-01 0.000E+00
 
 
 POSITION                                       TOTAL-FORCE (eV/Angst)
 -----------------------------------------------------------------------------------
      0.00000      0.00000      0.00000         0.020946      0.072808     -0.013308
      0.00000      0.00000      3.47664         0.020946      0.072808      0.013308
      0.00000      2.75005      0.00000         0.030801     -0.043451     -0.019642
      0.00000      2.75005      3.47664         0.030801     -0.043451      0.019642
      0.00000      5.50010      0.00000        -0.022124     -0.005658      0.047952
      0.00000      5.50010      3.47664        -0.022124     -0.005658     -0.047952
      2.75005      0.00000      0.00000        -0.058197     -0.112604      0.100188
      2.75005      0.00000      3.47664        -0.058197     -0.112604     -0.100188
      2.75005      2.75005      0.00000         0.094421      0.095255      0.017565
      2.75005      2.75005      3.47664         0.094421      0.095255     -0.017565
      2.75005      5.50010      0.00000        -0.136435      0.002700      0.039154
      2.75005      5.50010      3.47664        -0.136435      0.002700     -0.039154
      5.50010      0.00000      0.00000         0.007517      0.051204     -0.025843
      5.50010      0.00000      3.47664         0.007517      0.051204      0.025843
      5.50010      2.75005      0.00000        -0.118469     -0.188477     -0.054108
      5.50010      2.75005      3.47664        -0.118469     -0.188477      0.054108
      5.50010      5.50010      0.00000         0.135505      0.142933      0.031251
      5.50010      5.50010      3.47664         0.135505      0.142933     -0.031251
      1.37502      1.37502      1.73832        -0.105744     -0.026890      0.000000
      1.37502      1.37502      5.21496        -0.374583     -0.038685      0.000000
      1.37502      4.12507      1.73832        -0.233514      0.051159      0.000000
      1.37502      4.12507      5.21496         0.297242      0.262672      0.000000
      1.37502      6.87512      1.73832        -0.066719     -0.047162      0.000000
      1.37502      6.87512      5.21496         0.092854     -0.368887      0.000000
      4.12507      1.37502      1.73832         0.193527      0.069373      0.000000
      4.12507      1.37502      5.21496        -0.079900      0.162580      0.000000
      4.12507      4.12507      1.73832         0.025584     -0.044321      0.000000
      4.12507      4.12507      5.21496        -0.328751     -0.116917      0.000000
      4.12507      6.87512      1.73832        -0.030443     -0.006782      0.000000
      4.12507      6.87512      5.21496         0.295788      0.079181      0.000000
      6.87512      1.37502      1.73832        -0.361617     -0.005509      0.000000
      6.87512      1.37502      5.21496         0.142587     -0.038980      0.000000
      6.87512      4.12507      1.73832         0.341224      0.191060      0.000000
      6.87512      4.12507      5.21496         0.044021     -0.004287      0.000000
      6.87512      6.87512      1.73832         0.274191     -0.165993      0.000000
      6.87512      6.87512      5.21496        -0.033676      0.018966      0.000000
 -----------------------------------------------------------------------------------
    total drift:                               -0.000020      0.000004     -0.000000


--------------------------------------------------------------------------------------------------------



  FREE ENERGIE OF THE ION-ELECTRON SYSTEM (eV)
  ---------------------------------------------------
  free  energy   TOTEN  =      -235.90264045 eV

  energy  without entropy=     -235.90818062  energy(sigma->0) =     -235.90448717
 


--------------------------------------------------------------------------------------------------------


    POTLOK:  cpu time    0.7156: real time    0.7258


--------------------------------------------------------------------------------------------------------


     LOOP+:  cpu time 1196.8561: real time 1208.7883
    4ORBIT:  cpu time    0.0000: real time    0.0000
 


 total charge     
 
# of ion       s       p       d       tot
------------------------------------------
    1        0.406   0.426   0.000   0.832
    2        0.405   0.425   0.000   0.831
    3        0.405   0.426   0.000   0.831
    4        0.405   0.426   0.000   0.832
    5        0.405   0.425   0.000   0.830
    6        0.405   0.425   0.000   0.830
    7        0.405   0.430   0.000   0.835
    8        0.405   0.430   0.000   0.835
    9        0.405   0.429   0.000   0.833
   10        0.405   0.429   0.000   0.834
   11        0.405   0.426   0.000   0.831
   12        0.405   0.426   0.000   0.831
   13        0.405   0.429   0.000   0.833
   14        0.405   0.429   0.000   0.834
   15        0.405   0.429   0.000   0.834
   16        0.405   0.429   0.000   0.834
   17        0.405   0.429   0.000   0.834
   18        0.405   0.429   0.000   0.834
   19        0.330   0.355   5.143   5.828
   20        0.332   0.355   5.137   5.823
   21        0.333   0.352   5.138   5.823
   22        0.337   0.353   5.125   5.816
   23        0.332   0.349   5.145   5.827
   24        0.336   0.356   5.127   5.818
   25        0.331   0.356   5.124   5.811
   26        0.333   0.354   5.142   5.829
   27        0.330   0.355   5.141   5.825
   28        0.335   0.355   5.124   5.815
   29        0.334   0.352   5.138   5.824
   30        0.338   0.362   5.104   5.804
   31        0.337   0.356   5.118   5.812
   32        0.334   0.351   5.140   5.825
   33        0.335   0.355   5.122   5.812
   34        0.330   0.354   5.143   5.827
   35        0.334   0.353   5.134   5.821
   36        0.330   0.356   5.133   5.819
--------------------------------------------------
tot         13.293  14.074  92.379 119.746
 


 magnetization (x)
 
# of ion       s       p       d       tot
------------------------------------------
    1        0.000   0.002   0.000   0.002
    2        0.000   0.001   0.000   0.001
    3       -0.001  -0.000   0.000  -0.002
    4       -0.001  -0.001   0.000  -0.002
    5       -0.007  -0.015   0.000  -0.023
    6       -0.007  -0.015   0.000  -0.023
    7        0.000  -0.001   0.000  -0.000
    8        0.000  -0.001   0.000  -0.001
    9       -0.004  -0.008   0.000  -0.011
   10       -0.004  -0.008   0.000  -0.012
   11       -0.005  -0.012   0.000  -0.017
   12       -0.005  -0.012   0.000  -0.017
   13        0.009   0.018   0.000   0.027
   14        0.009   0.018   0.000   0.027
   15        0.005   0.011   0.000   0.016
   16        0.005   0.011   0.000   0.016
   17        0.004   0.008   0.000   0.012
   18        0.004   0.008   0.000   0.012
   19        0.014   0.032   1.958   2.004
   20       -0.029  -0.036  -2.193  -2.258
   21        0.015   0.007   2.314   2.336
   22        0.021   0.021   2.425   2.467
   23        0.017  -0.000   2.346   2.363
   24        0.030   0.032   2.287   2.349
   25       -0.005  -0.015  -2.349  -2.369
   26        0.029   0.019   2.183   2.231
   27       -0.015  -0.019  -2.096  -2.129
   28        0.019   0.019   2.408   2.447
   29       -0.026  -0.006  -2.323  -2.355
   30       -0.040  -0.034  -2.528  -2.602
   31       -0.033  -0.033  -2.366  -2.433
   32       -0.019  -0.002  -2.359  -2.380
   33        0.021   0.025   2.440   2.485
   34       -0.017  -0.025  -2.050  -2.093
   35        0.023   0.016   2.346   2.385
   36       -0.010  -0.014  -2.238  -2.262
--------------------------------------------------
tot         -0.005  -0.010   0.207   0.192
 

 total amount of memory used by VASP MPI-rank0   740218. kBytes
=======================================================================

   base      :      30000. kBytes
   nonl-proj :      34307. kBytes
   fftplans  :      21726. kBytes
   grid      :      14732. kBytes
   one-center:        279. kBytes
   wavefun   :     639174. kBytes
 
  
  
 General timing and accounting informations for this job:
 ========================================================
  
                  Total CPU time used (sec):     1222.552
                            User time (sec):     1200.256
                          System time (sec):       22.296
                         Elapsed time (sec):     1236.910
  
                   Maximum memory used (kb):      879288.
                   Average memory used (kb):           0.
  
                          Minor page faults:       540161
                          Major page faults:           20
                 Voluntary context switches:         5060
