 vasp.5.4.4.18Apr17-6-g9f103f2a35 (build Dec 20 2018 12:05:58) complex          
  
 executed on             LinuxIFC date 2019.06.20  19:49:10
 running on   32 total cores
 distrk:  each k-point on    8 cores,    4 groups
 distr:  one band on NCORES_PER_BAND=   4 cores,    2 groups


--------------------------------------------------------------------------------------------------------


 INCAR:
 POTCAR:    PAW_PBE Al 04Jan2001                  
 POTCAR:    PAW_PBE Mn 06Sep2000                  

 ----------------------------------------------------------------------------- 
|                                                                             |
|           W    W    AA    RRRRR   N    N  II  N    N   GGGG   !!!           |
|           W    W   A  A   R    R  NN   N  II  NN   N  G    G  !!!           |
|           W    W  A    A  R    R  N N  N  II  N N  N  G       !!!           |
|           W WW W  AAAAAA  RRRRR   N  N N  II  N  N N  G  GGG   !            |
|           WW  WW  A    A  R   R   N   NN  II  N   NN  G    G                |
|           W    W  A    A  R    R  N    N  II  N    N   GGGG   !!!           |
|                                                                             |
|      You have enabled k-point parallelism (KPAR>1).                         |
|      This developmental code was originally  written by Paul Kent at ORNL,  |
|      and carefully double checked in Vienna.                                |
|      GW as well as linear response parallelism added by Martijn Marsman     |
|      and Georg Kresse.                                                      |
|      Carefully verify results versus KPAR=1.                                |
|      Report problems to Paul Kent and Vienna.                               |
|                                                                             |
 ----------------------------------------------------------------------------- 

 POTCAR:    PAW_PBE Al 04Jan2001                  
   VRHFIN =Al: s2p1                                                             
   LEXCH  = PE                                                                  
   EATOM  =    53.5387 eV,    3.9350 Ry                                         
                                                                                
   TITEL  = PAW_PBE Al 04Jan2001                                                
   LULTRA =        F    use ultrasoft PP ?                                      
   IUNSCR =        1    unscreen: 0-lin 1-nonlin 2-no                           
   RPACOR =    1.500    partial core radius                                     
   POMASS =   26.981; ZVAL   =    3.000    mass and valenz                      
   RCORE  =    1.900    outmost cutoff radius                                   
   RWIGS  =    2.650; RWIGS  =    1.402    wigner-seitz radius (au A)           
   ENMAX  =  240.300; ENMIN  =  180.225 eV                                      
   ICORE  =        2    local potential                                         
   LCOR   =        T    correct aug charges                                     
   LPAW   =        T    paw PP                                                  
   EAUG   =  291.052                                                            
   DEXC   =    0.000                                                            
   RMAX   =    1.939    core radius for proj-oper                               
   RAUG   =    1.300    factor for augmentation sphere                          
   RDEP   =    1.966    radius for radial grids                                 
   RDEPT  =    1.856    core radius for aug-charge                              
                                                                                
   Atomic configuration                                                         
    6 entries                                                                   
     n  l   j            E        occ.                                          
     1  0  0.50     -1511.1048   2.0000                                         
     2  0  0.50      -108.1629   2.0000                                         
     2  1  1.50       -69.6402   6.0000                                         
     3  0  0.50        -7.7528   2.0000                                         
     3  1  1.50        -2.7121   1.0000                                         
     3  2  2.50        -2.7212   0.0000                                         
   Description                                                                  
     l       E           TYP  RCUT    TYP  RCUT                                 
     0     -7.7528455     23  1.900                                             
     0     -3.3096929     23  1.900                                             
     1     -2.7120682     23  1.900                                             
     1     13.6058260     23  1.900                                             
     2     -2.7211652      7  1.900                                             
  local pseudopotential read in
  partial core-charges read in
  partial kinetic energy density read in
  atomic valenz-charges read in
  non local Contribution for L=           0  read in
    real space projection operators read in
  non local Contribution for L=           0  read in
    real space projection operators read in
  non local Contribution for L=           1  read in
    real space projection operators read in
  non local Contribution for L=           1  read in
    real space projection operators read in
    PAW grid and wavefunctions read in
 
   number of l-projection  operators is LMAX  =           4
   number of lm-projection operators is LMMAX =           8
 
 POTCAR:    PAW_PBE Mn 06Sep2000                  
   VRHFIN =Mn: d6 s1                                                            
   LEXCH  = PE                                                                  
   EATOM  =   416.7541 eV,   30.6306 Ry                                         
                                                                                
   TITEL  = PAW_PBE Mn 06Sep2000                                                
   LULTRA =        F    use ultrasoft PP ?                                      
   IUNSCR =        1    unscreen: 0-lin 1-nonlin 2-no                           
   RPACOR =    2.000    partial core radius                                     
   POMASS =   54.938; ZVAL   =    7.000    mass and valenz                      
   RCORE  =    2.300    outmost cutoff radius                                   
   RWIGS  =    2.500; RWIGS  =    1.323    wigner-seitz radius (au A)           
   ENMAX  =  269.864; ENMIN  =  202.398 eV                                      
   RCLOC  =    1.725    cutoff for local pot                                    
   LCOR   =        T    correct aug charges                                     
   LPAW   =        T    paw PP                                                  
   EAUG   =  500.711                                                            
   DEXC   =    0.000                                                            
   RMAX   =    2.343    core radius for proj-oper                               
   RAUG   =    1.300    factor for augmentation sphere                          
   RDEP   =    2.338    radius for radial grids                                 
   RDEPT  =    1.911    core radius for aug-charge                              
                                                                                
   Atomic configuration                                                         
    9 entries                                                                   
     n  l   j            E        occ.                                          
     1  0  0.50     -6424.8288   2.0000                                         
     2  0  0.50      -739.1154   2.0000                                         
     2  1  1.50      -625.3949   6.0000                                         
     3  0  0.50       -81.6100   2.0000                                         
     3  1  1.50       -50.4667   6.0000                                         
     3  2  2.50        -3.3745   6.0000                                         
     4  0  0.50        -4.1331   1.0000                                         
     4  1  0.50        -4.0817   0.0000                                         
     4  3  2.50        -1.3606   0.0000                                         
   Description                                                                  
     l       E           TYP  RCUT    TYP  RCUT                                 
     2     -3.3744664     23  2.300                                             
     2     -4.7350490     23  2.300                                             
     0     -4.1331408     23  2.300                                             
     0      7.6656614     23  2.300                                             
     1     -2.7211652     23  2.300                                             
     1     20.4087390     23  2.300                                             
  local pseudopotential read in
  partial core-charges read in
  partial kinetic energy density read in
  atomic valenz-charges read in
  non local Contribution for L=           2  read in
    real space projection operators read in
  non local Contribution for L=           2  read in
    real space projection operators read in
  non local Contribution for L=           0  read in
    real space projection operators read in
  non local Contribution for L=           0  read in
    real space projection operators read in
  non local Contribution for L=           1  read in
    real space projection operators read in
  non local Contribution for L=           1  read in
    real space projection operators read in
    PAW grid and wavefunctions read in
 
   number of l-projection  operators is LMAX  =           6
   number of lm-projection operators is LMMAX =          18
 

 ----------------------------------------------------------------------------- 
|                                                                             |
|  ADVICE TO THIS USER RUNNING 'VASP/VAMP'   (HEAR YOUR MASTER'S VOICE ...):  |
|                                                                             |
|      You have a (more or less) 'large supercell' and for larger cells       |
|      it might be more efficient to use real space projection opertators     |
|      So try LREAL= Auto  in the INCAR   file.                               |
|      Mind:          For very  accurate calculation you might also keep the  |
|      reciprocal projection scheme          (i.e. LREAL=.FALSE.)             |
|                                                                             |
 ----------------------------------------------------------------------------- 

  PAW_PBE Al 04Jan2001                  :
 energy of atom  1       EATOM=  -53.5387
 kinetic energy error for atom=    0.0005 (will be added to EATOM!!)
  PAW_PBE Mn 06Sep2000                  :
 energy of atom  2       EATOM= -416.7541
 kinetic energy error for atom=    0.0080 (will be added to EATOM!!)
 
 
 POSCAR: NewRef: 27, @ ['Mn', array([1.37502469, 
  positions in cartesian coordinates
  velocities in cartesian coordinates
  No initial velocities read in
 exchange correlation table for  LEXCH =        8
   RHO(1)=    0.500       N(1)  =     2000
   RHO(2)=  100.500       N(2)  =     4000
 


--------------------------------------------------------------------------------------------------------


 ion  position               nearest neighbor table
   1  0.000  0.000  0.000-  28 2.61  30 2.61  34 2.61  36 2.61  46 2.61  48 2.61  52 2.61  54 2.61
                             4 2.75  10 2.75   7 2.75  19 2.75
   2  0.000  0.000  0.333-  28 2.61  34 2.61  46 2.61  52 2.61  29 2.61  47 2.61  35 2.61  53 2.61
                             5 2.75  11 2.75   8 2.75  20 2.75
   3  0.000  0.000  0.667-  29 2.61  35 2.61  47 2.61  53 2.61  30 2.61  48 2.61  36 2.61  54 2.61
                             6 2.75  12 2.75   9 2.75  21 2.75
   4  0.000  0.333  0.000-  28 2.61  30 2.61  46 2.61  48 2.61  31 2.61  33 2.61  49 2.61  51 2.61
                            13 2.75   1 2.75   7 2.75  22 2.75
   5  0.000  0.333  0.333-  28 2.61  46 2.61  31 2.61  49 2.61  47 2.61  29 2.61  32 2.61  50 2.61
                            14 2.75   2 2.75   8 2.75  23 2.75
   6  0.000  0.333  0.667-  29 2.61  47 2.61  32 2.61  50 2.61  48 2.61  30 2.61  33 2.61  51 2.61
                            15 2.75   3 2.75   9 2.75  24 2.75
   7  0.000  0.667  0.000-  31 2.61  33 2.61  49 2.61  51 2.61  34 2.61  36 2.61  52 2.61  54 2.61
                             4 2.75  16 2.75   1 2.75  25 2.75
   8  0.000  0.667  0.333-  31 2.61  49 2.61  34 2.61  52 2.61  50 2.61  32 2.61  35 2.61  53 2.61
                             5 2.75  17 2.75   2 2.75  26 2.75
   9  0.000  0.667  0.667-  32 2.61  50 2.61  35 2.61  53 2.61  51 2.61  33 2.61  36 2.61  54 2.61
                             6 2.75  18 2.75   3 2.75  27 2.75
  10  0.333  0.000  0.000-  28 2.61  30 2.61  34 2.61  36 2.61  37 2.61  39 2.61  43 2.61  45 2.61
                            19 2.75   1 2.75  13 2.75  16 2.75
  11  0.333  0.000  0.333-  28 2.61  34 2.61  37 2.61  43 2.61  29 2.61  35 2.61  38 2.61  44 2.61
                            20 2.75   2 2.75  14 2.75  17 2.75
  12  0.333  0.000  0.667-  29 2.61  35 2.61  38 2.61  44 2.61  30 2.61  36 2.61  39 2.61  45 2.61
                            21 2.75   3 2.75  15 2.75  18 2.75
  13  0.333  0.333  0.000-  28 2.61  30 2.61  31 2.61  33 2.61  37 2.61  39 2.61  40 2.61  42 2.61
                             4 2.75  10 2.75  16 2.75  22 2.75
  14  0.333  0.333  0.333-  28 2.61  31 2.61  37 2.61  29 2.61  40 2.61  38 2.61  32 2.61  41 2.61
                             5 2.75  11 2.75  17 2.75  23 2.75
  15  0.333  0.333  0.667-  29 2.61  32 2.61  38 2.61  30 2.61  41 2.61  39 2.61  33 2.61  42 2.61
                             6 2.75  12 2.75  18 2.75  24 2.75
  16  0.333  0.667  0.000-  31 2.61  33 2.61  34 2.61  36 2.61  40 2.61  42 2.61  43 2.61  45 2.61
                            25 2.75   7 2.75  13 2.75  10 2.75
  17  0.333  0.667  0.333-  31 2.61  34 2.61  40 2.61  32 2.61  43 2.61  41 2.61  35 2.61  44 2.61
                            26 2.75   8 2.75  14 2.75  11 2.75
  18  0.333  0.667  0.667-  32 2.61  35 2.61  41 2.61  33 2.61  44 2.61  42 2.61  36 2.61  45 2.61
                            27 2.75   9 2.75  15 2.75  12 2.75
  19  0.667  0.000  0.000-  37 2.61  39 2.61  43 2.61  45 2.61  46 2.61  48 2.61  52 2.61  54 2.61
                            10 2.75  22 2.75   1 2.75  25 2.75
  20  0.667  0.000  0.333-  37 2.61  43 2.61  46 2.61  52 2.61  38 2.61  44 2.61  47 2.61  53 2.61
                            11 2.75  23 2.75   2 2.75  26 2.75
  21  0.667  0.000  0.667-  38 2.61  44 2.61  47 2.61  53 2.61  39 2.61  45 2.61  48 2.61  54 2.61
                            12 2.75  24 2.75   3 2.75  27 2.75
  22  0.667  0.333  0.000-  37 2.61  39 2.61  40 2.61  42 2.61  46 2.61  48 2.61  49 2.61  51 2.61
                            25 2.75  13 2.75  19 2.75   4 2.75
  23  0.667  0.333  0.333-  37 2.61  40 2.61  46 2.61  38 2.61  49 2.61  47 2.61  41 2.61  50 2.61
                            26 2.75  14 2.75  20 2.75   5 2.75
  24  0.667  0.333  0.667-  38 2.61  41 2.61  47 2.61  39 2.61  50 2.61  48 2.61  42 2.61  51 2.61
                            27 2.75  15 2.75  21 2.75   6 2.75
  25  0.667  0.667  0.000-  40 2.61  42 2.61  43 2.61  45 2.61  49 2.61  51 2.61  52 2.61  54 2.61
                            16 2.75  22 2.75  19 2.75   7 2.75
  26  0.667  0.667  0.333-  40 2.61  43 2.61  49 2.61  41 2.61  52 2.61  50 2.61  44 2.61  53 2.61
                            17 2.75  23 2.75  20 2.75   8 2.75
  27  0.667  0.667  0.667-  41 2.61  44 2.61  50 2.61  42 2.61  53 2.61  51 2.61  45 2.61  54 2.61
                            18 2.75  24 2.75  21 2.75   9 2.75
  28  0.167  0.167  0.167-  14 2.61  11 2.61   5 2.61  13 2.61   2 2.61  10 2.61   4 2.61   1 2.61
                            31 2.75  37 2.75  34 2.75  46 2.75
  29  0.167  0.167  0.500-  15 2.61  12 2.61   6 2.61  14 2.61   3 2.61  11 2.61   5 2.61   2 2.61
                            32 2.75  38 2.75  35 2.75  47 2.75
  30  0.167  0.167  0.833-  13 2.61  15 2.61  10 2.61  12 2.61   4 2.61   6 2.61   1 2.61   3 2.61
                            33 2.75  39 2.75  36 2.75  48 2.75
  31  0.167  0.500  0.167-  17 2.61  14 2.61   8 2.61  16 2.61   5 2.61  13 2.61   7 2.61   4 2.61
                            28 2.75  34 2.75  40 2.75  49 2.75
  32  0.167  0.500  0.500-  18 2.61  15 2.61   9 2.61  17 2.61   6 2.61  14 2.61   8 2.61   5 2.61
                            29 2.75  35 2.75  41 2.75  50 2.75
  33  0.167  0.500  0.833-  16 2.61  18 2.61  13 2.61  15 2.61   7 2.61   9 2.61   4 2.61   6 2.61
                            30 2.75  36 2.75  42 2.75  51 2.75
  34  0.167  0.833  0.167-  11 2.61  17 2.61   2 2.61   8 2.61  16 2.61  10 2.61   7 2.61   1 2.61
                            31 2.75  43 2.75  28 2.75  52 2.75
  35  0.167  0.833  0.500-  12 2.61  18 2.61   3 2.61   9 2.61  17 2.61  11 2.61   8 2.61   2 2.61
                            32 2.75  44 2.75  29 2.75  53 2.75
  36  0.167  0.833  0.833-  10 2.61  12 2.61  16 2.61  18 2.61   1 2.61   3 2.61   7 2.61   9 2.61
                            33 2.75  45 2.75  30 2.75  54 2.75
  37  0.500  0.167  0.167-  23 2.61  20 2.61  14 2.61  22 2.61  11 2.61  19 2.61  13 2.61  10 2.61
                            28 2.75  40 2.75  46 2.75  43 2.75
  38  0.500  0.167  0.500-  24 2.61  21 2.61  15 2.61  23 2.61  12 2.61  20 2.61  14 2.61  11 2.61
                            29 2.75  41 2.75  47 2.75  44 2.75
  39  0.500  0.167  0.833-  22 2.61  24 2.61  19 2.61  21 2.61  13 2.61  15 2.61  10 2.61  12 2.61
                            30 2.75  42 2.75  48 2.75  45 2.75
  40  0.500  0.500  0.167-  26 2.61  23 2.61  17 2.61  25 2.61  14 2.61  22 2.61  16 2.61  13 2.61
                            31 2.75  37 2.75  43 2.75  49 2.75
  41  0.500  0.500  0.500-  27 2.61  24 2.61  18 2.61  26 2.61  15 2.61  23 2.61  17 2.61  14 2.61
                            32 2.75  38 2.75  44 2.75  50 2.75
  42  0.500  0.500  0.833-  25 2.61  27 2.61  22 2.61  24 2.61  16 2.61  18 2.61  13 2.61  15 2.61
                            33 2.75  39 2.75  45 2.75  51 2.75
  43  0.500  0.833  0.167-  20 2.61  26 2.61  11 2.61  17 2.61  25 2.61  19 2.61  16 2.61  10 2.61
                            34 2.75  40 2.75  52 2.75  37 2.75
  44  0.500  0.833  0.500-  21 2.61  27 2.61  12 2.61  18 2.61  26 2.61  20 2.61  17 2.61  11 2.61
                            35 2.75  41 2.75  53 2.75  38 2.75
  45  0.500  0.833  0.833-  19 2.61  21 2.61  25 2.61  27 2.61  10 2.61  12 2.61  16 2.61  18 2.61
                            36 2.75  42 2.75  54 2.75  39 2.75
  46  0.833  0.167  0.167-   5 2.61  23 2.61  20 2.61   2 2.61  22 2.61   4 2.61  19 2.61   1 2.61
                            37 2.75  49 2.75  28 2.75  52 2.75
  47  0.833  0.167  0.500-   6 2.61  24 2.61  21 2.61   3 2.61  23 2.61   5 2.61  20 2.61   2 2.61
                            38 2.75  50 2.75  29 2.75  53 2.75
  48  0.833  0.167  0.833-   4 2.61   6 2.61  22 2.61  24 2.61  19 2.61  21 2.61   1 2.61   3 2.61
                            39 2.75  51 2.75  30 2.75  54 2.75
  49  0.833  0.500  0.167-   8 2.61  26 2.61  23 2.61   5 2.61  25 2.61   7 2.61  22 2.61   4 2.61
                            40 2.75  46 2.75  52 2.75  31 2.75
  50  0.833  0.500  0.500-   9 2.61  27 2.61  24 2.61   6 2.61  26 2.61   8 2.61  23 2.61   5 2.61
                            41 2.75  47 2.75  53 2.75  32 2.75
  51  0.833  0.500  0.833-   7 2.61   9 2.61  25 2.61  27 2.61  22 2.61  24 2.61   4 2.61   6 2.61
                            42 2.75  48 2.75  54 2.75  33 2.75
  52  0.833  0.833  0.167-   2 2.61   8 2.61  20 2.61  26 2.61  19 2.61   7 2.61  25 2.61   1 2.61
                            43 2.75  49 2.75  46 2.75  34 2.75
  53  0.833  0.833  0.500-   3 2.61   9 2.61  21 2.61  27 2.61  20 2.61   8 2.61  26 2.61   2 2.61
                            44 2.75  50 2.75  47 2.75  35 2.75
  54  0.833  0.833  0.833-   1 2.61   3 2.61   7 2.61   9 2.61  19 2.61  21 2.61  25 2.61  27 2.61
                            45 2.75  51 2.75  48 2.75  36 2.75
 
  LATTYP: Found a simple tetragonal cell.
 ALAT       =     8.2501481662
 C/A-ratio  =     1.2642089792
  
  Lattice vectors:
  
 A1 = (   8.2501481662,   0.0000000000,   0.0000000000)
 A2 = (   0.0000000000,   8.2501481662,   0.0000000000)
 A3 = (   0.0000000000,   0.0000000000,  10.4299113916)


Analysis of symmetry for initial positions (statically):
=====================================================================
 Subroutine PRICEL returns following result:
 
  LATTYP: Found a simple tetragonal cell.
 ALAT       =     2.7500493888
 C/A-ratio  =     1.2642089792
  
  Lattice vectors:
  
 A1 = (   2.7500493888,   0.0000000000,   0.0000000000)
 A2 = (   0.0000000000,   2.7500493888,   0.0000000000)
 A3 = (   0.0000000000,   0.0000000000,   3.4766371306)
 
  27 primitive cells build up your supercell.
 

 Routine SETGRP: Setting up the symmetry group for a 
 simple tetragonal supercell.


 Subroutine GETGRP returns: Found 16 space group operations
 (whereof 16 operations were pure point group operations)
 out of a pool of 16 trial point group operations.


The static configuration has the point symmetry D_4h.


Analysis of symmetry for dynamics (positions and initial velocities):
=====================================================================
 Subroutine PRICEL returns following result:
 
  LATTYP: Found a simple tetragonal cell.
 ALAT       =     2.7500493888
 C/A-ratio  =     1.2642089792
  
  Lattice vectors:
  
 A1 = (   2.7500493888,   0.0000000000,   0.0000000000)
 A2 = (   0.0000000000,   2.7500493888,   0.0000000000)
 A3 = (   0.0000000000,   0.0000000000,   3.4766371306)
 
  27 primitive cells build up your supercell.
 

 Routine SETGRP: Setting up the symmetry group for a 
 simple tetragonal supercell.


 Subroutine GETGRP returns: Found 16 space group operations
 (whereof 16 operations were pure point group operations)
 out of a pool of 16 trial point group operations.


The dynamic configuration has the point symmetry D_4h.


Analysis of structural, dynamic, and magnetic symmetry:
=====================================================================
 Subroutine PRICEL returns:
 Original cell was already a primitive cell.
 

 Routine SETGRP: Setting up the symmetry group for a 
 simple tetragonal supercell.


 Subroutine GETGRP returns: Found  8 space group operations
 (whereof  2 operations were pure point group operations)
 out of a pool of 16 trial point group operations.


The magnetic configuration has the point symmetry C_1h.
 The point group associated with its full space group is C_4v.


 Subroutine INISYM returns: Found  8 space group operations
 (whereof  2 operations are pure point group operations),
 and found     1 'primitive' translations

 
 
 KPOINTS: automatic KPOINTS                       

Automatic generation of k-mesh.
 generate k-points for:    5    5    4
Space group operators:
 irot       det(A)        alpha          n_x          n_y          n_z        tau_x        tau_y        tau_z
    1     1.000000     0.000001     1.000000     0.000000     0.000000     0.000000     0.000000     0.000000
    2    -1.000000   180.000000     0.707107    -0.707107     0.000000     0.000000     0.000000     0.000000
    3     1.000000    90.000000     0.000000     0.000000    -1.000000     0.333333     0.000000     0.000000
    4     1.000000   180.000000     0.000000     0.000000     1.000000     0.333333     0.333333     0.000000
    5     1.000000    90.000000     0.000000     0.000000     1.000000     0.000000     0.333333     0.000000
    6    -1.000000   180.000000     0.000000     1.000000     0.000000     0.000000     0.333333     0.000000
    7    -1.000000   180.000000     0.707107     0.707107     0.000000     0.333333     0.333333     0.000000
    8    -1.000000   180.000000     1.000000     0.000000     0.000000     0.333333     0.000000     0.000000
 
 Subroutine IBZKPT returns following result:
 ===========================================
 
 Found     18 irreducible k-points:
 
 Following reciprocal coordinates:
            Coordinates               Weight
  0.000000  0.000000  0.000000      1.000000
  0.200000  0.000000  0.000000      4.000000
  0.400000  0.000000  0.000000      4.000000
  0.200000  0.200000  0.000000      4.000000
  0.400000  0.200000  0.000000      8.000000
  0.400000  0.400000  0.000000      4.000000
  0.000000  0.000000  0.250000      2.000000
  0.200000  0.000000  0.250000      8.000000
  0.400000  0.000000  0.250000      8.000000
  0.200000  0.200000  0.250000      8.000000
  0.400000  0.200000  0.250000     16.000000
  0.400000  0.400000  0.250000      8.000000
  0.000000  0.000000  0.500000      1.000000
  0.200000  0.000000  0.500000      4.000000
  0.400000  0.000000  0.500000      4.000000
  0.200000  0.200000  0.500000      4.000000
  0.400000  0.200000  0.500000      8.000000
  0.400000  0.400000  0.500000      4.000000
 
 Following cartesian coordinates:
            Coordinates               Weight
  0.000000  0.000000  0.000000      1.000000
  0.024242  0.000000  0.000000      4.000000
  0.048484  0.000000  0.000000      4.000000
  0.024242  0.024242  0.000000      4.000000
  0.048484  0.024242  0.000000      8.000000
  0.048484  0.048484  0.000000      4.000000
  0.000000  0.000000  0.023970      2.000000
  0.024242  0.000000  0.023970      8.000000
  0.048484  0.000000  0.023970      8.000000
  0.024242  0.024242  0.023970      8.000000
  0.048484  0.024242  0.023970     16.000000
  0.048484  0.048484  0.023970      8.000000
  0.000000  0.000000  0.047939      1.000000
  0.024242  0.000000  0.047939      4.000000
  0.048484  0.000000  0.047939      4.000000
  0.024242  0.024242  0.047939      4.000000
  0.048484  0.024242  0.047939      8.000000
  0.048484  0.048484  0.047939      4.000000
 


--------------------------------------------------------------------------------------------------------




 Dimension of arrays:
   k-points           NKPTS =     18   k-points in BZ     NKDIM =     18   number of bands    NBANDS=    178
   number of dos      NEDOS =    301   number of ions     NIONS =     54
   non local maximal  LDIM  =      6   non local SUM 2l+1 LMDIM =     18
   total plane-waves  NPLWV = 204120
   max r-space proj   IRMAX =      1   max aug-charges    IRDMAX=  89713
   dimension x,y,z NGX =    54 NGY =   54 NGZ =   70
   dimension x,y,z NGXF=   108 NGYF=  108 NGZF=  140
   support grid    NGXF=   216 NGYF=  216 NGZF=  280
   ions per type =              27  27
   NGX,Y,Z   is equivalent  to a cutoff of  10.88, 10.88, 11.16 a.u.
   NGXF,Y,Z  is equivalent  to a cutoff of  21.76, 21.76, 22.32 a.u.

 SYSTEM =  AlMn_pv                                 
 POSCAR =  NewRef: 27, @ ['Mn', array([1.37502469, 

 Startparameter for this run:
   NWRITE =      2    write-flag & timer
   PREC   = accura    normal or accurate (medium, high low for compatibility)
   ISTART =      0    job   : 0-new  1-cont  2-samecut
   ICHARG =      2    charge: 1-file 2-atom 10-const
   ISPIN  =      2    spin polarized calculation?
   LNONCOLLINEAR =      F non collinear calculations
   LSORBIT =      F    spin-orbit coupling
   INIWAV =      1    electr: 0-lowe 1-rand  2-diag
   LASPH  =      F    aspherical Exc in radial PAW
   METAGGA=      F    non-selfconsistent MetaGGA calc.

 Electronic Relaxation 1
   ENCUT  =  404.8 eV  29.75 Ry    5.45 a.u.  13.53 13.53 17.11*2*pi/ulx,y,z
   ENINI  =  404.8     initial cutoff
   ENAUG  =  500.7 eV  augmentation charge cutoff
   NELM   =    100;   NELMIN=  4; NELMDL= -8     # of ELM steps 
   EDIFF  = 0.1E-06   stopping-criterion for ELM
   LREAL  =      F    real-space projection
   NLSPLINE    = F    spline interpolate recip. space projectors
   LCOMPAT=      F    compatible to vasp.4.4
   GGA_COMPAT  = T    GGA compatible to vasp.4.4-vasp.4.6
   LMAXPAW     = -100 max onsite density
   LMAXMIX     =    2 max onsite mixed and CHGCAR
   VOSKOWN=      0    Vosko Wilk Nusair interpolation
   ROPT   =    0.00000   0.00000
 Ionic relaxation
   EDIFFG = 0.1E-05   stopping-criterion for IOM
   NSW    =      0    number of steps for IOM
   NBLOCK =      1;   KBLOCK =      1    inner block; outer block 
   IBRION =     -1    ionic relax: 0-MD 1-quasi-New 2-CG
   NFREE  =      0    steps in history (QN), initial steepest desc. (CG)
   ISIF   =      2    stress and relaxation
   IWAVPR =     10    prediction:  0-non 1-charg 2-wave 3-comb
   ISYM   =      2    0-nonsym 1-usesym 2-fastsym
   LCORR  =      T    Harris-Foulkes like correction to forces

   POTIM  = 0.2000    time-step for ionic-motion
   TEIN   =    0.0    initial temperature
   TEBEG  =    0.0;   TEEND  =   0.0 temperature during run
   SMASS  =  -3.00    Nose mass-parameter (am)
   estimated Nose-frequenzy (Omega)   =  0.10E-29 period in steps =****** mass=  -0.156E-26a.u.
   SCALEE = 1.0000    scale energy and forces
   NPACO  =    256;   APACO  = 16.0  distance and # of slots for P.C.
   PSTRESS=    0.0 pullay stress

  Mass of Ions in am
   POMASS =  26.98 54.94
  Ionic Valenz
   ZVAL   =   3.00  7.00
  Atomic Wigner-Seitz radii
   RWIGS  =  -1.00 -1.00
  virtual crystal weights 
   VCA    =   1.00  1.00
   NELECT =     270.0000    total number of electrons
   NUPDOWN=      -1.0000    fix difference up-down

 DOS related values:
   EMIN   =  10.00;   EMAX   =-10.00  energy-range for DOS
   EFERMI =   0.00
   ISMEAR =     1;   SIGMA  =   0.20  broadening in eV -4-tet -1-fermi 0-gaus

 Electronic relaxation 2 (details)
   IALGO  =     58    algorithm
   LDIAG  =      T    sub-space diagonalisation (order eigenvalues)
   LSUBROT=      F    optimize rotation matrix (better conditioning)
   TURBO    =      0    0=normal 1=particle mesh
   IRESTART =      0    0=no restart 2=restart with 2 vectors
   NREBOOT  =      0    no. of reboots
   NMIN     =      0    reboot dimension
   EREF     =   0.00    reference energy to select bands
   IMIX   =      4    mixing-type and parameters
     AMIX     =   0.40;   BMIX     =  1.00
     AMIX_MAG =   1.60;   BMIX_MAG =  1.00
     AMIN     =   0.10
     WC   =   100.;   INIMIX=   1;  MIXPRE=   1;  MAXMIX= -45

 Intra band minimization:
   WEIMIN = 0.0000     energy-eigenvalue tresh-hold
   EBREAK =  0.14E-09  absolut break condition
   DEPER  =   0.30     relativ break condition  

   TIME   =   0.40     timestep for ELM

  volume/ion in A,a.u.               =      13.15        88.72
  Fermi-wavevector in a.u.,A,eV,Ry     =   1.186118  2.241439 19.141722  1.406877
  Thomas-Fermi vector in A             =   2.322298
 
 Write flags
   LWAVE        =      F    write WAVECAR
   LDOWNSAMPLE  =      F    k-point downsampling of WAVECAR
   LCHARG       =      F    write CHGCAR
   LVTOT        =      F    write LOCPOT, total local potential
   LVHAR        =      F    write LOCPOT, Hartree potential only
   LELF         =      F    write electronic localiz. function (ELF)
   LORBIT       =     10    0 simple, 1 ext, 2 COOP (PROOUT), +10 PAW based schemes


 Dipole corrections
   LMONO  =      F    monopole corrections only (constant potential shift)
   LDIPOL =      F    correct potential (dipole corrections)
   IDIPOL =      0    1-x, 2-y, 3-z, 4-all directions 
   EPSILON=  1.0000000 bulk dielectric constant

 Exchange correlation treatment:
   GGA     =    --    GGA type
   LEXCH   =     8    internal setting for exchange type
   VOSKOWN=      0    Vosko Wilk Nusair interpolation
   LHFCALC =     F    Hartree Fock is set to
   LHFONE  =     F    Hartree Fock one center treatment
   AEXX    =    0.0000 exact exchange contribution

 Linear response parameters
   LEPSILON=     F    determine dielectric tensor
   LRPA    =     F    only Hartree local field effects (RPA)
   LNABLA  =     F    use nabla operator in PAW spheres
   LVEL    =     F    velocity operator in full k-point grid
   LINTERFAST=   F  fast interpolation
   KINTER  =     0    interpolate to denser k-point grid
   CSHIFT  =0.1000    complex shift for real part using Kramers Kronig
   OMEGAMAX=  -1.0    maximum frequency
   DEG_THRESHOLD= 0.2000000E-02 threshold for treating states as degnerate
   RTIME   =   -0.100 relaxation time in fs
  (WPLASMAI=    0.000 imaginary part of plasma frequency in eV, 0.658/RTIME)
   DFIELD  = 0.0000000 0.0000000 0.0000000 field for delta impulse in time
 
 Orbital magnetization related:
   ORBITALMAG=     F  switch on orbital magnetization
   LCHIMAG   =     F  perturbation theory with respect to B field
   DQ        =  0.001000  dq finite difference perturbation B field
   LLRAUG    =     F  two centre corrections for induced B field



--------------------------------------------------------------------------------------------------------


 Static calculation
 charge density and potential will be updated during run
 spin polarized calculation
 Conjugate gradient for all bands (Freysoldt, et al. PRB 79, 241103 (2009))
 preconditioned conjugated gradient                                        
 perform sub-space diagonalisation
    before iterative eigenvector-optimisation
 modified Broyden-mixing scheme, WC =      100.0
 initial mixing is a Kerker type mixing with AMIX =  0.4000 and BMIX =      1.0000
 Hartree-type preconditioning will be used
 using additional bands           43
 reciprocal scheme for non local part
 use partial core corrections
 no Harris-corrections to forces 
 use gradient corrections 
 use of overlap-Matrix (Vanderbilt PP)
 Methfessel and Paxton  Order N= 1 SIGMA  =   0.20


--------------------------------------------------------------------------------------------------------


  energy-cutoff  :      404.80
  volume of cell :      709.91
      direct lattice vectors                 reciprocal lattice vectors
     8.250148166  0.000000000  0.000000000     0.121209944  0.000000000  0.000000000
     0.000000000  8.250148166  0.000000000     0.000000000  0.121209944  0.000000000
     0.000000000  0.000000000 10.429911392     0.000000000  0.000000000  0.095878092

  length of vectors
     8.250148166  8.250148166 10.429911392     0.121209944  0.121209944  0.095878092


 
 k-points in units of 2pi/SCALE and weight: automatic KPOINTS                       
   0.00000000  0.00000000  0.00000000       0.010
   0.02424199  0.00000000  0.00000000       0.040
   0.04848398  0.00000000  0.00000000       0.040
   0.02424199  0.02424199  0.00000000       0.040
   0.04848398  0.02424199  0.00000000       0.080
   0.04848398  0.04848398  0.00000000       0.040
   0.00000000  0.00000000  0.02396952       0.020
   0.02424199  0.00000000  0.02396952       0.080
   0.04848398  0.00000000  0.02396952       0.080
   0.02424199  0.02424199  0.02396952       0.080
   0.04848398  0.02424199  0.02396952       0.160
   0.04848398  0.04848398  0.02396952       0.080
   0.00000000  0.00000000  0.04793905       0.010
   0.02424199  0.00000000  0.04793905       0.040
   0.04848398  0.00000000  0.04793905       0.040
   0.02424199  0.02424199  0.04793905       0.040
   0.04848398  0.02424199  0.04793905       0.080
   0.04848398  0.04848398  0.04793905       0.040
 
 k-points in reciprocal lattice and weights: automatic KPOINTS                       
   0.00000000  0.00000000  0.00000000       0.010
   0.20000000  0.00000000  0.00000000       0.040
   0.40000000  0.00000000  0.00000000       0.040
   0.20000000  0.20000000  0.00000000       0.040
   0.40000000  0.20000000  0.00000000       0.080
   0.40000000  0.40000000  0.00000000       0.040
   0.00000000  0.00000000  0.25000000       0.020
   0.20000000  0.00000000  0.25000000       0.080
   0.40000000  0.00000000  0.25000000       0.080
   0.20000000  0.20000000  0.25000000       0.080
   0.40000000  0.20000000  0.25000000       0.160
   0.40000000  0.40000000  0.25000000       0.080
   0.00000000  0.00000000  0.50000000       0.010
   0.20000000  0.00000000  0.50000000       0.040
   0.40000000  0.00000000  0.50000000       0.040
   0.20000000  0.20000000  0.50000000       0.040
   0.40000000  0.20000000  0.50000000       0.080
   0.40000000  0.40000000  0.50000000       0.040
 
 position of ions in fractional coordinates (direct lattice) 
   0.00000000  0.00000000  0.00000000
   0.00000000  0.00000000  0.33333333
   0.00000000  0.00000000  0.66666667
   0.00000000  0.33333333  0.00000000
   0.00000000  0.33333333  0.33333333
   0.00000000  0.33333333  0.66666667
   0.00000000  0.66666667  0.00000000
   0.00000000  0.66666667  0.33333333
   0.00000000  0.66666667  0.66666667
   0.33333333  0.00000000  0.00000000
   0.33333333  0.00000000  0.33333333
   0.33333333  0.00000000  0.66666667
   0.33333333  0.33333333  0.00000000
   0.33333333  0.33333333  0.33333333
   0.33333333  0.33333333  0.66666667
   0.33333333  0.66666667  0.00000000
   0.33333333  0.66666667  0.33333333
   0.33333333  0.66666667  0.66666667
   0.66666667  0.00000000  0.00000000
   0.66666667  0.00000000  0.33333333
   0.66666667  0.00000000  0.66666667
   0.66666667  0.33333333  0.00000000
   0.66666667  0.33333333  0.33333333
   0.66666667  0.33333333  0.66666667
   0.66666667  0.66666667  0.00000000
   0.66666667  0.66666667  0.33333333
   0.66666667  0.66666667  0.66666667
   0.16666667  0.16666667  0.16666667
   0.16666667  0.16666667  0.50000000
   0.16666667  0.16666667  0.83333333
   0.16666667  0.50000000  0.16666667
   0.16666667  0.50000000  0.50000000
   0.16666667  0.50000000  0.83333333
   0.16666667  0.83333333  0.16666667
   0.16666667  0.83333333  0.50000000
   0.16666667  0.83333333  0.83333333
   0.50000000  0.16666667  0.16666667
   0.50000000  0.16666667  0.50000000
   0.50000000  0.16666667  0.83333333
   0.50000000  0.50000000  0.16666667
   0.50000000  0.50000000  0.50000000
   0.50000000  0.50000000  0.83333333
   0.50000000  0.83333333  0.16666667
   0.50000000  0.83333333  0.50000000
   0.50000000  0.83333333  0.83333333
   0.83333333  0.16666667  0.16666667
   0.83333333  0.16666667  0.50000000
   0.83333333  0.16666667  0.83333333
   0.83333333  0.50000000  0.16666667
   0.83333333  0.50000000  0.50000000
   0.83333333  0.50000000  0.83333333
   0.83333333  0.83333333  0.16666667
   0.83333333  0.83333333  0.50000000
   0.83333333  0.83333333  0.83333333
 
 position of ions in cartesian coordinates  (Angst):
   0.00000000  0.00000000  0.00000000
   0.00000000  0.00000000  3.47663713
   0.00000000  0.00000000  6.95327426
   0.00000000  2.75004939  0.00000000
   0.00000000  2.75004939  3.47663713
   0.00000000  2.75004939  6.95327426
   0.00000000  5.50009878  0.00000000
   0.00000000  5.50009878  3.47663713
   0.00000000  5.50009878  6.95327426
   2.75004939  0.00000000  0.00000000
   2.75004939  0.00000000  3.47663713
   2.75004939  0.00000000  6.95327426
   2.75004939  2.75004939  0.00000000
   2.75004939  2.75004939  3.47663713
   2.75004939  2.75004939  6.95327426
   2.75004939  5.50009878  0.00000000
   2.75004939  5.50009878  3.47663713
   2.75004939  5.50009878  6.95327426
   5.50009878  0.00000000  0.00000000
   5.50009878  0.00000000  3.47663713
   5.50009878  0.00000000  6.95327426
   5.50009878  2.75004939  0.00000000
   5.50009878  2.75004939  3.47663713
   5.50009878  2.75004939  6.95327426
   5.50009878  5.50009878  0.00000000
   5.50009878  5.50009878  3.47663713
   5.50009878  5.50009878  6.95327426
   1.37502469  1.37502469  1.73831857
   1.37502469  1.37502469  5.21495570
   1.37502469  1.37502469  8.69159283
   1.37502469  4.12507408  1.73831857
   1.37502469  4.12507408  5.21495570
   1.37502469  4.12507408  8.69159283
   1.37502469  6.87512347  1.73831857
   1.37502469  6.87512347  5.21495570
   1.37502469  6.87512347  8.69159283
   4.12507408  1.37502469  1.73831857
   4.12507408  1.37502469  5.21495570
   4.12507408  1.37502469  8.69159283
   4.12507408  4.12507408  1.73831857
   4.12507408  4.12507408  5.21495570
   4.12507408  4.12507408  8.69159283
   4.12507408  6.87512347  1.73831857
   4.12507408  6.87512347  5.21495570
   4.12507408  6.87512347  8.69159283
   6.87512347  1.37502469  1.73831857
   6.87512347  1.37502469  5.21495570
   6.87512347  1.37502469  8.69159283
   6.87512347  4.12507408  1.73831857
   6.87512347  4.12507408  5.21495570
   6.87512347  4.12507408  8.69159283
   6.87512347  6.87512347  1.73831857
   6.87512347  6.87512347  5.21495570
   6.87512347  6.87512347  8.69159283
 


--------------------------------------------------------------------------------------------------------


 k-point  1 :   0.0000 0.0000 0.0000  plane waves:   13099
 k-point  2 :   0.2000 0.0000 0.0000  plane waves:   13101
 k-point  3 :   0.4000 0.0000 0.0000  plane waves:   13111
 k-point  4 :   0.2000 0.2000 0.0000  plane waves:   13137
 k-point  5 :   0.4000 0.2000 0.0000  plane waves:   13119
 k-point  6 :   0.4000 0.4000 0.0000  plane waves:   13129
 k-point  7 :   0.0000 0.0000 0.2500  plane waves:   13134
 k-point  8 :   0.2000 0.0000 0.2500  plane waves:   13149
 k-point  9 :   0.4000 0.0000 0.2500  plane waves:   13119
 k-point 10 :   0.2000 0.2000 0.2500  plane waves:   13145
 k-point 11 :   0.4000 0.2000 0.2500  plane waves:   13134
 k-point 12 :   0.4000 0.4000 0.2500  plane waves:   13108
 k-point 13 :   0.0000 0.0000 0.5000  plane waves:   13186
 k-point 14 :   0.2000 0.0000 0.5000  plane waves:   13124
 k-point 15 :   0.4000 0.0000 0.5000  plane waves:   13152
 k-point 16 :   0.2000 0.2000 0.5000  plane waves:   13136
 k-point 17 :   0.4000 0.2000 0.5000  plane waves:   13128
 k-point 18 :   0.4000 0.4000 0.5000  plane waves:   13112

 maximum and minimum number of plane-waves per node :      3304     3246

 maximum number of plane-waves:     13186
 maximum index in each direction: 
   IXMAX=   13   IYMAX=   13   IZMAX=   17
   IXMIN=  -13   IYMIN=  -13   IZMIN=  -17


 parallel 3D FFT for wavefunctions:
    minimum data exchange during FFTs selected (reduces bandwidth)
 parallel 3D FFT for charge:
    minimum data exchange during FFTs selected (reduces bandwidth)


 total amount of memory used by VASP MPI-rank0   638540. kBytes
=======================================================================

   base      :      30000. kBytes
   nonl-proj :      19946. kBytes
   fftplans  :      31580. kBytes
   grid      :      21385. kBytes
   one-center:        435. kBytes
   wavefun   :     535194. kBytes
 
     INWAV:  cpu time    0.0000: real time    0.0000
 Broyden mixing: mesh for mixing (old mesh)
   NGX = 27   NGY = 27   NGZ = 35
  (NGX  =108   NGY  =108   NGZ  =140)
  gives a total of  25515 points

 initial charge density was supplied:
 charge density of overlapping atoms calculated
 number of electron     270.0000000 magnetization      27.0000000
 keeping initial charge density in first step


--------------------------------------------------------------------------------------------------------


 Maximum index for augmentation-charges        10967 (set IRDMAX)


--------------------------------------------------------------------------------------------------------


 First call to EWALD:  gamma=   0.199
 Maximum number of real-space cells 3x 3x 2
 Maximum number of reciprocal cells 3x 3x 3

    FEWALD:  cpu time    0.0113: real time    0.0113


--------------------------------------- Iteration      1(   1)  ---------------------------------------


    POTLOK:  cpu time    0.3957: real time    0.3964
    SETDIJ:  cpu time    0.4550: real time    0.4558
    TRIAL :  cpu time   22.5680: real time   22.6437
    CORREC:  cpu time    0.6375: real time    0.6375
    --------------------------------------------
      LOOP:  cpu time   24.2401: real time   24.3239

 eigenvalue-minimisations  : 12816
 total energy-change (2. order) : 0.2031145E+04  (-0.8939489E+04)
 number of electron     270.0000000 magnetization      27.0000000
 augmentation part      270.0000000 magnetization      27.0000000

 Free energy of the ion-electron system (eV)
  ---------------------------------------------------
  alpha Z        PSCENC =       798.38614055
  Ewald energy   TEWEN  =    -12901.57693327
  -Hartree energ DENC   =     -2855.60785864
  -exchange      EXHF   =         0.00000000
  -V(xc)+E(xc)   XCENC  =      -996.12857113
  PAW double counting   =     12741.82587617   -11476.22345381
  entropy T*S    EENTRO =         0.00015169
  eigenvalues    EBANDS =      4022.79518441
  atomic energy  EATOM  =     12697.67401269
  ---------------------------------------------------
  free energy    TOTEN  =      2031.14454864 eV

  energy without entropy =     2031.14439695  energy(sigma->0) =     2031.14449808


--------------------------------------------------------------------------------------------------------




--------------------------------------- Iteration      1(   2)  ---------------------------------------


    TRIAL :  cpu time   22.4952: real time   23.5419
    CORREC:  cpu time    0.0049: real time    0.0057
    --------------------------------------------
      LOOP:  cpu time   22.5011: real time   23.5508

 eigenvalue-minimisations  : 12816
 total energy-change (2. order) :-0.2136728E+04  (-0.2072254E+04)
 number of electron     270.0000000 magnetization      27.0000000
 augmentation part      270.0000000 magnetization      27.0000000

 Free energy of the ion-electron system (eV)
  ---------------------------------------------------
  alpha Z        PSCENC =       798.38614055
  Ewald energy   TEWEN  =    -12901.57693327
  -Hartree energ DENC   =     -2855.60785864
  -exchange      EXHF   =         0.00000000
  -V(xc)+E(xc)   XCENC  =      -996.12857113
  PAW double counting   =     12741.82587617   -11476.22345381
  entropy T*S    EENTRO =         0.00441959
  eigenvalues    EBANDS =      1886.06246135
  atomic energy  EATOM  =     12697.67401269
  ---------------------------------------------------
  free energy    TOTEN  =      -105.58390651 eV

  energy without entropy =     -105.58832610  energy(sigma->0) =     -105.58537971


--------------------------------------------------------------------------------------------------------




--------------------------------------- Iteration      1(   3)  ---------------------------------------


    TRIAL :  cpu time   31.0108: real time   31.2234
    CORREC:  cpu time    0.0056: real time    0.0065
    --------------------------------------------
      LOOP:  cpu time   31.0282: real time   31.2445

 eigenvalue-minimisations  : 19160
 total energy-change (2. order) :-0.2544050E+03  (-0.2220053E+03)
 number of electron     270.0000000 magnetization      27.0000000
 augmentation part      270.0000000 magnetization      27.0000000

 Free energy of the ion-electron system (eV)
  ---------------------------------------------------
  alpha Z        PSCENC =       798.38614055
  Ewald energy   TEWEN  =    -12901.57693327
  -Hartree energ DENC   =     -2855.60785864
  -exchange      EXHF   =         0.00000000
  -V(xc)+E(xc)   XCENC  =      -996.12857113
  PAW double counting   =     12741.82587617   -11476.22345381
  entropy T*S    EENTRO =         0.00486782
  eigenvalues    EBANDS =      1631.65703716
  atomic energy  EATOM  =     12697.67401269
  ---------------------------------------------------
  free energy    TOTEN  =      -359.98888247 eV

  energy without entropy =     -359.99375029  energy(sigma->0) =     -359.99050508


--------------------------------------------------------------------------------------------------------




--------------------------------------- Iteration      1(   4)  ---------------------------------------


    TRIAL :  cpu time   33.1938: real time   34.2560
    CORREC:  cpu time    0.0058: real time    0.0059
    --------------------------------------------
      LOOP:  cpu time   33.2011: real time   34.2651

 eigenvalue-minimisations  : 20864
 total energy-change (2. order) :-0.4021200E+02  (-0.3514300E+02)
 number of electron     270.0000000 magnetization      27.0000000
 augmentation part      270.0000000 magnetization      27.0000000

 Free energy of the ion-electron system (eV)
  ---------------------------------------------------
  alpha Z        PSCENC =       798.38614055
  Ewald energy   TEWEN  =    -12901.57693327
  -Hartree energ DENC   =     -2855.60785864
  -exchange      EXHF   =         0.00000000
  -V(xc)+E(xc)   XCENC  =      -996.12857113
  PAW double counting   =     12741.82587617   -11476.22345381
  entropy T*S    EENTRO =        -0.01131650
  eigenvalues    EBANDS =      1591.46121821
  atomic energy  EATOM  =     12697.67401269
  ---------------------------------------------------
  free energy    TOTEN  =      -400.20088575 eV

  energy without entropy =     -400.18956925  energy(sigma->0) =     -400.19711358


--------------------------------------------------------------------------------------------------------




--------------------------------------- Iteration      1(   5)  ---------------------------------------


    TRIAL :  cpu time   33.6123: real time   33.7012
    CORREC:  cpu time    0.0060: real time    0.0068
    --------------------------------------------
      LOOP:  cpu time   33.6204: real time   33.7122

 eigenvalue-minimisations  : 20992
 total energy-change (2. order) :-0.3758778E+01  (-0.3588110E+01)
 number of electron     270.0000000 magnetization      27.0000000
 augmentation part      270.0000000 magnetization      27.0000000

 Free energy of the ion-electron system (eV)
  ---------------------------------------------------
  alpha Z        PSCENC =       798.38614055
  Ewald energy   TEWEN  =    -12901.57693327
  -Hartree energ DENC   =     -2855.60785864
  -exchange      EXHF   =         0.00000000
  -V(xc)+E(xc)   XCENC  =      -996.12857113
  PAW double counting   =     12741.82587617   -11476.22345381
  entropy T*S    EENTRO =        -0.00916174
  eigenvalues    EBANDS =      1587.70028537
  atomic energy  EATOM  =     12697.67401269
  ---------------------------------------------------
  free energy    TOTEN  =      -403.95966383 eV

  energy without entropy =     -403.95050209  energy(sigma->0) =     -403.95660992


--------------------------------------------------------------------------------------------------------




--------------------------------------- Iteration      1(   6)  ---------------------------------------


    TRIAL :  cpu time   33.5012: real time   34.6423
    CORREC:  cpu time    0.0061: real time    0.0069
    --------------------------------------------
      LOOP:  cpu time   33.5097: real time   34.6523

 eigenvalue-minimisations  : 20976
 total energy-change (2. order) :-0.3076385E+00  (-0.3021000E+00)
 number of electron     270.0000000 magnetization      27.0000000
 augmentation part      270.0000000 magnetization      27.0000000

 Free energy of the ion-electron system (eV)
  ---------------------------------------------------
  alpha Z        PSCENC =       798.38614055
  Ewald energy   TEWEN  =    -12901.57693327
  -Hartree energ DENC   =     -2855.60785864
  -exchange      EXHF   =         0.00000000
  -V(xc)+E(xc)   XCENC  =      -996.12857113
  PAW double counting   =     12741.82587617   -11476.22345381
  entropy T*S    EENTRO =        -0.00848733
  eigenvalues    EBANDS =      1587.39197242
  atomic energy  EATOM  =     12697.67401269
  ---------------------------------------------------
  free energy    TOTEN  =      -404.26730237 eV

  energy without entropy =     -404.25881504  energy(sigma->0) =     -404.26447326


--------------------------------------------------------------------------------------------------------




--------------------------------------- Iteration      1(   7)  ---------------------------------------


    TRIAL :  cpu time   34.0680: real time   34.2487
    CORREC:  cpu time    0.0059: real time    0.0059
    --------------------------------------------
      LOOP:  cpu time   34.0747: real time   34.2582

 eigenvalue-minimisations  : 21328
 total energy-change (2. order) :-0.3339266E-01  (-0.3313762E-01)
 number of electron     270.0000000 magnetization      27.0000000
 augmentation part      270.0000000 magnetization      27.0000000

 Free energy of the ion-electron system (eV)
  ---------------------------------------------------
  alpha Z        PSCENC =       798.38614055
  Ewald energy   TEWEN  =    -12901.57693327
  -Hartree energ DENC   =     -2855.60785864
  -exchange      EXHF   =         0.00000000
  -V(xc)+E(xc)   XCENC  =      -996.12857113
  PAW double counting   =     12741.82587617   -11476.22345381
  entropy T*S    EENTRO =        -0.00845148
  eigenvalues    EBANDS =      1587.35854391
  atomic energy  EATOM  =     12697.67401269
  ---------------------------------------------------
  free energy    TOTEN  =      -404.30069502 eV

  energy without entropy =     -404.29224354  energy(sigma->0) =     -404.29787786


--------------------------------------------------------------------------------------------------------




--------------------------------------- Iteration      1(   8)  ---------------------------------------


    TRIAL :  cpu time   32.8746: real time   33.8638
    CORREC:  cpu time    0.0062: real time    0.0070
    CHARGE:  cpu time    1.2792: real time    1.3024
    --------------------------------------------
      LOOP:  cpu time   34.1614: real time   35.1778

 eigenvalue-minimisations  : 20640
 total energy-change (2. order) :-0.2801313E-02  (-0.2788735E-02)
 number of electron     269.9999995 magnetization      19.4702936
 augmentation part       64.1929200 magnetization      11.1995466

 Free energy of the ion-electron system (eV)
  ---------------------------------------------------
  alpha Z        PSCENC =       798.38614055
  Ewald energy   TEWEN  =    -12901.57693327
  -Hartree energ DENC   =     -2855.60785864
  -exchange      EXHF   =         0.00000000
  -V(xc)+E(xc)   XCENC  =      -996.12857113
  PAW double counting   =     12741.82587617   -11476.22345381
  entropy T*S    EENTRO =        -0.00844150
  eigenvalues    EBANDS =      1587.35573262
  atomic energy  EATOM  =     12697.67401269
  ---------------------------------------------------
  free energy    TOTEN  =      -404.30349634 eV

  energy without entropy =     -404.29505483  energy(sigma->0) =     -404.30068250


--------------------------------------------------------------------------------------------------------




--------------------------------------- Iteration      1(   9)  ---------------------------------------


    POTLOK:  cpu time    0.3971: real time    0.3970
    SETDIJ:  cpu time    0.4915: real time    0.4916
    TRIAL :  cpu time   11.7818: real time   11.8037
    CORREC:  cpu time    4.5044: real time    4.5149
    CHARGE:  cpu time    1.2606: real time    1.3394
    --------------------------------------------
      LOOP:  cpu time   18.4389: real time   18.5525

 eigenvalue-minimisations  :     0
 total energy-change (2. order) : 0.3014274E+03  (-0.2141218E+03)
 number of electron     269.9999993 magnetization      20.5736364
 augmentation part       82.0394693 magnetization      13.4469346

 Free energy of the ion-electron system (eV)
  ---------------------------------------------------
  alpha Z        PSCENC =       798.38614055
  Ewald energy   TEWEN  =    -12901.57693327
  -Hartree energ DENC   =     -1274.03647487
  -exchange      EXHF   =         0.00000000
  -V(xc)+E(xc)   XCENC  =     -1041.48423159
  PAW double counting   =     19170.11843720   -17750.64993118
  entropy T*S    EENTRO =         0.01055023
  eigenvalues    EBANDS =       198.70131250
  atomic energy  EATOM  =     12697.67401269
  ---------------------------------------------------
  free energy    TOTEN  =      -102.87610947 eV

  energy without entropy =     -102.88665969  energy(sigma->0) =     -102.87962621


--------------------------------------------------------------------------------------------------------




--------------------------------------- Iteration      1(  10)  ---------------------------------------


    POTLOK:  cpu time    0.3887: real time    0.3950
    SETDIJ:  cpu time    0.4721: real time    0.4722
    TRIAL :  cpu time   11.4551: real time   11.5776
    CORREC:  cpu time    4.0366: real time    4.1302
    CHARGE:  cpu time    1.2586: real time    1.9040
    --------------------------------------------
      LOOP:  cpu time   17.6124: real time   18.4816

 eigenvalue-minimisations  :     0
 total energy-change (2. order) :-0.2136232E+03  (-0.1374187E+02)
 number of electron     269.9999993 magnetization      20.9889224
 augmentation part       86.3699491 magnetization      14.1064934

 Free energy of the ion-electron system (eV)
  ---------------------------------------------------
  alpha Z        PSCENC =       798.38614055
  Ewald energy   TEWEN  =    -12901.57693327
  -Hartree energ DENC   =     -2085.10126335
  -exchange      EXHF   =         0.00000000
  -V(xc)+E(xc)   XCENC  =     -1013.17656259
  PAW double counting   =     20556.16482846   -19312.86095716
  entropy T*S    EENTRO =         0.01013136
  eigenvalues    EBANDS =       943.98087628
  atomic energy  EATOM  =     12697.67401269
  ---------------------------------------------------
  free energy    TOTEN  =      -316.49930815 eV

  energy without entropy =     -316.50943951  energy(sigma->0) =     -316.50268527


--------------------------------------------------------------------------------------------------------




--------------------------------------- Iteration      1(  11)  ---------------------------------------


    POTLOK:  cpu time    0.3916: real time    0.3916
    SETDIJ:  cpu time    0.4863: real time    0.4866
    TRIAL :  cpu time   11.5074: real time   11.6371
    CORREC:  cpu time    4.1943: real time    4.2130
    CHARGE:  cpu time    1.2667: real time    1.2670
    --------------------------------------------
      LOOP:  cpu time   17.8656: real time   18.0152

 eigenvalue-minimisations  :     0
 total energy-change (2. order) :-0.1320350E+02  (-0.1017859E+02)
 number of electron     269.9999993 magnetization      21.3462802
 augmentation part       88.7029295 magnetization      14.5945580

 Free energy of the ion-electron system (eV)
  ---------------------------------------------------
  alpha Z        PSCENC =       798.38614055
  Ewald energy   TEWEN  =    -12901.57693327
  -Hartree energ DENC   =     -2336.63448829
  -exchange      EXHF   =         0.00000000
  -V(xc)+E(xc)   XCENC  =     -1003.97948112
  PAW double counting   =     21570.17676982   -20370.82741813
  entropy T*S    EENTRO =        -0.00632698
  eigenvalues    EBANDS =      1217.06845829
  atomic energy  EATOM  =     12697.67401269
  ---------------------------------------------------
  free energy    TOTEN  =      -329.70280811 eV

  energy without entropy =     -329.69648113  energy(sigma->0) =     -329.70069912


--------------------------------------------------------------------------------------------------------




--------------------------------------- Iteration      1(  12)  ---------------------------------------


    POTLOK:  cpu time    0.3916: real time    0.3916
    SETDIJ:  cpu time    0.4661: real time    0.4720
    TRIAL :  cpu time   11.4973: real time   11.5365
    CORREC:  cpu time    4.1108: real time    4.1115
    CHARGE:  cpu time    2.0943: real time    2.0943
    --------------------------------------------
      LOOP:  cpu time   18.5628: real time   18.6095

 eigenvalue-minimisations  :     0
 total energy-change (2. order) :-0.1034540E+02  (-0.1268953E+02)
 number of electron     269.9999993 magnetization      21.5972643
 augmentation part       87.1751082 magnetization      14.8480253

 Free energy of the ion-electron system (eV)
  ---------------------------------------------------
  alpha Z        PSCENC =       798.38614055
  Ewald energy   TEWEN  =    -12901.57693327
  -Hartree energ DENC   =     -2524.28820833
  -exchange      EXHF   =         0.00000000
  -V(xc)+E(xc)   XCENC  =      -997.69994268
  PAW double counting   =     21804.85377356   -20616.94509306
  entropy T*S    EENTRO =        -0.01771046
  eigenvalues    EBANDS =      1399.55437363
  atomic energy  EATOM  =     12697.67401269
  ---------------------------------------------------
  free energy    TOTEN  =      -340.04820389 eV

  energy without entropy =     -340.03049342  energy(sigma->0) =     -340.04230040


--------------------------------------------------------------------------------------------------------




--------------------------------------- Iteration      1(  13)  ---------------------------------------


    POTLOK:  cpu time    0.3922: real time    0.3922
    SETDIJ:  cpu time    0.4571: real time    0.4571
    TRIAL :  cpu time   11.4487: real time   11.6054
    CORREC:  cpu time    4.0993: real time    4.1588
    CHARGE:  cpu time    1.2753: real time    1.2753
    --------------------------------------------
      LOOP:  cpu time   17.6890: real time   17.9054

 eigenvalue-minimisations  :     0
 total energy-change (2. order) :-0.1257190E+02  (-0.1005507E+01)
 number of electron     269.9999993 magnetization      21.7059739
 augmentation part       86.4464941 magnetization      14.8560183

 Free energy of the ion-electron system (eV)
  ---------------------------------------------------
  alpha Z        PSCENC =       798.38614055
  Ewald energy   TEWEN  =    -12901.57693327
  -Hartree energ DENC   =     -2541.40311434
  -exchange      EXHF   =         0.00000000
  -V(xc)+E(xc)   XCENC  =      -997.95580193
  PAW double counting   =     21270.30819576   -20036.87827560
  entropy T*S    EENTRO =        -0.02283427
  eigenvalues    EBANDS =      1358.84338079
  atomic energy  EATOM  =     12697.67401269
  ---------------------------------------------------
  free energy    TOTEN  =      -352.62010583 eV

  energy without entropy =     -352.59727155  energy(sigma->0) =     -352.61249440


--------------------------------------------------------------------------------------------------------




--------------------------------------- Iteration      1(  14)  ---------------------------------------


    POTLOK:  cpu time    0.3930: real time    0.4544
    SETDIJ:  cpu time    0.4595: real time    0.4595
    TRIAL :  cpu time   12.0559: real time   12.5328
    CORREC:  cpu time    4.2277: real time    4.3102
    CHARGE:  cpu time    1.2383: real time    1.2786
    --------------------------------------------
      LOOP:  cpu time   18.4074: real time   19.0717

 eigenvalue-minimisations  :     0
 total energy-change (2. order) :-0.9748842E+00  (-0.9486989E+00)
 number of electron     269.9999993 magnetization      21.7566282
 augmentation part       85.8117387 magnetization      14.7586919

 Free energy of the ion-electron system (eV)
  ---------------------------------------------------
  alpha Z        PSCENC =       798.38614055
  Ewald energy   TEWEN  =    -12901.57693327
  -Hartree energ DENC   =     -2504.39305950
  -exchange      EXHF   =         0.00000000
  -V(xc)+E(xc)   XCENC  =      -999.29908255
  PAW double counting   =     20963.12991138   -19718.27494394
  entropy T*S    EENTRO =        -0.02117070
  eigenvalues    EBANDS =      1310.78179890
  atomic energy  EATOM  =     12697.67401269
  ---------------------------------------------------
  free energy    TOTEN  =      -353.59499002 eV

  energy without entropy =     -353.57381931  energy(sigma->0) =     -353.58793311


--------------------------------------------------------------------------------------------------------




--------------------------------------- Iteration      1(  15)  ---------------------------------------


    POTLOK:  cpu time    0.3911: real time    0.3911
    SETDIJ:  cpu time    0.5168: real time    0.5168
    TRIAL :  cpu time   11.5216: real time   11.5561
    CORREC:  cpu time    4.0960: real time    4.1108
    CHARGE:  cpu time    1.2895: real time    1.2896
    --------------------------------------------
      LOOP:  cpu time   17.8164: real time   17.8669

 eigenvalue-minimisations  :     0
 total energy-change (2. order) :-0.9448452E+00  (-0.1077252E+01)
 number of electron     269.9999992 magnetization      21.8599090
 augmentation part       86.6715127 magnetization      14.8319011

 Free energy of the ion-electron system (eV)
  ---------------------------------------------------
  alpha Z        PSCENC =       798.38614055
  Ewald energy   TEWEN  =    -12901.57693327
  -Hartree energ DENC   =     -2463.46494650
  -exchange      EXHF   =         0.00000000
  -V(xc)+E(xc)   XCENC  =     -1000.72187570
  PAW double counting   =     20402.40144587   -19146.36393757
  entropy T*S    EENTRO =        -0.02356167
  eigenvalues    EBANDS =      1259.14742937
  atomic energy  EATOM  =     12697.67401269
  ---------------------------------------------------
  free energy    TOTEN  =      -354.53983526 eV

  energy without entropy =     -354.51627359  energy(sigma->0) =     -354.53198137


--------------------------------------------------------------------------------------------------------




--------------------------------------- Iteration      1(  16)  ---------------------------------------


    POTLOK:  cpu time    0.3907: real time    0.3906
    SETDIJ:  cpu time    0.4797: real time    0.4797
    TRIAL :  cpu time   11.5043: real time   11.6135
    CORREC:  cpu time    4.1124: real time    4.1151
    CHARGE:  cpu time    1.2632: real time    1.3086
    --------------------------------------------
      LOOP:  cpu time   17.7521: real time   17.9108

 eigenvalue-minimisations  :     0
 total energy-change (2. order) :-0.1077355E+01  (-0.2260146E+00)
 number of electron     269.9999992 magnetization      21.9339537
 augmentation part       87.1157346 magnetization      14.9201075

 Free energy of the ion-electron system (eV)
  ---------------------------------------------------
  alpha Z        PSCENC =       798.38614055
  Ewald energy   TEWEN  =    -12901.57693327
  -Hartree energ DENC   =     -2490.14786370
  -exchange      EXHF   =         0.00000000
  -V(xc)+E(xc)   XCENC  =      -999.50061262
  PAW double counting   =     19727.33302627   -18476.30855821
  entropy T*S    EENTRO =        -0.02403229
  eigenvalues    EBANDS =      1288.54715935
  atomic energy  EATOM  =     12697.67401269
  ---------------------------------------------------
  free energy    TOTEN  =      -355.61719062 eV

  energy without entropy =     -355.59315833  energy(sigma->0) =     -355.60917986


--------------------------------------------------------------------------------------------------------




--------------------------------------- Iteration      1(  17)  ---------------------------------------


    POTLOK:  cpu time    0.3919: real time    0.3919
    SETDIJ:  cpu time    0.4786: real time    0.4786
    TRIAL :  cpu time   11.4274: real time   12.3372
    CORREC:  cpu time    4.1061: real time    4.1125
    CHARGE:  cpu time    1.2698: real time    1.2707
    --------------------------------------------
      LOOP:  cpu time   17.6758: real time   18.5936

 eigenvalue-minimisations  :     0
 total energy-change (2. order) :-0.2263992E+00  (-0.2386973E+00)
 number of electron     269.9999992 magnetization      21.9151911
 augmentation part       87.3117380 magnetization      15.0347509

 Free energy of the ion-electron system (eV)
  ---------------------------------------------------
  alpha Z        PSCENC =       798.38614055
  Ewald energy   TEWEN  =    -12901.57693327
  -Hartree energ DENC   =     -2509.04823931
  -exchange      EXHF   =         0.00000000
  -V(xc)+E(xc)   XCENC  =      -998.63898966
  PAW double counting   =     19628.59539657   -18381.93519184
  entropy T*S    EENTRO =        -0.02367966
  eigenvalues    EBANDS =      1310.72424676
  atomic energy  EATOM  =     12697.67401269
  ---------------------------------------------------
  free energy    TOTEN  =      -355.84358979 eV

  energy without entropy =     -355.81991014  energy(sigma->0) =     -355.83569658


--------------------------------------------------------------------------------------------------------




--------------------------------------- Iteration      1(  18)  ---------------------------------------


    POTLOK:  cpu time    0.4004: real time    0.4267
    SETDIJ:  cpu time    0.4696: real time    0.4874
    TRIAL :  cpu time   11.4984: real time   11.5275
    CORREC:  cpu time    4.0853: real time    4.1014
    CHARGE:  cpu time    1.2821: real time    1.2822
    --------------------------------------------
      LOOP:  cpu time   17.7375: real time   17.8284

 eigenvalue-minimisations  :     0
 total energy-change (2. order) :-0.2387011E+00  (-0.1205829E+00)
 number of electron     269.9999992 magnetization      21.9521024
 augmentation part       87.1769829 magnetization      15.1182384

 Free energy of the ion-electron system (eV)
  ---------------------------------------------------
  alpha Z        PSCENC =       798.38614055
  Ewald energy   TEWEN  =    -12901.57693327
  -Hartree energ DENC   =     -2515.36420595
  -exchange      EXHF   =         0.00000000
  -V(xc)+E(xc)   XCENC  =      -998.06651706
  PAW double counting   =     19551.60034104   -18307.01713364
  entropy T*S    EENTRO =        -0.02539543
  eigenvalues    EBANDS =      1318.30568441
  atomic energy  EATOM  =     12697.67401269
  ---------------------------------------------------
  free energy    TOTEN  =      -356.08229088 eV

  energy without entropy =     -356.05689545  energy(sigma->0) =     -356.07382574


--------------------------------------------------------------------------------------------------------




--------------------------------------- Iteration      1(  19)  ---------------------------------------


    POTLOK:  cpu time    0.3908: real time    0.3908
    SETDIJ:  cpu time    0.4804: real time    0.4804
    TRIAL :  cpu time   11.5111: real time   11.5316
    CORREC:  cpu time    4.0428: real time    4.1543
    CHARGE:  cpu time    1.2856: real time    1.2856
    --------------------------------------------
      LOOP:  cpu time   17.7154: real time   17.8474

 eigenvalue-minimisations  :     0
 total energy-change (2. order) :-0.1196630E+00  (-0.6268297E-01)
 number of electron     269.9999992 magnetization      22.0170998
 augmentation part       86.9175930 magnetization      15.1705353

 Free energy of the ion-electron system (eV)
  ---------------------------------------------------
  alpha Z        PSCENC =       798.38614055
  Ewald energy   TEWEN  =    -12901.57693327
  -Hartree energ DENC   =     -2506.80723791
  -exchange      EXHF   =         0.00000000
  -V(xc)+E(xc)   XCENC  =      -998.14979401
  PAW double counting   =     19513.32649398   -18267.38796432
  entropy T*S    EENTRO =        -0.02476284
  eigenvalues    EBANDS =      1308.35872381
  atomic energy  EATOM  =     12697.67401269
  ---------------------------------------------------
  free energy    TOTEN  =      -356.20195392 eV

  energy without entropy =     -356.17719108  energy(sigma->0) =     -356.19369964


--------------------------------------------------------------------------------------------------------




--------------------------------------- Iteration      1(  20)  ---------------------------------------


    POTLOK:  cpu time    0.3860: real time    0.3950
    SETDIJ:  cpu time    0.4580: real time    0.4580
    TRIAL :  cpu time   11.4293: real time   11.6265
    CORREC:  cpu time    4.1022: real time    4.7748
    CHARGE:  cpu time    1.2412: real time    1.3252
    --------------------------------------------
      LOOP:  cpu time   17.6623: real time   18.6252

 eigenvalue-minimisations  :     0
 total energy-change (2. order) :-0.6258493E-01  (-0.4579250E-01)
 number of electron     269.9999992 magnetization      22.0559223
 augmentation part       86.8222208 magnetization      15.2380622

 Free energy of the ion-electron system (eV)
  ---------------------------------------------------
  alpha Z        PSCENC =       798.38614055
  Ewald energy   TEWEN  =    -12901.57693327
  -Hartree energ DENC   =     -2493.81755995
  -exchange      EXHF   =         0.00000000
  -V(xc)+E(xc)   XCENC  =      -998.48125901
  PAW double counting   =     19490.30231999   -18241.70420643
  entropy T*S    EENTRO =        -0.02549534
  eigenvalues    EBANDS =      1292.97770942
  atomic energy  EATOM  =     12697.67401269
  ---------------------------------------------------
  free energy    TOTEN  =      -356.26453885 eV

  energy without entropy =     -356.23904351  energy(sigma->0) =     -356.25604040


--------------------------------------------------------------------------------------------------------




--------------------------------------- Iteration      1(  21)  ---------------------------------------


    POTLOK:  cpu time    0.3908: real time    0.3911
    SETDIJ:  cpu time    0.4769: real time    0.4792
    TRIAL :  cpu time   11.5183: real time   11.5712
    CORREC:  cpu time    4.0980: real time    4.1071
    CHARGE:  cpu time    1.2782: real time    1.2863
    --------------------------------------------
      LOOP:  cpu time   17.7650: real time   17.8391

 eigenvalue-minimisations  :     0
 total energy-change (2. order) :-0.4571631E-01  (-0.5310824E-01)
 number of electron     269.9999992 magnetization      22.1146460
 augmentation part       86.8653760 magnetization      15.3290848

 Free energy of the ion-electron system (eV)
  ---------------------------------------------------
  alpha Z        PSCENC =       798.38614055
  Ewald energy   TEWEN  =    -12901.57693327
  -Hartree energ DENC   =     -2490.63461011
  -exchange      EXHF   =         0.00000000
  -V(xc)+E(xc)   XCENC  =      -998.47695084
  PAW double counting   =     19490.09433230   -18240.81647024
  entropy T*S    EENTRO =        -0.02502300
  eigenvalues    EBANDS =      1289.06571910
  atomic energy  EATOM  =     12697.67401269
  ---------------------------------------------------
  free energy    TOTEN  =      -356.31025515 eV

  energy without entropy =     -356.28523216  energy(sigma->0) =     -356.30191416


--------------------------------------------------------------------------------------------------------




--------------------------------------- Iteration      1(  22)  ---------------------------------------


    POTLOK:  cpu time    0.3919: real time    0.3919
    SETDIJ:  cpu time    0.4604: real time    0.4605
    TRIAL :  cpu time   11.4939: real time   11.5443
    CORREC:  cpu time    4.7907: real time    4.7912
    CHARGE:  cpu time    1.2968: real time    1.2967
    --------------------------------------------
      LOOP:  cpu time   18.4384: real time   18.4905

 eigenvalue-minimisations  :     0
 total energy-change (2. order) :-0.5307165E-01  (-0.2071654E-01)
 number of electron     269.9999992 magnetization      22.1871256
 augmentation part       86.9526694 magnetization      15.3870806

 Free energy of the ion-electron system (eV)
  ---------------------------------------------------
  alpha Z        PSCENC =       798.38614055
  Ewald energy   TEWEN  =    -12901.57693327
  -Hartree energ DENC   =     -2495.69804814
  -exchange      EXHF   =         0.00000000
  -V(xc)+E(xc)   XCENC  =      -998.14533398
  PAW double counting   =     19509.33005161   -18261.07142587
  entropy T*S    EENTRO =        -0.02486049
  eigenvalues    EBANDS =      1294.76323261
  atomic energy  EATOM  =     12697.67401269
  ---------------------------------------------------
  free energy    TOTEN  =      -356.36332680 eV

  energy without entropy =     -356.33846631  energy(sigma->0) =     -356.35503997


--------------------------------------------------------------------------------------------------------




--------------------------------------- Iteration      1(  23)  ---------------------------------------


    POTLOK:  cpu time    0.3916: real time    0.3916
    SETDIJ:  cpu time    0.4489: real time    0.4596
    TRIAL :  cpu time   11.4572: real time   11.6735
    CORREC:  cpu time    4.0734: real time    4.1329
    CHARGE:  cpu time    1.2855: real time    1.2855
    --------------------------------------------
      LOOP:  cpu time   17.6600: real time   17.9492

 eigenvalue-minimisations  :     0
 total energy-change (2. order) :-0.2072936E-01  (-0.1664424E-01)
 number of electron     269.9999992 magnetization      22.2161674
 augmentation part       87.0117487 magnetization      15.4195035

 Free energy of the ion-electron system (eV)
  ---------------------------------------------------
  alpha Z        PSCENC =       798.38614055
  Ewald energy   TEWEN  =    -12901.57693327
  -Hartree energ DENC   =     -2501.44269160
  -exchange      EXHF   =         0.00000000
  -V(xc)+E(xc)   XCENC  =      -997.87192615
  PAW double counting   =     19522.02045887   -18274.93331886
  entropy T*S    EENTRO =        -0.02454132
  eigenvalues    EBANDS =      1301.38506210
  atomic energy  EATOM  =     12697.67401269
  ---------------------------------------------------
  free energy    TOTEN  =      -356.38405616 eV

  energy without entropy =     -356.35951484  energy(sigma->0) =     -356.37587572


--------------------------------------------------------------------------------------------------------




--------------------------------------- Iteration      1(  24)  ---------------------------------------


    POTLOK:  cpu time    0.3927: real time    0.4037
    SETDIJ:  cpu time    0.4487: real time    0.4487
    TRIAL :  cpu time   11.4946: real time   12.2945
    CORREC:  cpu time    4.1071: real time    4.1178
    CHARGE:  cpu time    1.2715: real time    1.2831
    --------------------------------------------
      LOOP:  cpu time   17.7170: real time   18.5525

 eigenvalue-minimisations  :     0
 total energy-change (2. order) :-0.1663481E-01  (-0.1018160E-01)
 number of electron     269.9999992 magnetization      22.2695940
 augmentation part       86.9632914 magnetization      15.4569174

 Free energy of the ion-electron system (eV)
  ---------------------------------------------------
  alpha Z        PSCENC =       798.38614055
  Ewald energy   TEWEN  =    -12901.57693327
  -Hartree energ DENC   =     -2505.08507620
  -exchange      EXHF   =         0.00000000
  -V(xc)+E(xc)   XCENC  =      -997.67299015
  PAW double counting   =     19524.41359716   -18278.04944458
  entropy T*S    EENTRO =        -0.02421285
  eigenvalues    EBANDS =      1305.53454415
  atomic energy  EATOM  =     12697.67401269
  ---------------------------------------------------
  free energy    TOTEN  =      -356.40069097 eV

  energy without entropy =     -356.37647813  energy(sigma->0) =     -356.39262002


--------------------------------------------------------------------------------------------------------




--------------------------------------- Iteration      1(  25)  ---------------------------------------


    POTLOK:  cpu time    0.3920: real time    0.3920
    SETDIJ:  cpu time    0.4720: real time    0.4720
    TRIAL :  cpu time   11.5194: real time   11.5551
    CORREC:  cpu time    4.0793: real time    4.0989
    CHARGE:  cpu time    1.2829: real time    1.2829
    --------------------------------------------
      LOOP:  cpu time   17.7470: real time   17.8031

 eigenvalue-minimisations  :     0
 total energy-change (2. order) :-0.1018605E-01  (-0.8038250E-02)
 number of electron     269.9999992 magnetization      22.3287745
 augmentation part       86.9131194 magnetization      15.4970051

 Free energy of the ion-electron system (eV)
  ---------------------------------------------------
  alpha Z        PSCENC =       798.38614055
  Ewald energy   TEWEN  =    -12901.57693327
[...]
   45       -0.012  -0.010  -2.264  -2.286
   46        0.018   0.020   2.377   2.415
   47        0.024   0.029   2.443   2.497
   48       -0.021  -0.026  -2.362  -2.409
   49        0.018   0.020   2.383   2.421
   50        0.015   0.014   2.339   2.367
   51       -0.013  -0.010  -2.264  -2.286
   52        0.018   0.020   2.393   2.431
   53        0.014   0.014   2.344   2.372
   54       -0.012  -0.011  -2.266  -2.289
--------------------------------------------------
tot         -0.012  -0.105  22.313  22.195
 
    FORLOC:  cpu time    0.0578: real time    0.0578
    FORNL :  cpu time   17.9695: real time   18.2160
    STRESS:  cpu time   26.8668: real time   27.7782
    FORCOR:  cpu time    0.4393: real time    0.4394
    OFIELD:  cpu time    0.0018: real time    0.0018

  FORCE on cell =-STRESS in cart. coord.  units (eV):
  Direction    XX          YY          ZZ          XY          YZ          ZX
  --------------------------------------------------------------------------------------
  Alpha Z   798.38614   798.38614   798.38614
  Ewald   -4053.61603 -4053.61603 -4794.40593    -0.00000    -0.00000    -0.00000
  Hartree  1084.11623  1084.11623   332.99554    -0.00000    -0.00000    -0.00000
  E(xc)   -1141.72984 -1141.72984 -1140.05898    -0.00000     0.00000     0.00000
  Local     369.09475   369.09475  1904.73373    -0.00000     0.00000     0.00000
  n-local  -171.00308  -167.96285  -175.89798     0.04562    -0.11726    -0.20368
  augment   784.52152   784.52152   768.06597     0.00000     0.00001     0.00001
  Kinetic  2328.65982  2342.15267  2308.96148    -1.70892    -1.66118    -1.80025
  Fock        0.00000     0.00000     0.00000     0.00000     0.00000     0.00000
  -------------------------------------------------------------------------------------
  Total       6.69605     6.69605     2.77997     0.00000     0.00000    -0.00000
  in kB      15.11212    15.11212     6.27403     0.00000     0.00000    -0.00000
  external pressure =       12.17 kB  Pullay stress =        0.00 kB


 VOLUME and BASIS-vectors are now :
 -----------------------------------------------------------------------------
  energy-cutoff  :      404.80
  volume of cell :      709.91
      direct lattice vectors                 reciprocal lattice vectors
     8.250148166  0.000000000  0.000000000     0.121209944  0.000000000  0.000000000
     0.000000000  8.250148166  0.000000000     0.000000000  0.121209944  0.000000000
     0.000000000  0.000000000 10.429911392     0.000000000  0.000000000  0.095878092

  length of vectors
     8.250148166  8.250148166 10.429911392     0.121209944  0.121209944  0.095878092


 FORCES acting on ions:
    Electron-Ion                     Ewald-Force                    Non-Local-Force
 -----------------------------------------------------------------------------------------------
   -.734E-01 -.734E-01 -.118E-01   -.239E-08 -.239E-08 -.210E-08   0.103E+00 0.103E+00 0.195E-01
   0.503E-01 0.503E-01 0.201E-01   -.239E-08 -.239E-08 0.171E-08   -.341E-01 -.341E-01 -.184E-01
   -.220E+00 -.220E+00 0.415E-01   -.239E-08 -.239E-08 0.861E-08   0.997E-01 0.997E-01 -.273E-01
   -.734E-01 0.734E-01 -.118E-01   -.239E-08 -.802E-09 -.210E-08   0.103E+00 -.103E+00 0.195E-01
   0.503E-01 -.503E-01 0.201E-01   -.239E-08 -.802E-09 0.171E-08   -.341E-01 0.341E-01 -.184E-01
   -.220E+00 0.220E+00 0.415E-01   -.239E-08 -.802E-09 0.861E-08   0.997E-01 -.997E-01 -.273E-01
   0.256E-01 -.328E-08 -.156E+00   -.239E-08 0.631E-08 -.210E-08   -.233E-02 0.542E-19 0.572E-01
   0.300E-01 -.328E-08 0.865E-02   -.239E-08 0.631E-08 0.171E-08   -.228E-02 0.163E-18 0.118E-01
   0.148E-01 -.328E-08 0.935E-01   -.239E-08 0.631E-08 0.861E-08   -.109E-01 -.434E-18 -.390E-01
   0.734E-01 -.734E-01 -.118E-01   -.802E-09 -.239E-08 -.210E-08   -.103E+00 0.103E+00 0.195E-01
   -.503E-01 0.503E-01 0.201E-01   -.802E-09 -.239E-08 0.171E-08   0.341E-01 -.341E-01 -.184E-01
   0.220E+00 -.220E+00 0.415E-01   -.803E-09 -.239E-08 0.861E-08   -.997E-01 0.997E-01 -.273E-01
   0.734E-01 0.734E-01 -.118E-01   -.802E-09 -.802E-09 -.210E-08   -.103E+00 -.103E+00 0.195E-01
   -.503E-01 -.503E-01 0.201E-01   -.802E-09 -.802E-09 0.171E-08   0.341E-01 0.341E-01 -.184E-01
   0.220E+00 0.220E+00 0.415E-01   -.803E-09 -.802E-09 0.861E-08   -.997E-01 -.997E-01 -.273E-01
   -.256E-01 -.328E-08 -.156E+00   -.802E-09 0.631E-08 -.210E-08   0.233E-02 0.000E+00 0.572E-01
   -.300E-01 -.328E-08 0.865E-02   -.802E-09 0.631E-08 0.171E-08   0.228E-02 0.000E+00 0.118E-01
   -.148E-01 -.328E-08 0.935E-01   -.803E-09 0.631E-08 0.861E-08   0.109E-01 -.217E-18 -.390E-01
   -.328E-08 0.256E-01 -.156E+00   0.631E-08 -.239E-08 -.210E-08   -.813E-19 -.233E-02 0.572E-01
   -.328E-08 0.300E-01 0.865E-02   0.631E-08 -.239E-08 0.171E-08   0.217E-18 -.228E-02 0.118E-01
   -.328E-08 0.148E-01 0.935E-01   0.631E-08 -.239E-08 0.861E-08   -.217E-18 -.109E-01 -.390E-01
   -.328E-08 -.256E-01 -.156E+00   0.631E-08 -.802E-09 -.210E-08   -.190E-18 0.233E-02 0.572E-01
   -.328E-08 -.300E-01 0.865E-02   0.631E-08 -.802E-09 0.171E-08   0.000E+00 0.228E-02 0.118E-01
   -.328E-08 -.148E-01 0.935E-01   0.631E-08 -.802E-09 0.861E-08   -.108E-18 0.109E-01 -.390E-01
   -.330E-08 -.330E-08 -.106E+00   0.631E-08 0.631E-08 -.210E-08   0.000E+00 0.271E-19 0.184E-01
   -.329E-08 -.329E-08 -.142E-01   0.631E-08 0.631E-08 0.171E-08   -.271E-19 -.108E-18 0.541E-01
   -.330E-08 -.330E-08 0.141E+00   0.631E-08 0.631E-08 0.861E-08   0.678E-20 0.000E+00 -.618E-01
   0.484E-08 0.484E-08 -.449E+00   -.169E-07 -.169E-07 -.180E-07   0.000E+00 0.867E-18 0.524E+00
   0.476E-08 0.476E-08 -.222E+00   -.169E-07 -.169E-07 -.170E-08   0.000E+00 0.203E-19 0.444E+00
   0.475E-08 0.475E-08 0.454E+00   -.169E-07 -.169E-07 0.115E-07   -.217E-18 -.217E-18 -.706E+00
   0.484E-08 -.613E-01 0.980E-01   -.169E-07 0.802E-09 -.180E-07   -.434E-18 0.469E-01 -.105E+00
   0.490E-08 0.345E+00 -.138E+00   -.169E-07 0.802E-09 -.170E-08   0.867E-18 -.193E+00 0.132E+00
   0.491E-08 0.430E+00 0.179E+00   -.169E-07 0.802E-09 0.115E-07   0.173E-17 -.212E+00 -.171E+00
   0.484E-08 0.613E-01 0.980E-01   -.169E-07 0.130E-07 -.180E-07   0.000E+00 -.469E-01 -.105E+00
   0.490E-08 -.345E+00 -.138E+00   -.169E-07 0.130E-07 -.170E-08   0.000E+00 0.193E+00 0.132E+00
   0.491E-08 -.430E+00 0.179E+00   -.169E-07 0.130E-07 0.115E-07   0.434E-18 0.212E+00 -.171E+00
   -.613E-01 0.484E-08 0.980E-01   0.802E-09 -.169E-07 -.180E-07   0.469E-01 -.596E-18 -.105E+00
   0.345E+00 0.490E-08 -.138E+00   0.802E-09 -.169E-07 -.170E-08   -.193E+00 -.434E-18 0.132E+00
   0.430E+00 0.491E-08 0.179E+00   0.802E-09 -.169E-07 0.115E-07   -.212E+00 0.000E+00 -.171E+00
   -.632E-01 -.632E-01 -.399E-01   0.802E-09 0.802E-09 -.180E-07   0.720E-01 0.720E-01 -.196E-01
   -.133E+00 -.133E+00 0.152E-01   0.802E-09 0.802E-09 -.170E-08   0.155E+00 0.155E+00 0.537E-01
   -.986E-01 -.986E-01 -.238E-01   0.802E-09 0.802E-09 0.115E-07   0.976E-01 0.976E-01 -.240E-02
   -.632E-01 0.632E-01 -.399E-01   0.802E-09 0.130E-07 -.180E-07   0.720E-01 -.720E-01 -.196E-01
   -.133E+00 0.133E+00 0.152E-01   0.802E-09 0.130E-07 -.170E-08   0.155E+00 -.155E+00 0.537E-01
   -.986E-01 0.986E-01 -.238E-01   0.802E-09 0.130E-07 0.115E-07   0.976E-01 -.976E-01 -.240E-02
   0.613E-01 0.484E-08 0.980E-01   0.130E-07 -.169E-07 -.180E-07   -.469E-01 0.434E-18 -.105E+00
   -.345E+00 0.490E-08 -.138E+00   0.130E-07 -.169E-07 -.170E-08   0.193E+00 0.651E-18 0.132E+00
   -.430E+00 0.491E-08 0.179E+00   0.130E-07 -.169E-07 0.115E-07   0.212E+00 0.000E+00 -.171E+00
   0.632E-01 -.632E-01 -.399E-01   0.130E-07 0.802E-09 -.180E-07   -.720E-01 0.720E-01 -.196E-01
   0.133E+00 -.133E+00 0.152E-01   0.130E-07 0.802E-09 -.170E-08   -.155E+00 0.155E+00 0.537E-01
   0.986E-01 -.986E-01 -.238E-01   0.130E-07 0.802E-09 0.115E-07   -.976E-01 0.976E-01 -.240E-02
   0.632E-01 0.632E-01 -.399E-01   0.130E-07 0.130E-07 -.180E-07   -.720E-01 -.720E-01 -.196E-01
   0.133E+00 0.133E+00 0.152E-01   0.130E-07 0.130E-07 -.170E-08   -.155E+00 -.155E+00 0.537E-01
   0.986E-01 0.986E-01 -.238E-01   0.130E-07 0.130E-07 0.115E-07   -.976E-01 -.976E-01 -.240E-02
 -----------------------------------------------------------------------------------------------
   -.403E-07 -.403E-07 0.160E+00   -.614E-13 -.142E-13 0.128E-13   -.194E-15 0.000E+00 -.160E+00
 
 
 POSITION                                       TOTAL-FORCE (eV/Angst)
 -----------------------------------------------------------------------------------
      0.00000      0.00000      0.00000         0.021075      0.021075      0.004971
      0.00000      0.00000      3.47664         0.019794      0.019794      0.004885
      0.00000      0.00000      6.95327        -0.128491     -0.128491      0.016654
      0.00000      2.75005      0.00000         0.021075     -0.021075      0.004971
      0.00000      2.75005      3.47664         0.019794     -0.019794      0.004885
      0.00000      2.75005      6.95327        -0.128491      0.128491      0.016654
      0.00000      5.50010      0.00000         0.024028      0.000000     -0.105015
      0.00000      5.50010      3.47664         0.028746      0.000000      0.019896
      0.00000      5.50010      6.95327         0.005645      0.000000      0.058147
      2.75005      0.00000      0.00000        -0.021075      0.021075      0.004971
      2.75005      0.00000      3.47664        -0.019794      0.019794      0.004885
      2.75005      0.00000      6.95327         0.128491     -0.128491      0.016654
      2.75005      2.75005      0.00000        -0.021075     -0.021075      0.004971
      2.75005      2.75005      3.47664        -0.019794     -0.019794      0.004885
      2.75005      2.75005      6.95327         0.128491      0.128491      0.016654
      2.75005      5.50010      0.00000        -0.024028      0.000000     -0.105015
      2.75005      5.50010      3.47664        -0.028746      0.000000      0.019896
      2.75005      5.50010      6.95327        -0.005645      0.000000      0.058147
      5.50010      0.00000      0.00000        -0.000000      0.024028     -0.105015
      5.50010      0.00000      3.47664        -0.000000      0.028746      0.019896
      5.50010      0.00000      6.95327        -0.000000      0.005645      0.058147
      5.50010      2.75005      0.00000        -0.000000     -0.024028     -0.105015
      5.50010      2.75005      3.47664        -0.000000     -0.028746      0.019896
      5.50010      2.75005      6.95327        -0.000000     -0.005645      0.058147
      5.50010      5.50010      0.00000        -0.000000      0.000000     -0.089239
      5.50010      5.50010      3.47664        -0.000000      0.000000      0.035505
      5.50010      5.50010      6.95327        -0.000000      0.000000      0.085685
      1.37502      1.37502      1.73832        -0.000000      0.000000      0.063951
      1.37502      1.37502      5.21496        -0.000000      0.000000      0.218620
      1.37502      1.37502      8.69159        -0.000000      0.000000     -0.242693
      1.37502      4.12507      1.73832        -0.000000     -0.013116      0.003555
      1.37502      4.12507      5.21496        -0.000000      0.163301     -0.012733
      1.37502      4.12507      8.69159        -0.000000      0.223391      0.010733
      1.37502      6.87512      1.73832        -0.000000      0.013116      0.003555
      1.37502      6.87512      5.21496        -0.000000     -0.163301     -0.012733
      1.37502      6.87512      8.69159        -0.000000     -0.223391      0.010733
      4.12507      1.37502      1.73832        -0.013116      0.000000      0.003555
      4.12507      1.37502      5.21496         0.163301      0.000000     -0.012733
      4.12507      1.37502      8.69159         0.223391      0.000000      0.010733
      4.12507      4.12507      1.73832         0.008441      0.008441     -0.052466
      4.12507      4.12507      5.21496         0.018547      0.018547      0.060624
      4.12507      4.12507      8.69159        -0.003291     -0.003291     -0.027209
      4.12507      6.87512      1.73832         0.008441     -0.008441     -0.052466
      4.12507      6.87512      5.21496         0.018547     -0.018547      0.060624
      4.12507      6.87512      8.69159        -0.003291      0.003291     -0.027209
      6.87512      1.37502      1.73832         0.013116      0.000000      0.003555
      6.87512      1.37502      5.21496        -0.163301      0.000000     -0.012733
      6.87512      1.37502      8.69159        -0.223391      0.000000      0.010733
      6.87512      4.12507      1.73832        -0.008441      0.008441     -0.052466
      6.87512      4.12507      5.21496        -0.018547      0.018547      0.060624
      6.87512      4.12507      8.69159         0.003291     -0.003291     -0.027209
      6.87512      6.87512      1.73832        -0.008441     -0.008441     -0.052466
      6.87512      6.87512      5.21496        -0.018547     -0.018547      0.060624
      6.87512      6.87512      8.69159         0.003291      0.003291     -0.027209
 -----------------------------------------------------------------------------------
    total drift:                               -0.000000     -0.000000     -0.000074


--------------------------------------------------------------------------------------------------------



  FREE ENERGIE OF THE ION-ELECTRON SYSTEM (eV)
  ---------------------------------------------------
  free  energy   TOTEN  =      -356.44469655 eV

  energy  without entropy=     -356.42602789  energy(sigma->0) =     -356.43847366
 


--------------------------------------------------------------------------------------------------------


    POTLOK:  cpu time    0.9698: real time    0.9699


--------------------------------------------------------------------------------------------------------


     LOOP+:  cpu time 1420.9772: real time 1449.3444
    4ORBIT:  cpu time    0.0000: real time    0.0000
 


 total charge     
 
# of ion       s       p       d       tot
------------------------------------------
    1        0.405   0.428   0.000   0.833
    2        0.404   0.430   0.000   0.834
    3        0.406   0.430   0.000   0.836
    4        0.405   0.429   0.000   0.834
    5        0.404   0.429   0.000   0.833
    6        0.406   0.429   0.000   0.836
    7        0.405   0.426   0.000   0.831
    8        0.404   0.429   0.000   0.833
    9        0.405   0.426   0.000   0.831
   10        0.405   0.429   0.000   0.834
   11        0.404   0.429   0.000   0.833
   12        0.406   0.429   0.000   0.836
   13        0.405   0.429   0.000   0.834
   14        0.404   0.430   0.000   0.834
   15        0.406   0.429   0.000   0.836
   16        0.405   0.426   0.000   0.831
   17        0.404   0.429   0.000   0.833
   18        0.405   0.426   0.000   0.831
   19        0.405   0.427   0.000   0.832
   20        0.404   0.429   0.000   0.833
   21        0.405   0.426   0.000   0.831
   22        0.405   0.427   0.000   0.832
   23        0.404   0.429   0.000   0.833
   24        0.405   0.426   0.000   0.831
   25        0.405   0.428   0.000   0.833
   26        0.404   0.430   0.000   0.834
   27        0.405   0.427   0.000   0.832
   28        0.331   0.351   5.137   5.819
   29        0.329   0.348   5.159   5.836
   30        0.334   0.353   5.137   5.824
   31        0.333   0.352   5.141   5.826
   32        0.333   0.358   5.100   5.791
   33        0.335   0.357   5.103   5.795
   34        0.333   0.352   5.135   5.820
   35        0.333   0.358   5.099   5.791
   36        0.335   0.357   5.093   5.785
   37        0.332   0.352   5.138   5.823
   38        0.334   0.355   5.147   5.836
   39        0.335   0.353   5.159   5.848
   40        0.334   0.350   5.137   5.821
   41        0.332   0.351   5.138   5.821
   42        0.334   0.351   5.145   5.830
   43        0.334   0.351   5.138   5.823
   44        0.332   0.351   5.138   5.821
   45        0.333   0.351   5.133   5.818
   46        0.332   0.352   5.127   5.811
   47        0.334   0.356   5.143   5.832
   48        0.335   0.354   5.143   5.833
   49        0.334   0.351   5.139   5.824
   50        0.332   0.351   5.141   5.824
   51        0.333   0.351   5.130   5.815
   52        0.334   0.350   5.131   5.815
   53        0.332   0.351   5.142   5.826
   54        0.334   0.351   5.142   5.827
--------------------------------------------------
tot         19.932  21.080 138.615 179.627
 


 magnetization (x)
 
# of ion       s       p       d       tot
------------------------------------------
    1       -0.004  -0.007   0.000  -0.011
    2       -0.017  -0.029   0.000  -0.047
    3       -0.000   0.001   0.000   0.001
    4       -0.004  -0.006   0.000  -0.010
    5       -0.017  -0.030   0.000  -0.048
    6       -0.000   0.001   0.000   0.001
    7       -0.001  -0.002   0.000  -0.003
    8       -0.022  -0.035   0.000  -0.057
    9       -0.000   0.000   0.000   0.000
   10       -0.004  -0.006   0.000  -0.010
   11       -0.017  -0.030   0.000  -0.048
   12       -0.000   0.001   0.000   0.001
   13       -0.004  -0.007   0.000  -0.011
   14       -0.017  -0.030   0.000  -0.048
   15       -0.000   0.002   0.000   0.002
   16       -0.001  -0.002   0.000  -0.003
   17       -0.022  -0.035   0.000  -0.057
   18       -0.000  -0.000   0.000  -0.000
   19       -0.001  -0.001   0.000  -0.002
   20       -0.022  -0.036   0.000  -0.058
   21       -0.000   0.001   0.000   0.000
   22       -0.001  -0.001   0.000  -0.001
   23       -0.022  -0.036   0.000  -0.058
   24       -0.000   0.000   0.000   0.000
   25        0.000   0.001   0.000   0.002
   26       -0.023  -0.039   0.000  -0.062
   27        0.000   0.001   0.000   0.001
   28        0.018   0.020   2.333   2.372
   29       -0.022  -0.025  -1.894  -1.941
   30        0.026   0.032   2.155   2.214
   31        0.018   0.021   2.364   2.402
   32        0.024   0.029   2.466   2.519
   33       -0.019  -0.025  -2.359  -2.403
   34        0.018   0.021   2.368   2.407
   35        0.024   0.029   2.469   2.522
   36       -0.019  -0.025  -2.373  -2.417
   37        0.018   0.021   2.370   2.409
   38        0.024   0.029   2.435   2.489
   39       -0.021  -0.026  -2.347  -2.394
   40        0.018   0.020   2.386   2.424
   41        0.014   0.013   2.346   2.374
   42       -0.012  -0.010  -2.259  -2.282
   43        0.018   0.020   2.385   2.423
   44        0.014   0.013   2.342   2.370
   45       -0.012  -0.010  -2.264  -2.286
   46        0.018   0.020   2.377   2.415
   47        0.024   0.029   2.443   2.497
   48       -0.021  -0.026  -2.362  -2.409
   49        0.018   0.020   2.383   2.421
   50        0.015   0.014   2.339   2.367
   51       -0.013  -0.010  -2.264  -2.286
   52        0.018   0.020   2.393   2.431
   53        0.014   0.014   2.344   2.372
   54       -0.012  -0.011  -2.266  -2.289
--------------------------------------------------
tot         -0.012  -0.105  22.313  22.195
 

 total amount of memory used by VASP MPI-rank0   638540. kBytes
=======================================================================

   base      :      30000. kBytes
   nonl-proj :      19946. kBytes
   fftplans  :      31580. kBytes
   grid      :      21385. kBytes
   one-center:        435. kBytes
   wavefun   :     535194. kBytes
 
  
  
 General timing and accounting informations for this job:
 ========================================================
  
                  Total CPU time used (sec):     1444.229
                            User time (sec):     1423.252
                          System time (sec):       20.977
                         Elapsed time (sec):     1474.093
  
                   Maximum memory used (kb):      800960.
                   Average memory used (kb):           0.
  
                          Minor page faults:       359698
                          Major page faults:           17
                 Voluntary context switches:         2635
