   36   36    1    2
  0.1314651E+02  0.8250148E-09  0.8250148E-09  0.6953274E-09  0.2000000E-15
  1.000000000000000E-004
  CAR 
 AlMn_pv                                 
    180     36    102
 
  0.0000000E+00  0.0000000E+00  0.0000000E+00  0.6666667E-02
    1       -2.503894     -2.540439   1.000000   1.000000
    2       -0.347431     -0.377923   1.000000   1.000000
    3       -0.332408     -0.373625   1.000000   1.000000
    4       -0.304859     -0.350065   1.000000   1.000000
    5       -0.291010     -0.334519   1.000000   1.000000
    6       -0.133623     -0.124821   1.000000   1.000000
    7        1.394541      1.323719   1.000000   1.000000
    8        1.404151      1.340495   1.000000   1.000000
    9        1.427011      1.351314   1.000000   1.000000
   10        1.456980      1.368876   1.000000   1.000000
   11        1.457486      1.384204   1.000000   1.000000
   12        1.607788      1.536395   1.000000   1.000000
   13        1.619854      1.546500   1.000000   1.000000
   14        1.630880      1.563147   1.000000   1.000000
   15        1.644296      1.578337   1.000000   1.000000
   16        2.846280      2.680657   1.000000   1.000000
   17        2.852800      2.700452   1.000000   1.000000
   18        2.861289      2.716049   1.000000   1.000000
   19        2.869596      2.729939   1.000000   1.000000
   20        3.559938      3.452803   1.000000   1.000000
   21        3.610402      3.479081   1.000000   1.000000
   22        3.628676      3.508713   1.000000   1.000000
   23        3.690456      3.539966   1.000000   1.000000
   24        4.290239      4.049867   1.000000   1.000000
   25        4.301315      4.103343   1.000000   1.000000
   26        4.539887      4.224265   1.000000   1.000000
   27        4.613477      4.250448   1.000000   1.000000
   28        4.624770      4.468160   1.000000   1.000000
   29        4.712176      4.534887   1.000000   1.000000
   30        4.722364      4.556274   1.000000   1.000000
   31        4.747640      4.597372   1.000000   1.000000
   32        4.925484      4.625938   1.000000   1.000000
   33        4.979789      4.660663   1.000000   1.000000
   34        5.011050      4.667107   1.000000   1.000000
   35        5.081537      4.671706   1.000000   1.000000
   36        5.100278      4.682619   1.000000   1.000000
   37        5.103518      4.698982   1.000000   1.000000
   38        5.219427      4.771067   1.000000   1.000000
   39        5.255822      4.830919   1.000000   1.000000
   40        5.281160      4.887443   1.000000   1.000000
   41        5.385005      5.155946   1.000000   1.000000
   42        5.467426      5.174818   1.000000   1.000000
   43        5.530925      5.211466   1.000000   1.000000
   44        5.557776      5.257886   1.000000   1.000000
   45        5.609431      5.300687   1.000000   1.000000
   46        5.632140      5.321549   1.000000   1.000000
   47        5.670720      5.326737   1.000000   1.000000
   48        5.799208      5.361422   1.000000   1.000000
   49        5.815239      5.407658   1.000000   1.000000
   50        5.905374      5.426653   1.000000   1.000000
   51        5.909251      5.449557   1.000000   1.000000
   52        6.005229      5.471996   1.000000   1.000000
   53        6.237795      5.548379   1.000000   1.000000
   54        6.247851      5.643537   1.000000   1.000000
   55        6.328331      5.677902   1.000000   1.000000
   56        6.369059      5.755875   1.000000   1.000000
   57        6.428552      5.805060   1.000000   1.000000
   58        6.442409      5.833734   1.000000   1.000000
   59        6.524449      5.861631   1.000000   1.000000
   60        6.529060      5.955780   1.000000   1.000000
   61        6.544174      5.988232   1.000000   1.000000
   62        6.544302      5.998454   1.000000   1.000000
   63        6.574490      6.151285   1.000000   1.000000
   64        6.654862      6.229463   1.000000   1.000000
   65        6.671093      6.284699   1.000000   1.000000
   66        6.680546      6.353188   1.000000   1.000000
   67        6.733159      6.363749   1.000000   1.000000
   68        6.734831      6.377583   1.000000   1.000000
   69        6.771094      6.395180   1.000000   1.000000
   70        6.840832      6.424253   1.000000   1.000000
   71        6.892166      6.439348   1.000000   1.000000
   72        6.907815      6.443158   1.000000   1.000000
   73        7.022202      6.460614   1.000002   1.000000
   74        7.246056      6.466893   1.001383   1.000000
   75        7.279196      6.542945   1.002633   1.000000
   76        7.303666      6.563635   1.003739   1.000000
   77        7.347296      6.654170   1.007860   1.000000
   78        7.507154      6.689415   1.035067   1.000000
   79        7.528488      6.704312   1.030518   1.000000
   80        7.575930      6.705962   0.999730   1.000000
   81        7.607833      6.760294   0.957917   1.000000
   82        7.622039      6.804614   0.929865   1.000000
   83        7.656937      6.810513   0.799859   1.000000
   84        7.887881      6.885410   0.041417   1.000000
   85        8.014384      6.957114  -0.033737   1.000000
   86        8.058494      7.035500  -0.025385   1.000003
   87        8.081909      7.048620  -0.018120   1.000006
   88        8.127288      7.180593  -0.010138   1.000241
   89        8.137923      7.185469  -0.009282   1.000256
   90        8.168183      7.226386  -0.005581   1.000805
   91        8.178813      7.265701  -0.004347   1.001845
   92        8.389143      7.324002  -0.000027   1.005840
   93        8.415742      7.379969  -0.000013   1.013544
   94        8.497895      7.400432  -0.000001   1.016402
   95        8.513376      7.445024  -0.000000   1.027254
   96        8.589484      7.483202  -0.000000   1.034236
   97        8.604231      7.573442  -0.000000   1.004815
   98        8.673621      7.621994  -0.000000   0.923208
   99        8.675922      7.904111  -0.000000   0.012871
  100        8.783173      8.008133  -0.000000  -0.033945
  101        8.827637      8.061526  -0.000000  -0.023932
  102        8.870649      8.091608  -0.000000  -0.015765
 
  0.2000000E+00  0.0000000E+00  0.0000000E+00  0.1333333E-01
    1       -2.413578     -2.449969   1.000000   1.000000
    2       -1.085600     -1.123841   1.000000   1.000000
    3       -0.249656     -0.295348   1.000000   1.000000
    4       -0.223766     -0.258212   1.000000   1.000000
    5       -0.066725     -0.060257   1.000000   1.000000
    6        0.588274      0.542599   1.000000   1.000000
    7        0.895798      0.861582   1.000000   1.000000
    8        0.948306      0.889601   1.000000   1.000000
    9        0.971345      0.922062   1.000000   1.000000
   10        1.467798      1.412332   1.000000   1.000000
   11        1.493448      1.429875   1.000000   1.000000
   12        1.553633      1.436847   1.000000   1.000000
   13        1.990142      1.862182   1.000000   1.000000
   14        2.358419      2.258314   1.000000   1.000000
   15        2.375820      2.259602   1.000000   1.000000
   16        2.379592      2.278251   1.000000   1.000000
   17        2.391181      2.284079   1.000000   1.000000
   18        2.901050      2.780803   1.000000   1.000000
   19        3.349739      3.121812   1.000000   1.000000
   20        3.358351      3.169812   1.000000   1.000000
   21        3.677181      3.545790   1.000000   1.000000
   22        3.692673      3.575946   1.000000   1.000000
   23        3.794628      3.693700   1.000000   1.000000
   24        4.245357      4.027640   1.000000   1.000000
   25        4.245538      4.068456   1.000000   1.000000
   26        4.394792      4.197384   1.000000   1.000000
   27        4.536126      4.209189   1.000000   1.000000
   28        4.538797      4.235833   1.000000   1.000000
   29        4.727940      4.434624   1.000000   1.000000
   30        4.737706      4.467374   1.000000   1.000000
   31        4.766613      4.495927   1.000000   1.000000
   32        4.811601      4.498123   1.000000   1.000000
   33        4.893006      4.595755   1.000000   1.000000
   34        4.910487      4.630018   1.000000   1.000000
   35        5.000626      4.704636   1.000000   1.000000
   36        5.014998      4.821150   1.000000   1.000000
   37        5.139582      4.852060   1.000000   1.000000
   38        5.219473      4.853669   1.000000   1.000000
   39        5.234867      4.858924   1.000000   1.000000
   40        5.250038      4.876228   1.000000   1.000000
   41        5.311991      5.010653   1.000000   1.000000
   42        5.458301      5.167076   1.000000   1.000000
   43        5.558934      5.169345   1.000000   1.000000
   44        5.572197      5.219942   1.000000   1.000000
   45        5.611369      5.261735   1.000000   1.000000
   46        5.660183      5.268738   1.000000   1.000000
   47        5.661808      5.390140   1.000000   1.000000
   48        5.756281      5.397453   1.000000   1.000000
   49        5.805626      5.417401   1.000000   1.000000
   50        5.964800      5.445235   1.000000   1.000000
   51        5.981858      5.466712   1.000000   1.000000
   52        6.064844      5.565476   1.000000   1.000000
   53        6.244534      5.614205   1.000000   1.000000
   54        6.259675      5.651605   1.000000   1.000000
   55        6.312977      5.726331   1.000000   1.000000
   56        6.386317      5.757369   1.000000   1.000000
   57        6.399107      5.794744   1.000000   1.000000
   58        6.415096      5.807686   1.000000   1.000000
   59        6.468765      5.891519   1.000000   1.000000
   60        6.484608      5.965187   1.000000   1.000000
   61        6.525193      6.017030   1.000000   1.000000
   62        6.579239      6.128328   1.000000   1.000000
   63        6.634627      6.147769   1.000000   1.000000
   64        6.656280      6.187957   1.000000   1.000000
   65        6.659675      6.245072   1.000000   1.000000
   66        6.710230      6.321858   1.000000   1.000000
   67        6.724781      6.336927   1.000000   1.000000
   68        6.734974      6.359505   1.000000   1.000000
   69        6.738017      6.364022   1.000000   1.000000
   70        6.863121      6.404965   1.000000   1.000000
   71        6.903247      6.411876   1.000000   1.000000
   72        7.029140      6.459188   1.000002   1.000000
   73        7.030862      6.463715   1.000003   1.000000
   74        7.207621      6.509932   1.000518   1.000000
   75        7.249172      6.516284   1.001210   1.000000
   76        7.297151      6.561612   1.003772   1.000000
   77        7.366469      6.597992   1.010737   1.000000
   78        7.414408      6.612603   1.021035   1.000000
   79        7.437273      6.646335   1.025674   1.000000
   80        7.528098      6.689939   1.030691   1.000000
   81        7.637624      6.725685   0.863544   1.000000
   82        7.648104      6.765127   0.856422   1.000000
   83        7.726037      6.812142   0.584898   1.000000
   84        7.899627      6.875011   0.020288   1.000000
   85        7.955587      6.884829  -0.029912   1.000000
   86        7.963635      6.950496  -0.031943   1.000000
   87        8.060305      6.957122  -0.024336   1.000000
   88        8.110538      7.031759  -0.013268   1.000003
   89        8.149760      7.077809  -0.007401   1.000012
   90        8.181676      7.083598  -0.004048   1.000017
   91        8.225056      7.268753  -0.001947   1.001812
   92        8.299259      7.403046  -0.000330   1.018834
   93        8.309980      7.406480  -0.000245   1.018962
   94        8.504150      7.442836  -0.000001   1.026625
   95        8.506321      7.504296  -0.000001   1.035447
   96        8.514817      7.640144  -0.000000   0.882274
   97        8.604952      7.640470  -0.000000   0.878943
   98        8.616608      7.677921  -0.000000   0.767248
   99        8.696873      7.872598  -0.000000   0.068075
  100        8.733876      7.957948  -0.000000  -0.032370
  101        8.815730      7.975595  -0.000000  -0.034520
  102        8.912056      8.155003  -0.000000  -0.006927
 
  0.4000000E+00  0.0000000E+00  0.0000000E+00  0.1333333E-01
    1       -2.145254     -2.180618   1.000000   1.000000
    2       -1.695279     -1.733923   1.000000   1.000000
    3       -0.005478     -0.051045   1.000000   1.000000
    4        0.021777     -0.014022   1.000000   1.000000
    5        0.131507      0.129779   1.000000   1.000000
    6        0.405417      0.352031   1.000000   1.000000
    7        0.427268      0.386048   1.000000   1.000000
    8        0.458651      0.447745   1.000000   1.000000
    9        1.607541      1.547180   1.000000   1.000000
   10        1.653088      1.590918   1.000000   1.000000
   11        1.680164      1.610376   1.000000   1.000000
   12        1.828747      1.715797   1.000000   1.000000
   13        1.973936      1.884743   1.000000   1.000000
   14        1.990643      1.904005   1.000000   1.000000
   15        2.301193      2.179497   1.000000   1.000000
   16        2.440756      2.239491   1.000000   1.000000
   17        2.710681      2.652293   1.000000   1.000000
   18        3.055401      2.904020   1.000000   1.000000
   19        3.073989      2.904412   1.000000   1.000000
   20        3.753544      3.450295   1.000000   1.000000
   21        3.791372      3.529570   1.000000   1.000000
   22        3.856841      3.721804   1.000000   1.000000
   23        3.874628      3.747217   1.000000   1.000000
   24        4.097437      3.934712   1.000000   1.000000
   25        4.102374      3.940156   1.000000   1.000000
   26        4.234817      4.027702   1.000000   1.000000
   27        4.303569      4.106110   1.000000   1.000000
   28        4.493020      4.161847   1.000000   1.000000
   29        4.530225      4.220699   1.000000   1.000000
   30        4.538339      4.276709   1.000000   1.000000
   31        4.553666      4.277480   1.000000   1.000000
   32        4.647304      4.515953   1.000000   1.000000
   33        4.830209      4.657081   1.000000   1.000000
   34        4.885941      4.668412   1.000000   1.000000
   35        5.005654      4.767959   1.000000   1.000000
   36        5.101645      4.779557   1.000000   1.000000
   37        5.117922      4.807052   1.000000   1.000000
   38        5.211669      4.888845   1.000000   1.000000
   39        5.269902      4.950519   1.000000   1.000000
   40        5.345789      5.004057   1.000000   1.000000
   41        5.394365      5.064499   1.000000   1.000000
   42        5.472198      5.073946   1.000000   1.000000
   43        5.483853      5.158175   1.000000   1.000000
   44        5.560501      5.170910   1.000000   1.000000
   45        5.602826      5.193697   1.000000   1.000000
   46        5.687663      5.295901   1.000000   1.000000
   47        5.693038      5.433168   1.000000   1.000000
   48        5.737068      5.451847   1.000000   1.000000
   49        5.796841      5.460129   1.000000   1.000000
   50        5.952794      5.469864   1.000000   1.000000
   51        6.072450      5.528243   1.000000   1.000000
   52        6.089373      5.561785   1.000000   1.000000
   53        6.170224      5.609304   1.000000   1.000000
   54        6.185679      5.656612   1.000000   1.000000
   55        6.275977      5.691617   1.000000   1.000000
   56        6.319595      5.706367   1.000000   1.000000
   57        6.343025      5.804259   1.000000   1.000000
   58        6.387474      5.927266   1.000000   1.000000
   59        6.427051      5.933780   1.000000   1.000000
   60        6.519968      6.047895   1.000000   1.000000
   61        6.525217      6.057182   1.000000   1.000000
   62        6.561440      6.074430   1.000000   1.000000
   63        6.574509      6.151098   1.000000   1.000000
   64        6.624462      6.162404   1.000000   1.000000
   65        6.642345      6.211545   1.000000   1.000000
   66        6.723521      6.268197   1.000000   1.000000
   67        6.726322      6.280645   1.000000   1.000000
   68        6.735138      6.313207   1.000000   1.000000
   69        6.834459      6.346766   1.000000   1.000000
   70        6.903609      6.358928   1.000000   1.000000
   71        7.000664      6.390691   1.000001   1.000000
   72        7.036607      6.430306   1.000003   1.000000
   73        7.115178      6.437515   1.000040   1.000000
   74        7.182292      6.460761   1.000246   1.000000
   75        7.270125      6.461100   1.001925   1.000000
   76        7.336690      6.520297   1.006822   1.000000
   77        7.362032      6.561261   1.010412   1.000000
   78        7.418510      6.599132   1.022288   1.000000
   79        7.438236      6.638967   1.026649   1.000000
   80        7.509896      6.689432   1.034790   1.000000
   81        7.629071      6.714965   0.900215   1.000000
   82        7.702795      6.720764   0.671457   1.000000
   83        7.724519      6.849435   0.593692   1.000000
   84        7.802468      6.856779   0.266940   1.000000
   85        7.920959      6.862478  -0.006244   1.000000
   86        7.949582      6.896392  -0.027315   1.000000
   87        7.998982      6.916799  -0.035085   1.000000
   88        8.041775      6.929622  -0.028974   1.000000
   89        8.104186      6.947862  -0.014632   1.000000
   90        8.183366      6.956849  -0.003959   1.000000
   91        8.195616      7.068552  -0.003200   1.000009
   92        8.244336      7.429362  -0.001127   1.025506
   93        8.354264      7.465473  -0.000076   1.031743
   94        8.377096      7.526607  -0.000038   1.032482
   95        8.390612      7.627493  -0.000025   0.917933
   96        8.420821      7.692237  -0.000009   0.720328
   97        8.583627      7.729507  -0.000000   0.549600
   98        8.670855      7.733127  -0.000000   0.526340
   99        8.705813      7.740500  -0.000000   0.522750
  100        8.716298      7.865345  -0.000000   0.085599
  101        8.776264      8.009285  -0.000000  -0.034061
  102        8.806150      8.110262  -0.000000  -0.013813
 
  0.0000000E+00  0.2000000E+00  0.0000000E+00  0.1333333E-01
    1       -2.413361     -2.449908   1.000000   1.000000
    2       -1.086880     -1.124470   1.000000   1.000000
    3       -0.261890     -0.290274   1.000000   1.000000
    4       -0.208658     -0.262115   1.000000   1.000000
    5       -0.066767     -0.059780   1.000000   1.000000
    6        0.586960      0.542031   1.000000   1.000000
    7        0.892183      0.864628   1.000000   1.000000
    8        0.942951      0.899109   1.000000   1.000000
    9        0.976332      0.912500   1.000000   1.000000
   10        1.459126      1.386517   1.000000   1.000000
   11        1.517977      1.437204   1.000000   1.000000
   12        1.554394      1.444735   1.000000   1.000000
   13        1.974631      1.870985   1.000000   1.000000
   14        2.351821      2.246313   1.000000   1.000000
   15        2.372236      2.250726   1.000000   1.000000
   16        2.383954      2.287246   1.000000   1.000000
   17        2.399199      2.289525   1.000000   1.000000
   18        2.896440      2.779691   1.000000   1.000000
   19        3.300990      3.131758   1.000000   1.000000
   20        3.395994      3.168749   1.000000   1.000000
   21        3.635219      3.523992   1.000000   1.000000
   22        3.750754      3.597120   1.000000   1.000000
   23        3.797946      3.696825   1.000000   1.000000
   24        4.240117      4.028949   1.000000   1.000000
   25        4.289035      4.076064   1.000000   1.000000
   26        4.393763      4.152255   1.000000   1.000000
   27        4.408010      4.226397   1.000000   1.000000
   28        4.601098      4.252656   1.000000   1.000000
   29        4.678995      4.417550   1.000000   1.000000
   30        4.738546      4.480766   1.000000   1.000000
   31        4.788393      4.486284   1.000000   1.000000
   32        4.822193      4.507802   1.000000   1.000000
   33        4.853022      4.621432   1.000000   1.000000
   34        5.071458      4.631242   1.000000   1.000000
   35        5.092905      4.740195   1.000000   1.000000
   36        5.105021      4.809434   1.000000   1.000000
   37        5.141684      4.827019   1.000000   1.000000
   38        5.183530      4.856570   1.000000   1.000000
   39        5.195802      4.862198   1.000000   1.000000
   40        5.198731      4.869023   1.000000   1.000000
   41        5.286051      5.013493   1.000000   1.000000
   42        5.390172      5.146224   1.000000   1.000000
   43        5.506920      5.194627   1.000000   1.000000
   44        5.533608      5.212379   1.000000   1.000000
   45        5.542551      5.235303   1.000000   1.000000
   46        5.693521      5.275668   1.000000   1.000000
   47        5.701064      5.350646   1.000000   1.000000
   48        5.770133      5.375261   1.000000   1.000000
   49        5.850920      5.472334   1.000000   1.000000
   50        5.959909      5.495264   1.000000   1.000000
   51        5.987161      5.572678   1.000000   1.000000
   52        6.126884      5.583243   1.000000   1.000000
   53        6.178470      5.603112   1.000000   1.000000
   54        6.246592      5.621238   1.000000   1.000000
   55        6.308950      5.707744   1.000000   1.000000
   56        6.389594      5.719122   1.000000   1.000000
   57        6.393318      5.799666   1.000000   1.000000
   58        6.395630      5.844546   1.000000   1.000000
   59        6.440532      5.902441   1.000000   1.000000
   60        6.469877      5.904180   1.000000   1.000000
   61        6.499865      5.958355   1.000000   1.000000
   62        6.563591      5.996735   1.000000   1.000000
   63        6.579572      6.155514   1.000000   1.000000
   64        6.629086      6.180046   1.000000   1.000000
   65        6.659206      6.233976   1.000000   1.000000
   66        6.710747      6.289417   1.000000   1.000000
   67        6.713433      6.334110   1.000000   1.000000
   68        6.744366      6.347325   1.000000   1.000000
   69        6.750341      6.348456   1.000000   1.000000
   70        6.901614      6.368265   1.000000   1.000000
   71        6.978128      6.403117   1.000000   1.000000
   72        7.027750      6.431192   1.000002   1.000000
   73        7.078591      6.464913   1.000015   1.000000
   74        7.136410      6.500546   1.000071   1.000000
   75        7.158154      6.529125   1.000130   1.000000
   76        7.289495      6.534814   1.003022   1.000000
   77        7.373894      6.575596   1.012722   1.000000
   78        7.393257      6.693802   1.016669   1.000000
   79        7.586869      6.728788   0.985146   1.000000
   80        7.643044      6.744298   0.865557   1.000000
   81        7.652912      6.761197   0.849993   1.000000
   82        7.668977      6.780341   0.763720   1.000000
   83        7.750594      6.787759   0.475120   1.000000
   84        7.806050      6.875200   0.256970   1.000000
   85        7.931917      6.893061  -0.013628   1.000000
   86        8.045557      6.930007  -0.027990   1.000000
   87        8.102481      6.960339  -0.014887   1.000000
   88        8.108892      7.004322  -0.013538   1.000001
   89        8.145918      7.146810  -0.007798   1.000098
   90        8.193163      7.170290  -0.003479   1.000190
   91        8.288446      7.321634  -0.000421   1.005283
   92        8.380085      7.387912  -0.000036   1.014653
   93        8.408437      7.408142  -0.000016   1.019443
   94        8.459479      7.417283  -0.000003   1.020642
   95        8.483862      7.476685  -0.000001   1.033488
   96        8.526118      7.574567  -0.000000   1.002500
   97        8.529760      7.601689  -0.000000   0.966518
   98        8.589532      7.811951  -0.000000   0.242883
   99        8.632361      7.926139  -0.000000  -0.010766
  100        8.697046      8.021947  -0.000000  -0.032610
  101        8.741334      8.038091  -0.000000  -0.028512
  102        8.779413      8.126872  -0.000000  -0.009912
 
  0.2000000E+00  0.2000000E+00  0.0000000E+00  0.2666667E-01
    1       -2.323306     -2.359712   1.000000   1.000000
    2       -1.005027     -1.042616   1.000000   1.000000
    3       -0.995740     -1.034368   1.000000   1.000000
    4        0.000028      0.004669   1.000000   1.000000
    5        0.248691      0.203004   1.000000   1.000000
    6        0.662335      0.616781   1.000000   1.000000
    7        0.671863      0.625599   1.000000   1.000000
    8        0.954177      0.922426   1.000000   1.000000
    9        0.963966      0.929178   1.000000   1.000000
   10        1.646553      1.530572   1.000000   1.000000
   11        1.779873      1.709559   1.000000   1.000000
   12        1.785088      1.715584   1.000000   1.000000
   13        1.884405      1.806191   1.000000   1.000000
   14        2.036237      1.921343   1.000000   1.000000
   15        2.054745      1.933314   1.000000   1.000000
   16        2.910631      2.742193   1.000000   1.000000
   17        2.920410      2.752097   1.000000   1.000000
   18        2.960180      2.800261   1.000000   1.000000
   19        2.974106      2.854386   1.000000   1.000000
   20        2.984417      2.865056   1.000000   1.000000
   21        3.781904      3.533502   1.000000   1.000000
   22        3.841481      3.734242   1.000000   1.000000
   23        3.850957      3.740877   1.000000   1.000000
   24        3.959168      3.796079   1.000000   1.000000
   25        4.264656      4.010639   1.000000   1.000000
   26        4.418549      4.199471   1.000000   1.000000
   27        4.452595      4.270168   1.000000   1.000000
   28        4.486640      4.294888   1.000000   1.000000
   29        4.578749      4.313384   1.000000   1.000000
   30        4.639933      4.318083   1.000000   1.000000
   31        4.697550      4.359317   1.000000   1.000000
   32        4.788262      4.462848   1.000000   1.000000
   33        4.856199      4.567422   1.000000   1.000000
   34        4.908549      4.576939   1.000000   1.000000
   35        4.996377      4.666331   1.000000   1.000000
   36        5.043397      4.734821   1.000000   1.000000
   37        5.078215      4.828506   1.000000   1.000000
   38        5.104484      4.842110   1.000000   1.000000
   39        5.238785      5.004833   1.000000   1.000000
   40        5.286533      5.025113   1.000000   1.000000
   41        5.410093      5.048417   1.000000   1.000000
   42        5.430921      5.102889   1.000000   1.000000
   43        5.495630      5.193836   1.000000   1.000000
   44        5.599620      5.205210   1.000000   1.000000
   45        5.648471      5.255764   1.000000   1.000000
   46        5.696061      5.285708   1.000000   1.000000
   47        5.698454      5.319265   1.000000   1.000000
   48        5.789799      5.448124   1.000000   1.000000
   49        5.896724      5.523764   1.000000   1.000000
   50        5.945384      5.529875   1.000000   1.000000
   51        6.008528      5.566854   1.000000   1.000000
   52        6.103871      5.587474   1.000000   1.000000
   53        6.200994      5.640576   1.000000   1.000000
   54        6.265573      5.671176   1.000000   1.000000
   55        6.286144      5.673981   1.000000   1.000000
   56        6.366043      5.767748   1.000000   1.000000
   57        6.377940      5.784266   1.000000   1.000000
   58        6.416369      5.828624   1.000000   1.000000
   59        6.434024      5.887814   1.000000   1.000000
   60        6.485859      5.919323   1.000000   1.000000
   61        6.491601      6.001737   1.000000   1.000000
   62        6.570752      6.092241   1.000000   1.000000
   63        6.638792      6.134141   1.000000   1.000000
   64        6.639157      6.182060   1.000000   1.000000
   65        6.671620      6.204254   1.000000   1.000000
   66        6.698661      6.265123   1.000000   1.000000
   67        6.738335      6.303669   1.000000   1.000000
   68        6.757084      6.340310   1.000000   1.000000
   69        6.852927      6.359250   1.000000   1.000000
   70        6.871997      6.367536   1.000000   1.000000
   71        6.986941      6.423501   1.000001   1.000000
   72        7.035550      6.432573   1.000003   1.000000
   73        7.106614      6.475044   1.000031   1.000000
   74        7.109384      6.484359   1.000032   1.000000
   75        7.179317      6.533197   1.000259   1.000000
   76        7.195371      6.544150   1.000350   1.000000
   77        7.299112      6.576502   1.003562   1.000000
   78        7.387003      6.658966   1.015217   1.000000
   79        7.458299      6.691092   1.030447   1.000000
   80        7.553284      6.710250   1.019057   1.000000
   81        7.627601      6.726786   0.897550   1.000000
   82        7.679641      6.757993   0.742936   1.000000
   83        7.712317      6.780185   0.630908   1.000000
   84        7.854807      6.789464   0.106382   1.000000
   85        7.941432      6.881129  -0.020607   1.000000
   86        8.002508      6.888738  -0.034938   1.000000
   87        8.016375      6.928336  -0.033025   1.000000
   88        8.115096      6.977179  -0.012687   1.000000
   89        8.158315      7.026216  -0.006540   1.000003
   90        8.221270      7.110036  -0.001979   1.000034
   91        8.226840      7.210523  -0.001820   1.000523
   92        8.305504      7.298776  -0.000276   1.003346
   93        8.412965      7.359170  -0.000013   1.010216
   94        8.473940      7.480223  -0.000002   1.034133
   95        8.514421      7.497751  -0.000000   1.035430
   96        8.544301      7.637969  -0.000000   0.892862
   97        8.553676      7.789977  -0.000000   0.313602
   98        8.640719      7.871528  -0.000000   0.071892
   99        8.645125      7.918936  -0.000000  -0.006708
  100        8.700974      7.935427  -0.000000  -0.022027