       N       E                     dE             d eps       ncg     rms          ort
DAV:   1     0.138154056022E+04    0.13815E+04   -0.57612E+04  3672   0.153E+03
DAV:   2    -0.262309924794E+02   -0.14078E+04   -0.13915E+04  3672   0.479E+02
DAV:   3    -0.229627470437E+03   -0.20340E+03   -0.19102E+03  3672   0.192E+02
DAV:   4    -0.263253295906E+03   -0.33626E+02   -0.31186E+02  3672   0.820E+01
DAV:   5    -0.268115462774E+03   -0.48622E+01   -0.45840E+01  3672   0.242E+01
DAV:   6    -0.268937112259E+03   -0.82165E+00   -0.77632E+00  3672   0.717E+00
DAV:   7    -0.269145986960E+03   -0.20887E+00   -0.19818E+00  3672   0.275E+00
DAV:   8    -0.269215965694E+03   -0.69979E-01   -0.66843E-01  3672   0.110E+00
SDA:   9    -0.623452903532E+02    0.20687E+03   -0.66843E-01  3672   0.234E+04 0.000E+00
CGA:  10    -0.207016380111E+03   -0.14467E+03   -0.14593E+03  3672   0.136E+03 0.403E+03
CGA:  11    -0.217333813068E+03   -0.10317E+02   -0.10320E+02  3672   0.518E+02 0.226E+01
CGA:  12    -0.227292643647E+03   -0.99588E+01   -0.99579E+01  3672   0.854E+02 0.196E+00
CGA:  13    -0.232581845460E+03   -0.52892E+01   -0.54370E+01  3672   0.125E+02-0.354E+00
CGA:  14    -0.233548091928E+03   -0.96625E+00   -0.97510E+00  3672   0.549E+01-0.504E-01
CGA:  15    -0.234491063379E+03   -0.94297E+00   -0.94305E+00  3672   0.578E+01 0.133E-01
CGA:  16    -0.234980941471E+03   -0.48988E+00   -0.48872E+00  3672   0.161E+01 0.138E-01
CGA:  17    -0.235194617622E+03   -0.21368E+00   -0.21361E+00  3672   0.187E+01-0.705E-03
CGA:  18    -0.235431550224E+03   -0.23693E+00   -0.23697E+00  3672   0.141E+01-0.115E-02
CGA:  19    -0.235552283672E+03   -0.12073E+00   -0.12138E+00  3672   0.501E+00-0.458E-02
CGA:  20    -0.235655428759E+03   -0.10315E+00   -0.10317E+00  3672   0.850E+00-0.590E-03
CGA:  21    -0.235771911552E+03   -0.11648E+00   -0.11652E+00  3672   0.532E+00-0.744E-03
CGA:  22    -0.235820240972E+03   -0.48329E-01   -0.48161E-01  3672   0.306E+00-0.105E-03
CGA:  23    -0.235869415672E+03   -0.49175E-01   -0.49175E-01  3672   0.379E+00-0.565E-03
CGA:  24    -0.235925757047E+03   -0.56341E-01   -0.56300E-01  3672   0.307E+00-0.220E-02
CGA:  25    -0.235973083158E+03   -0.47326E-01   -0.47319E-01  3672   0.304E+00-0.972E-03
CGA:  26    -0.236011164805E+03   -0.38082E-01   -0.37980E-01  3672   0.194E+00 0.414E-03
CGA:  27    -0.236034908688E+03   -0.23744E-01   -0.23775E-01  3672   0.149E+00 0.117E-02
CGA:  28    -0.236057119397E+03   -0.22211E-01   -0.22214E-01  3672   0.143E+00 0.144E-02
CGA:  29    -0.236074385983E+03   -0.17267E-01   -0.17361E-01  3672   0.923E-01 0.180E-02
CGA:  30    -0.236093558251E+03   -0.19172E-01   -0.19123E-01  3672   0.127E+00 0.129E-02
CGA:  31    -0.236113915125E+03   -0.20357E-01   -0.20353E-01  3672   0.906E-01 0.226E-02
CGA:  32    -0.236123539527E+03   -0.96244E-02   -0.96574E-02  3672   0.605E-01 0.123E-02
CGA:  33    -0.236133042403E+03   -0.95029E-02   -0.95010E-02  3672   0.618E-01 0.117E-02
CGA:  34    -0.236142398253E+03   -0.93558E-02   -0.93592E-02  3672   0.423E-01 0.723E-03
CGA:  35    -0.236149433753E+03   -0.70355E-02   -0.70281E-02  3672   0.527E-01 0.468E-03
CGA:  36    -0.236159064971E+03   -0.96312E-02   -0.96298E-02  3672   0.521E-01 0.469E-04
CGA:  37    -0.236164433537E+03   -0.53686E-02   -0.53840E-02  3672   0.259E-01 0.406E-04
CGA:  38    -0.236168186998E+03   -0.37535E-02   -0.37531E-02  3672   0.280E-01 0.641E-05
CGA:  39    -0.236174121862E+03   -0.59349E-02   -0.59354E-02  3672   0.299E-01-0.114E-03
SDA:  40    -0.236177935563E+03   -0.38137E-02   -0.38067E-02  3672   0.226E-01-0.178E-03
CGA:  41    -0.236180388106E+03   -0.24525E-02   -0.24530E-02  3672   0.259E-01 0.168E-05
CGA:  42    -0.236184171987E+03   -0.37839E-02   -0.37838E-02  3672   0.974E-02-0.151E-04
CGA:  43    -0.236185423051E+03   -0.12511E-02   -0.12509E-02  3672   0.122E-01-0.557E-05
CGA:  44    -0.236188517988E+03   -0.30949E-02   -0.30996E-02  3672   0.113E-01-0.446E-04
CGA:  45    -0.236190021499E+03   -0.15035E-02   -0.15036E-02  3672   0.102E-01 0.864E-05
CGA:  46    -0.236192111770E+03   -0.20903E-02   -0.20900E-02  3672   0.826E-02 0.114E-04
CGA:  47    -0.236193295299E+03   -0.11835E-02   -0.11834E-02  3672   0.847E-02-0.672E-06
CGA:  48    -0.236194401101E+03   -0.11058E-02   -0.11056E-02  3672   0.650E-02 0.994E-06
CGA:  49    -0.236195798978E+03   -0.13979E-02   -0.13977E-02  3672   0.124E-01 0.176E-05
CGA:  50    -0.236197560756E+03   -0.17618E-02   -0.17605E-02  3672   0.398E-02 0.112E-04
CGA:  51    -0.236198463806E+03   -0.90305E-03   -0.90292E-03  3672   0.723E-02 0.442E-05
CGA:  52    -0.236199406485E+03   -0.94268E-03   -0.93998E-03  3672   0.331E-02 0.112E-04
CGA:  53    -0.236199884481E+03   -0.47800E-03   -0.47841E-03  3672   0.568E-02 0.275E-04
CGA:  54    -0.236200946880E+03   -0.10624E-02   -0.10625E-02  3672   0.352E-02 0.119E-04
CGA:  55    -0.236201416972E+03   -0.47009E-03   -0.47067E-03  3672   0.392E-02 0.244E-04
CGA:  56    -0.236202185890E+03   -0.76892E-03   -0.76723E-03  3672   0.160E-02 0.372E-04
CGA:  57    -0.236202559638E+03   -0.37375E-03   -0.37275E-03  3672   0.381E-02 0.124E-04
CGA:  58    -0.236203212268E+03   -0.65263E-03   -0.65264E-03  3672   0.167E-02 0.503E-05
CGA:  59    -0.236203645625E+03   -0.43336E-03   -0.43232E-03  3672   0.346E-02 0.696E-05
CGA:  60    -0.236203988479E+03   -0.34285E-03   -0.34137E-03  3672   0.172E-02 0.118E-04
CGA:  61    -0.236204213828E+03   -0.22535E-03   -0.22532E-03  3672   0.133E-02-0.816E-06
CGA:  62    -0.236204412010E+03   -0.19818E-03   -0.19811E-03  3672   0.113E-02-0.619E-05
CGA:  63    -0.236204708236E+03   -0.29623E-03   -0.29665E-03  3672   0.162E-02-0.406E-05
CGA:  64    -0.236204836315E+03   -0.12808E-03   -0.12787E-03  3672   0.797E-03 0.338E-05
CGA:  65    -0.236205095106E+03   -0.25879E-03   -0.25948E-03  3672   0.119E-02-0.358E-05
CGA:  66    -0.236205209467E+03   -0.11436E-03   -0.11430E-03  3672   0.533E-03 0.134E-05
CGA:  67    -0.236205366998E+03   -0.15753E-03   -0.15692E-03  3672   0.958E-03 0.717E-05
CGA:  68    -0.236205453783E+03   -0.86785E-04   -0.87448E-04  3672   0.250E-03 0.814E-05
CGA:  69    -0.236205540375E+03   -0.86592E-04   -0.84331E-04  3672   0.249E-03 0.133E-04
CGA:  70    -0.236205561510E+03   -0.21136E-04   -0.21534E-04  3672   0.175E-03 0.470E-05
SDA:  71    -0.236205600438E+03   -0.38928E-04   -0.38433E-04  3672   0.234E-03 0.112E-04
CGA:  72    -0.236205616424E+03   -0.15986E-04   -0.15930E-04  3672   0.872E-04-0.498E-06
CGA:  73    -0.236205633059E+03   -0.16636E-04   -0.16653E-04  3672   0.185E-03-0.868E-06
CGA:  74    -0.236205655840E+03   -0.22781E-04   -0.22739E-04  3672   0.875E-04-0.920E-06
CGA:  75    -0.236205678276E+03   -0.22435E-04   -0.22400E-04  3672   0.204E-03 0.362E-06
CGA:  76    -0.236205706175E+03   -0.27900E-04   -0.27851E-04  3672   0.124E-03-0.101E-05
CGA:  77    -0.236205731079E+03   -0.24904E-04   -0.25027E-04  3672   0.154E-03-0.386E-05
CGA:  78    -0.236205745344E+03   -0.14265E-04   -0.14114E-04  3672   0.995E-04-0.178E-05
CGA:  79    -0.236205761393E+03   -0.16049E-04   -0.16047E-04  3672   0.658E-04-0.790E-07
CGA:  80    -0.236205768507E+03   -0.71135E-05   -0.71146E-05  3672   0.526E-04 0.595E-07
CGA:  81    -0.236205777708E+03   -0.92011E-05   -0.92112E-05  3672   0.372E-04-0.102E-05
CGA:  82    -0.236205780719E+03   -0.30115E-05   -0.29970E-05  3672   0.189E-04-0.124E-06
CGA:  83    -0.236205785324E+03   -0.46048E-05   -0.45489E-05  3672   0.306E-04 0.719E-06
CGA:  84    -0.236205787500E+03   -0.21757E-05   -0.22269E-05  3672   0.141E-05 0.750E-06
CGA:  85    -0.236205788268E+03   -0.76863E-06    0.17788E-06  3672   0.252E-05 0.377E-05
CGA:  86    -0.236205788414E+03   -0.14565E-06   -0.14669E-06  3672   0.165E-05 0.440E-09
CGA:  87    -0.236205788834E+03   -0.41980E-06   -0.40163E-06  3672   0.667E-05 0.205E-06
CGA:  88    -0.236205789206E+03   -0.37173E-06   -0.39459E-06  3672  -0.164E-05 0.307E-06
CGA:  89    -0.236205788413E+03    0.79300E-06   -0.27290E-06  3672   0.204E-04-0.326E-05
CGA:  90    -0.236205789429E+03   -0.10165E-05   -0.10093E-05  3672   0.918E-06-0.688E-07
CGA:  91    -0.236205789802E+03   -0.37260E-06    0.18949E-06  3672   0.490E-05 0.147E-05
CGA:  92    -0.236205790110E+03   -0.30802E-06   -0.31688E-06  3672   0.458E-05 0.102E-06
CGA:  93    -0.236205791355E+03   -0.12451E-05   -0.11880E-05  3672   0.254E-04 0.514E-06
CGA:  94    -0.236205795559E+03   -0.42040E-05   -0.42059E-05  3672   0.719E-05 0.616E-06
CGA:  95    -0.236205795661E+03   -0.10250E-06   -0.81407E-07  3672  -0.276E-05-0.124E-06
CGA:  96    -0.236205793775E+03    0.18866E-05   -0.13784E-06  3672   0.621E-05-0.111E-04
CGA:  97    -0.236205793950E+03   -0.17528E-06   -0.17273E-06  3672  -0.852E-06-0.280E-07
CGA:  98    -0.236205793061E+03    0.88926E-06    0.13009E-06  3672   0.417E-04-0.183E-06
CGA:  99    -0.236205791565E+03    0.14955E-05   -0.43428E-06  3672  -0.253E-05-0.343E-04
CGA: 100    -0.236205786345E+03    0.52208E-05   -0.92001E-07  3672   0.945E-04-0.192E-04
   1 F= -.23620579E+03 E0= -.23620804E+03  d E =0.676576E-02  mag=   -14.3426
