 vasp.5.4.4.18Apr17-6-g9f103f2a35 (build Dec 20 2018 12:05:58) complex          
  
 executed on             LinuxIFC date 2019.06.20  15:58:24
 running on   32 total cores
 distrk:  each k-point on    8 cores,    4 groups
 distr:  one band on NCORES_PER_BAND=   4 cores,    2 groups


--------------------------------------------------------------------------------------------------------


 INCAR:
 POTCAR:    PAW_PBE Al 04Jan2001                  
 POTCAR:    PAW_PBE Mn 06Sep2000                  

 ----------------------------------------------------------------------------- 
|                                                                             |
|           W    W    AA    RRRRR   N    N  II  N    N   GGGG   !!!           |
|           W    W   A  A   R    R  NN   N  II  NN   N  G    G  !!!           |
|           W    W  A    A  R    R  N N  N  II  N N  N  G       !!!           |
|           W WW W  AAAAAA  RRRRR   N  N N  II  N  N N  G  GGG   !            |
|           WW  WW  A    A  R   R   N   NN  II  N   NN  G    G                |
|           W    W  A    A  R    R  N    N  II  N    N   GGGG   !!!           |
|                                                                             |
|      You have enabled k-point parallelism (KPAR>1).                         |
|      This developmental code was originally  written by Paul Kent at ORNL,  |
|      and carefully double checked in Vienna.                                |
|      GW as well as linear response parallelism added by Martijn Marsman     |
|      and Georg Kresse.                                                      |
|      Carefully verify results versus KPAR=1.                                |
|      Report problems to Paul Kent and Vienna.                               |
|                                                                             |
 ----------------------------------------------------------------------------- 

 POTCAR:    PAW_PBE Al 04Jan2001                  
   VRHFIN =Al: s2p1                                                             
   LEXCH  = PE                                                                  
   EATOM  =    53.5387 eV,    3.9350 Ry                                         
                                                                                
   TITEL  = PAW_PBE Al 04Jan2001                                                
   LULTRA =        F    use ultrasoft PP ?                                      
   IUNSCR =        1    unscreen: 0-lin 1-nonlin 2-no                           
   RPACOR =    1.500    partial core radius                                     
   POMASS =   26.981; ZVAL   =    3.000    mass and valenz                      
   RCORE  =    1.900    outmost cutoff radius                                   
   RWIGS  =    2.650; RWIGS  =    1.402    wigner-seitz radius (au A)           
   ENMAX  =  240.300; ENMIN  =  180.225 eV                                      
   ICORE  =        2    local potential                                         
   LCOR   =        T    correct aug charges                                     
   LPAW   =        T    paw PP                                                  
   EAUG   =  291.052                                                            
   DEXC   =    0.000                                                            
   RMAX   =    1.939    core radius for proj-oper                               
   RAUG   =    1.300    factor for augmentation sphere                          
   RDEP   =    1.966    radius for radial grids                                 
   RDEPT  =    1.856    core radius for aug-charge                              
                                                                                
   Atomic configuration                                                         
    6 entries                                                                   
     n  l   j            E        occ.                                          
     1  0  0.50     -1511.1048   2.0000                                         
     2  0  0.50      -108.1629   2.0000                                         
     2  1  1.50       -69.6402   6.0000                                         
     3  0  0.50        -7.7528   2.0000                                         
     3  1  1.50        -2.7121   1.0000                                         
     3  2  2.50        -2.7212   0.0000                                         
   Description                                                                  
     l       E           TYP  RCUT    TYP  RCUT                                 
     0     -7.7528455     23  1.900                                             
     0     -3.3096929     23  1.900                                             
     1     -2.7120682     23  1.900                                             
     1     13.6058260     23  1.900                                             
     2     -2.7211652      7  1.900                                             
  local pseudopotential read in
  partial core-charges read in
  partial kinetic energy density read in
  atomic valenz-charges read in
  non local Contribution for L=           0  read in
    real space projection operators read in
  non local Contribution for L=           0  read in
    real space projection operators read in
  non local Contribution for L=           1  read in
    real space projection operators read in
  non local Contribution for L=           1  read in
    real space projection operators read in
    PAW grid and wavefunctions read in
 
   number of l-projection  operators is LMAX  =           4
   number of lm-projection operators is LMMAX =           8
 
 POTCAR:    PAW_PBE Mn 06Sep2000                  
   VRHFIN =Mn: d6 s1                                                            
   LEXCH  = PE                                                                  
   EATOM  =   416.7541 eV,   30.6306 Ry                                         
                                                                                
   TITEL  = PAW_PBE Mn 06Sep2000                                                
   LULTRA =        F    use ultrasoft PP ?                                      
   IUNSCR =        1    unscreen: 0-lin 1-nonlin 2-no                           
   RPACOR =    2.000    partial core radius                                     
   POMASS =   54.938; ZVAL   =    7.000    mass and valenz                      
   RCORE  =    2.300    outmost cutoff radius                                   
   RWIGS  =    2.500; RWIGS  =    1.323    wigner-seitz radius (au A)           
   ENMAX  =  269.864; ENMIN  =  202.398 eV                                      
   RCLOC  =    1.725    cutoff for local pot                                    
   LCOR   =        T    correct aug charges                                     
   LPAW   =        T    paw PP                                                  
   EAUG   =  500.711                                                            
   DEXC   =    0.000                                                            
   RMAX   =    2.343    core radius for proj-oper                               
   RAUG   =    1.300    factor for augmentation sphere                          
   RDEP   =    2.338    radius for radial grids                                 
   RDEPT  =    1.911    core radius for aug-charge                              
                                                                                
   Atomic configuration                                                         
    9 entries                                                                   
     n  l   j            E        occ.                                          
     1  0  0.50     -6424.8288   2.0000                                         
     2  0  0.50      -739.1154   2.0000                                         
     2  1  1.50      -625.3949   6.0000                                         
     3  0  0.50       -81.6100   2.0000                                         
     3  1  1.50       -50.4667   6.0000                                         
     3  2  2.50        -3.3745   6.0000                                         
     4  0  0.50        -4.1331   1.0000                                         
     4  1  0.50        -4.0817   0.0000                                         
     4  3  2.50        -1.3606   0.0000                                         
   Description                                                                  
     l       E           TYP  RCUT    TYP  RCUT                                 
     2     -3.3744664     23  2.300                                             
     2     -4.7350490     23  2.300                                             
     0     -4.1331408     23  2.300                                             
     0      7.6656614     23  2.300                                             
     1     -2.7211652     23  2.300                                             
     1     20.4087390     23  2.300                                             
  local pseudopotential read in
  partial core-charges read in
  partial kinetic energy density read in
  atomic valenz-charges read in
  non local Contribution for L=           2  read in
    real space projection operators read in
  non local Contribution for L=           2  read in
    real space projection operators read in
  non local Contribution for L=           0  read in
    real space projection operators read in
  non local Contribution for L=           0  read in
    real space projection operators read in
  non local Contribution for L=           1  read in
    real space projection operators read in
  non local Contribution for L=           1  read in
    real space projection operators read in
    PAW grid and wavefunctions read in
 
   number of l-projection  operators is LMAX  =           6
   number of lm-projection operators is LMMAX =          18
 

 ----------------------------------------------------------------------------- 
|                                                                             |
|  ADVICE TO THIS USER RUNNING 'VASP/VAMP'   (HEAR YOUR MASTER'S VOICE ...):  |
|                                                                             |
|      You have a (more or less) 'large supercell' and for larger cells       |
|      it might be more efficient to use real space projection opertators     |
|      So try LREAL= Auto  in the INCAR   file.                               |
|      Mind:          For very  accurate calculation you might also keep the  |
|      reciprocal projection scheme          (i.e. LREAL=.FALSE.)             |
|                                                                             |
 ----------------------------------------------------------------------------- 

  PAW_PBE Al 04Jan2001                  :
 energy of atom  1       EATOM=  -53.5387
 kinetic energy error for atom=    0.0005 (will be added to EATOM!!)
  PAW_PBE Mn 06Sep2000                  :
 energy of atom  2       EATOM= -416.7541
 kinetic energy error for atom=    0.0080 (will be added to EATOM!!)
 
 
 POSCAR: NewRef: 18, @ ['Mn', array([1.37502469, 
  positions in cartesian coordinates
  velocities in cartesian coordinates
  No initial velocities read in
 exchange correlation table for  LEXCH =        8
   RHO(1)=    0.500       N(1)  =     2000
   RHO(2)=  100.500       N(2)  =     4000
 


--------------------------------------------------------------------------------------------------------


 ion  position               nearest neighbor table
   1  0.000  0.000  0.000-  20 2.61  24 2.61  32 2.61  36 2.61  31 2.61  23 2.61  35 2.61  19 2.61
                             3 2.75   7 2.75   5 2.75  13 2.75
   2  0.000  0.000  0.500-  19 2.61  23 2.61  31 2.61  35 2.61  20 2.61  32 2.61  24 2.61  36 2.61
                             4 2.75   8 2.75   6 2.75  14 2.75
   3  0.000  0.333  0.000-  20 2.61  32 2.61  22 2.61  34 2.61  19 2.61  31 2.61  33 2.61  21 2.61
                             9 2.75   1 2.75   5 2.75  15 2.75
   4  0.000  0.333  0.500-  19 2.61  31 2.61  21 2.61  33 2.61  32 2.61  20 2.61  22 2.61  34 2.61
                            10 2.75   2 2.75   6 2.75  16 2.75
   5  0.000  0.667  0.000-  22 2.61  34 2.61  24 2.61  36 2.61  21 2.61  33 2.61  35 2.61  23 2.61
                             3 2.75  11 2.75   1 2.75  17 2.75
   6  0.000  0.667  0.500-  21 2.61  33 2.61  23 2.61  35 2.61  34 2.61  22 2.61  24 2.61  36 2.61
                             4 2.75  12 2.75   2 2.75  18 2.75
   7  0.333  0.000  0.000-  20 2.61  24 2.61  26 2.61  30 2.61  23 2.61  19 2.61  29 2.61  25 2.61
                            13 2.75   1 2.75   9 2.75  11 2.75
   8  0.333  0.000  0.500-  19 2.61  23 2.61  25 2.61  29 2.61  20 2.61  24 2.61  26 2.61  30 2.61
                            14 2.75   2 2.75  10 2.75  12 2.75
   9  0.333  0.333  0.000-  20 2.61  22 2.61  26 2.61  19 2.61  28 2.61  21 2.61  25 2.61  27 2.61
                             3 2.75   7 2.75  11 2.75  15 2.75
  10  0.333  0.333  0.500-  19 2.61  21 2.61  25 2.61  20 2.61  27 2.61  26 2.61  22 2.61  28 2.61
                             4 2.75   8 2.75  12 2.75  16 2.75
  11  0.333  0.667  0.000-  22 2.61  24 2.61  28 2.61  21 2.61  30 2.61  23 2.61  27 2.61  29 2.61
                            17 2.75   5 2.75   9 2.75   7 2.75
  12  0.333  0.667  0.500-  21 2.61  23 2.61  27 2.61  22 2.61  29 2.61  28 2.61  24 2.61  30 2.61
                            18 2.75   6 2.75  10 2.75   8 2.75
  13  0.667  0.000  0.000-  26 2.61  30 2.61  32 2.61  36 2.61  29 2.61  25 2.61  35 2.61  31 2.61
                             7 2.75  15 2.75   1 2.75  17 2.75
  14  0.667  0.000  0.500-  25 2.61  29 2.61  31 2.61  35 2.61  26 2.61  30 2.61  32 2.61  36 2.61
                             8 2.75  16 2.75   2 2.75  18 2.75
  15  0.667  0.333  0.000-  26 2.61  28 2.61  32 2.61  25 2.61  34 2.61  27 2.61  31 2.61  33 2.61
                            17 2.75   9 2.75  13 2.75   3 2.75
  16  0.667  0.333  0.500-  25 2.61  27 2.61  31 2.61  26 2.61  33 2.61  32 2.61  28 2.61  34 2.61
                            18 2.75  10 2.75  14 2.75   4 2.75
  17  0.667  0.667  0.000-  28 2.61  30 2.61  34 2.61  27 2.61  36 2.61  29 2.61  33 2.61  35 2.61
                            11 2.75  15 2.75  13 2.75   5 2.75
  18  0.667  0.667  0.500-  27 2.61  29 2.61  33 2.61  28 2.61  35 2.61  34 2.61  30 2.61  36 2.61
                            12 2.75  16 2.75  14 2.75   6 2.75
  19  0.167  0.167  0.250-  10 2.61   8 2.61   4 2.61   9 2.61   2 2.61   7 2.61   3 2.61   1 2.61
                            21 2.75  25 2.75  23 2.75  31 2.75
  20  0.167  0.167  0.750-   9 2.61   7 2.61   3 2.61  10 2.61   1 2.61   4 2.61   8 2.61   2 2.61
                            22 2.75  26 2.75  24 2.75  32 2.75
  21  0.167  0.500  0.250-  12 2.61  10 2.61   6 2.61  11 2.61   4 2.61   9 2.61   5 2.61   3 2.61
                            19 2.75  23 2.75  27 2.75  33 2.75
  22  0.167  0.500  0.750-  11 2.61   9 2.61   5 2.61  12 2.61   3 2.61   6 2.61  10 2.61   4 2.61
                            20 2.75  24 2.75  28 2.75  34 2.75
  23  0.167  0.833  0.250-   8 2.61  12 2.61   2 2.61   6 2.61  11 2.61   7 2.61   5 2.61   1 2.61
                            21 2.75  29 2.75  19 2.75  35 2.75
  24  0.167  0.833  0.750-   7 2.61  11 2.61   1 2.61   5 2.61   8 2.61  12 2.61   2 2.61   6 2.61
                            22 2.75  30 2.75  20 2.75  36 2.75
  25  0.500  0.167  0.250-  16 2.61  14 2.61  10 2.61  15 2.61   8 2.61  13 2.61   9 2.61   7 2.61
                            19 2.75  27 2.75  31 2.75  29 2.75
  26  0.500  0.167  0.750-  15 2.61  13 2.61   9 2.61  16 2.61   7 2.61  10 2.61  14 2.61   8 2.61
                            20 2.75  28 2.75  32 2.75  30 2.75
  27  0.500  0.500  0.250-  18 2.61  16 2.61  12 2.61  17 2.61  10 2.61  15 2.61  11 2.61   9 2.61
                            21 2.75  25 2.75  29 2.75  33 2.75
  28  0.500  0.500  0.750-  17 2.61  15 2.61  11 2.61  18 2.61   9 2.61  12 2.61  16 2.61  10 2.61
                            22 2.75  26 2.75  30 2.75  34 2.75
  29  0.500  0.833  0.250-  14 2.61  18 2.61   8 2.61  12 2.61  17 2.61  13 2.61  11 2.61   7 2.61
                            23 2.75  27 2.75  35 2.75  25 2.75
  30  0.500  0.833  0.750-  13 2.61  17 2.61   7 2.61  11 2.61  14 2.61  18 2.61   8 2.61  12 2.61
                            24 2.75  28 2.75  36 2.75  26 2.75
  31  0.833  0.167  0.250-   4 2.61  16 2.61  14 2.61   2 2.61  15 2.61   3 2.61  13 2.61   1 2.61
                            25 2.75  33 2.75  19 2.75  35 2.75
  32  0.833  0.167  0.750-   3 2.61  15 2.61  13 2.61   1 2.61   4 2.61  16 2.61   2 2.61  14 2.61
                            26 2.75  34 2.75  20 2.75  36 2.75
  33  0.833  0.500  0.250-   6 2.61  18 2.61  16 2.61   4 2.61  17 2.61   5 2.61  15 2.61   3 2.61
                            27 2.75  31 2.75  35 2.75  21 2.75
  34  0.833  0.500  0.750-   5 2.61  17 2.61  15 2.61   3 2.61   6 2.61  18 2.61   4 2.61  16 2.61
                            28 2.75  32 2.75  36 2.75  22 2.75
  35  0.833  0.833  0.250-   2 2.61   6 2.61  14 2.61  18 2.61  13 2.61   5 2.61  17 2.61   1 2.61
                            29 2.75  33 2.75  31 2.75  23 2.75
  36  0.833  0.833  0.750-   1 2.61   5 2.61  13 2.61  17 2.61   2 2.61  14 2.61   6 2.61  18 2.61
                            30 2.75  34 2.75  32 2.75  24 2.75
 
  LATTYP: Found a simple tetragonal cell.
 ALAT       =     8.2501481662
 C/A-ratio  =     0.8428059861
  
  Lattice vectors:
  
 A1 = (   8.2501481662,   0.0000000000,   0.0000000000)
 A2 = (   0.0000000000,   8.2501481662,   0.0000000000)
 A3 = (   0.0000000000,   0.0000000000,   6.9532742610)


Analysis of symmetry for initial positions (statically):
=====================================================================
 Subroutine PRICEL returns following result:
 
  LATTYP: Found a simple tetragonal cell.
 ALAT       =     2.7500493888
 C/A-ratio  =     1.2642089792
  
  Lattice vectors:
  
 A1 = (   2.7500493888,   0.0000000000,   0.0000000000)
 A2 = (   0.0000000000,   2.7500493888,   0.0000000000)
 A3 = (   0.0000000000,   0.0000000000,   3.4766371305)
 
  18 primitive cells build up your supercell.
 

 Routine SETGRP: Setting up the symmetry group for a 
 simple tetragonal supercell.


 Subroutine GETGRP returns: Found 16 space group operations
 (whereof 16 operations were pure point group operations)
 out of a pool of 16 trial point group operations.


The static configuration has the point symmetry D_4h.


Analysis of symmetry for dynamics (positions and initial velocities):
=====================================================================
 Subroutine PRICEL returns following result:
 
  LATTYP: Found a simple tetragonal cell.
 ALAT       =     2.7500493888
 C/A-ratio  =     1.2642089792
  
  Lattice vectors:
  
 A1 = (   2.7500493888,   0.0000000000,   0.0000000000)
 A2 = (   0.0000000000,   2.7500493888,   0.0000000000)
 A3 = (   0.0000000000,   0.0000000000,   3.4766371305)
 
  18 primitive cells build up your supercell.
 

 Routine SETGRP: Setting up the symmetry group for a 
 simple tetragonal supercell.


 Subroutine GETGRP returns: Found 16 space group operations
 (whereof 16 operations were pure point group operations)
 out of a pool of 16 trial point group operations.


The dynamic configuration has the point symmetry D_4h.


Analysis of structural, dynamic, and magnetic symmetry:
=====================================================================
 Subroutine PRICEL returns:
 Original cell was already a primitive cell.
 

 Routine SETGRP: Setting up the symmetry group for a 
 simple tetragonal supercell.


 Subroutine GETGRP returns: Found  4 space group operations
 (whereof  1 operations were pure point group operations)
 out of a pool of 16 trial point group operations.


The magnetic configuration has the point symmetry C_1 .
 The point group associated with its full space group is C_2v.


 Subroutine INISYM returns: Found  4 space group operations
 (whereof  1 operations are pure point group operations),
 and found     1 'primitive' translations

 
 
 KPOINTS: automatic KPOINTS                       

Automatic generation of k-mesh.
 generate k-points for:    5    5    6
Space group operators:
 irot       det(A)        alpha          n_x          n_y          n_z        tau_x        tau_y        tau_z
    1     1.000000     0.000001     1.000000     0.000000     0.000000     0.000000     0.000000     0.000000
    2    -1.000000   179.999999     0.000000     0.000000     1.000000     0.000000     0.000000     0.500000
    3    -1.000000   180.000000     0.000000     1.000000     0.000000     0.000000     0.333333     0.000000
    4     1.000000   180.000000     1.000000     0.000000     0.000000     0.000000     0.333333     0.500000
 
 Subroutine IBZKPT returns following result:
 ===========================================
 
 Found     36 irreducible k-points:
 
 Following reciprocal coordinates:
            Coordinates               Weight
  0.000000  0.000000  0.000000      1.000000
  0.200000  0.000000  0.000000      2.000000
  0.400000  0.000000  0.000000      2.000000
  0.000000  0.200000  0.000000      2.000000
  0.200000  0.200000  0.000000      4.000000
  0.400000  0.200000  0.000000      4.000000
  0.000000  0.400000  0.000000      2.000000
  0.200000  0.400000  0.000000      4.000000
  0.400000  0.400000  0.000000      4.000000
  0.000000  0.000000  0.166667      2.000000
  0.200000  0.000000  0.166667      4.000000
  0.400000  0.000000  0.166667      4.000000
  0.000000  0.200000  0.166667      4.000000
  0.200000  0.200000  0.166667      8.000000
  0.400000  0.200000  0.166667      8.000000
  0.000000  0.400000  0.166667      4.000000
  0.200000  0.400000  0.166667      8.000000
  0.400000  0.400000  0.166667      8.000000
  0.000000  0.000000  0.333333      2.000000
  0.200000  0.000000  0.333333      4.000000
  0.400000  0.000000  0.333333      4.000000
  0.000000  0.200000  0.333333      4.000000
  0.200000  0.200000  0.333333      8.000000
  0.400000  0.200000  0.333333      8.000000
  0.000000  0.400000  0.333333      4.000000
  0.200000  0.400000  0.333333      8.000000
  0.400000  0.400000  0.333333      8.000000
  0.000000  0.000000  0.500000      1.000000
  0.200000  0.000000  0.500000      2.000000
  0.400000  0.000000  0.500000      2.000000
  0.000000  0.200000  0.500000      2.000000
  0.200000  0.200000  0.500000      4.000000
  0.400000  0.200000  0.500000      4.000000
  0.000000  0.400000  0.500000      2.000000
  0.200000  0.400000  0.500000      4.000000
  0.400000  0.400000  0.500000      4.000000
 
 Following cartesian coordinates:
            Coordinates               Weight
  0.000000  0.000000  0.000000      1.000000
  0.024242  0.000000  0.000000      2.000000
  0.048484  0.000000  0.000000      2.000000
  0.000000  0.024242  0.000000      2.000000
  0.024242  0.024242  0.000000      4.000000
  0.048484  0.024242  0.000000      4.000000
  0.000000  0.048484  0.000000      2.000000
  0.024242  0.048484  0.000000      4.000000
  0.048484  0.048484  0.000000      4.000000
  0.000000  0.000000  0.023970      2.000000
  0.024242  0.000000  0.023970      4.000000
  0.048484  0.000000  0.023970      4.000000
  0.000000  0.024242  0.023970      4.000000
  0.024242  0.024242  0.023970      8.000000
  0.048484  0.024242  0.023970      8.000000
  0.000000  0.048484  0.023970      4.000000
  0.024242  0.048484  0.023970      8.000000
  0.048484  0.048484  0.023970      8.000000
  0.000000  0.000000  0.047939      2.000000
  0.024242  0.000000  0.047939      4.000000
  0.048484  0.000000  0.047939      4.000000
  0.000000  0.024242  0.047939      4.000000
  0.024242  0.024242  0.047939      8.000000
  0.048484  0.024242  0.047939      8.000000
  0.000000  0.048484  0.047939      4.000000
  0.024242  0.048484  0.047939      8.000000
  0.048484  0.048484  0.047939      8.000000
  0.000000  0.000000  0.071909      1.000000
  0.024242  0.000000  0.071909      2.000000
  0.048484  0.000000  0.071909      2.000000
  0.000000  0.024242  0.071909      2.000000
  0.024242  0.024242  0.071909      4.000000
  0.048484  0.024242  0.071909      4.000000
  0.000000  0.048484  0.071909      2.000000
  0.024242  0.048484  0.071909      4.000000
  0.048484  0.048484  0.071909      4.000000
 


--------------------------------------------------------------------------------------------------------




 Dimension of arrays:
   k-points           NKPTS =     36   k-points in BZ     NKDIM =     36   number of bands    NBANDS=    102
   number of dos      NEDOS =    301   number of ions     NIONS =     36
   non local maximal  LDIM  =      6   non local SUM 2l+1 LMDIM =     18
   total plane-waves  NPLWV = 139968
   max r-space proj   IRMAX =      1   max aug-charges    IRDMAX=  92271
   dimension x,y,z NGX =    54 NGY =   54 NGZ =   48
   dimension x,y,z NGXF=   108 NGYF=  108 NGZF=   96
   support grid    NGXF=   216 NGYF=  216 NGZF=  192
   ions per type =              18  18
   NGX,Y,Z   is equivalent  to a cutoff of  10.88, 10.88, 11.48 a.u.
   NGXF,Y,Z  is equivalent  to a cutoff of  21.76, 21.76, 22.95 a.u.

 SYSTEM =  AlMn_pv                                 
 POSCAR =  NewRef: 18, @ ['Mn', array([1.37502469, 

 Startparameter for this run:
   NWRITE =      2    write-flag & timer
   PREC   = accura    normal or accurate (medium, high low for compatibility)
   ISTART =      0    job   : 0-new  1-cont  2-samecut
   ICHARG =      2    charge: 1-file 2-atom 10-const
   ISPIN  =      2    spin polarized calculation?
   LNONCOLLINEAR =      F non collinear calculations
   LSORBIT =      F    spin-orbit coupling
   INIWAV =      1    electr: 0-lowe 1-rand  2-diag
   LASPH  =      F    aspherical Exc in radial PAW
   METAGGA=      F    non-selfconsistent MetaGGA calc.

 Electronic Relaxation 1
   ENCUT  =  404.8 eV  29.75 Ry    5.45 a.u.  13.53 13.53 11.41*2*pi/ulx,y,z
   ENINI  =  404.8     initial cutoff
   ENAUG  =  500.7 eV  augmentation charge cutoff
   NELM   =    100;   NELMIN=  4; NELMDL= -8     # of ELM steps 
   EDIFF  = 0.1E-06   stopping-criterion for ELM
   LREAL  =      F    real-space projection
   NLSPLINE    = F    spline interpolate recip. space projectors
   LCOMPAT=      F    compatible to vasp.4.4
   GGA_COMPAT  = T    GGA compatible to vasp.4.4-vasp.4.6
   LMAXPAW     = -100 max onsite density
   LMAXMIX     =    2 max onsite mixed and CHGCAR
   VOSKOWN=      0    Vosko Wilk Nusair interpolation
   ROPT   =    0.00000   0.00000
 Ionic relaxation
   EDIFFG = 0.1E-05   stopping-criterion for IOM
   NSW    =      0    number of steps for IOM
   NBLOCK =      1;   KBLOCK =      1    inner block; outer block 
   IBRION =     -1    ionic relax: 0-MD 1-quasi-New 2-CG
   NFREE  =      0    steps in history (QN), initial steepest desc. (CG)
   ISIF   =      2    stress and relaxation
   IWAVPR =     10    prediction:  0-non 1-charg 2-wave 3-comb
   ISYM   =      2    0-nonsym 1-usesym 2-fastsym
   LCORR  =      T    Harris-Foulkes like correction to forces

   POTIM  = 0.2000    time-step for ionic-motion
   TEIN   =    0.0    initial temperature
   TEBEG  =    0.0;   TEEND  =   0.0 temperature during run
   SMASS  =  -3.00    Nose mass-parameter (am)
   estimated Nose-frequenzy (Omega)   =  0.10E-29 period in steps =****** mass=  -0.156E-26a.u.
   SCALEE = 1.0000    scale energy and forces
   NPACO  =    256;   APACO  = 16.0  distance and # of slots for P.C.
   PSTRESS=    0.0 pullay stress

  Mass of Ions in am
   POMASS =  26.98 54.94
  Ionic Valenz
   ZVAL   =   3.00  7.00
  Atomic Wigner-Seitz radii
   RWIGS  =  -1.00 -1.00
  virtual crystal weights 
   VCA    =   1.00  1.00
   NELECT =     180.0000    total number of electrons
   NUPDOWN=      -1.0000    fix difference up-down

 DOS related values:
   EMIN   =  10.00;   EMAX   =-10.00  energy-range for DOS
   EFERMI =   0.00
   ISMEAR =     1;   SIGMA  =   0.20  broadening in eV -4-tet -1-fermi 0-gaus

 Electronic relaxation 2 (details)
   IALGO  =     58    algorithm
   LDIAG  =      T    sub-space diagonalisation (order eigenvalues)
   LSUBROT=      F    optimize rotation matrix (better conditioning)
   TURBO    =      0    0=normal 1=particle mesh
   IRESTART =      0    0=no restart 2=restart with 2 vectors
   NREBOOT  =      0    no. of reboots
   NMIN     =      0    reboot dimension
   EREF     =   0.00    reference energy to select bands
   IMIX   =      4    mixing-type and parameters
     AMIX     =   0.40;   BMIX     =  1.00
     AMIX_MAG =   1.60;   BMIX_MAG =  1.00
     AMIN     =   0.10
     WC   =   100.;   INIMIX=   1;  MIXPRE=   1;  MAXMIX= -45

 Intra band minimization:
   WEIMIN = 0.0000     energy-eigenvalue tresh-hold
   EBREAK =  0.25E-09  absolut break condition
   DEPER  =   0.30     relativ break condition  

   TIME   =   0.40     timestep for ELM

  volume/ion in A,a.u.               =      13.15        88.72
  Fermi-wavevector in a.u.,A,eV,Ry     =   1.186118  2.241439 19.141722  1.406877
  Thomas-Fermi vector in A             =   2.322298
 
 Write flags
   LWAVE        =      F    write WAVECAR
   LDOWNSAMPLE  =      F    k-point downsampling of WAVECAR
   LCHARG       =      F    write CHGCAR
   LVTOT        =      F    write LOCPOT, total local potential
   LVHAR        =      F    write LOCPOT, Hartree potential only
   LELF         =      F    write electronic localiz. function (ELF)
   LORBIT       =     10    0 simple, 1 ext, 2 COOP (PROOUT), +10 PAW based schemes


 Dipole corrections
   LMONO  =      F    monopole corrections only (constant potential shift)
   LDIPOL =      F    correct potential (dipole corrections)
   IDIPOL =      0    1-x, 2-y, 3-z, 4-all directions 
   EPSILON=  1.0000000 bulk dielectric constant

 Exchange correlation treatment:
   GGA     =    --    GGA type
   LEXCH   =     8    internal setting for exchange type
   VOSKOWN=      0    Vosko Wilk Nusair interpolation
   LHFCALC =     F    Hartree Fock is set to
   LHFONE  =     F    Hartree Fock one center treatment
   AEXX    =    0.0000 exact exchange contribution

 Linear response parameters
   LEPSILON=     F    determine dielectric tensor
   LRPA    =     F    only Hartree local field effects (RPA)
   LNABLA  =     F    use nabla operator in PAW spheres
   LVEL    =     F    velocity operator in full k-point grid
   LINTERFAST=   F  fast interpolation
   KINTER  =     0    interpolate to denser k-point grid
   CSHIFT  =0.1000    complex shift for real part using Kramers Kronig
   OMEGAMAX=  -1.0    maximum frequency
   DEG_THRESHOLD= 0.2000000E-02 threshold for treating states as degnerate
   RTIME   =   -0.100 relaxation time in fs
  (WPLASMAI=    0.000 imaginary part of plasma frequency in eV, 0.658/RTIME)
   DFIELD  = 0.0000000 0.0000000 0.0000000 field for delta impulse in time
 
 Orbital magnetization related:
   ORBITALMAG=     F  switch on orbital magnetization
   LCHIMAG   =     F  perturbation theory with respect to B field
   DQ        =  0.001000  dq finite difference perturbation B field
   LLRAUG    =     F  two centre corrections for induced B field



--------------------------------------------------------------------------------------------------------


 Static calculation
 charge density and potential will be updated during run
 spin polarized calculation
 Conjugate gradient for all bands (Freysoldt, et al. PRB 79, 241103 (2009))
 preconditioned conjugated gradient                                        
 perform sub-space diagonalisation
    before iterative eigenvector-optimisation
 modified Broyden-mixing scheme, WC =      100.0
 initial mixing is a Kerker type mixing with AMIX =  0.4000 and BMIX =      1.0000
 Hartree-type preconditioning will be used
 using additional bands           12
 reciprocal scheme for non local part
 use partial core corrections
 no Harris-corrections to forces 
 use gradient corrections 
 use of overlap-Matrix (Vanderbilt PP)
 Methfessel and Paxton  Order N= 1 SIGMA  =   0.20


--------------------------------------------------------------------------------------------------------


  energy-cutoff  :      404.80
  volume of cell :      473.27
      direct lattice vectors                 reciprocal lattice vectors
     8.250148166  0.000000000  0.000000000     0.121209944  0.000000000  0.000000000
     0.000000000  8.250148166  0.000000000     0.000000000  0.121209944  0.000000000
     0.000000000  0.000000000  6.953274261     0.000000000  0.000000000  0.143817137

  length of vectors
     8.250148166  8.250148166  6.953274261     0.121209944  0.121209944  0.143817137


 
 k-points in units of 2pi/SCALE and weight: automatic KPOINTS                       
   0.00000000  0.00000000  0.00000000       0.007
   0.02424199  0.00000000  0.00000000       0.013
   0.04848398  0.00000000  0.00000000       0.013
   0.00000000  0.02424199  0.00000000       0.013
   0.02424199  0.02424199  0.00000000       0.027
   0.04848398  0.02424199  0.00000000       0.027
   0.00000000  0.04848398  0.00000000       0.013
   0.02424199  0.04848398  0.00000000       0.027
   0.04848398  0.04848398  0.00000000       0.027
   0.00000000  0.00000000  0.02396952       0.013
   0.02424199  0.00000000  0.02396952       0.027
   0.04848398  0.00000000  0.02396952       0.027
   0.00000000  0.02424199  0.02396952       0.027
   0.02424199  0.02424199  0.02396952       0.053
   0.04848398  0.02424199  0.02396952       0.053
   0.00000000  0.04848398  0.02396952       0.027
   0.02424199  0.04848398  0.02396952       0.053
   0.04848398  0.04848398  0.02396952       0.053
   0.00000000  0.00000000  0.04793905       0.013
   0.02424199  0.00000000  0.04793905       0.027
   0.04848398  0.00000000  0.04793905       0.027
   0.00000000  0.02424199  0.04793905       0.027
   0.02424199  0.02424199  0.04793905       0.053
   0.04848398  0.02424199  0.04793905       0.053
   0.00000000  0.04848398  0.04793905       0.027
   0.02424199  0.04848398  0.04793905       0.053
   0.04848398  0.04848398  0.04793905       0.053
   0.00000000  0.00000000  0.07190857       0.007
   0.02424199  0.00000000  0.07190857       0.013
   0.04848398  0.00000000  0.07190857       0.013
   0.00000000  0.02424199  0.07190857       0.013
   0.02424199  0.02424199  0.07190857       0.027
   0.04848398  0.02424199  0.07190857       0.027
   0.00000000  0.04848398  0.07190857       0.013
   0.02424199  0.04848398  0.07190857       0.027
   0.04848398  0.04848398  0.07190857       0.027
 
 k-points in reciprocal lattice and weights: automatic KPOINTS                       
   0.00000000  0.00000000  0.00000000       0.007
   0.20000000  0.00000000  0.00000000       0.013
   0.40000000  0.00000000  0.00000000       0.013
   0.00000000  0.20000000  0.00000000       0.013
   0.20000000  0.20000000  0.00000000       0.027
   0.40000000  0.20000000  0.00000000       0.027
   0.00000000  0.40000000  0.00000000       0.013
   0.20000000  0.40000000  0.00000000       0.027
   0.40000000  0.40000000  0.00000000       0.027
   0.00000000  0.00000000  0.16666667       0.013
   0.20000000  0.00000000  0.16666667       0.027
   0.40000000  0.00000000  0.16666667       0.027
   0.00000000  0.20000000  0.16666667       0.027
   0.20000000  0.20000000  0.16666667       0.053
   0.40000000  0.20000000  0.16666667       0.053
   0.00000000  0.40000000  0.16666667       0.027
   0.20000000  0.40000000  0.16666667       0.053
   0.40000000  0.40000000  0.16666667       0.053
   0.00000000  0.00000000  0.33333333       0.013
   0.20000000  0.00000000  0.33333333       0.027
   0.40000000  0.00000000  0.33333333       0.027
   0.00000000  0.20000000  0.33333333       0.027
   0.20000000  0.20000000  0.33333333       0.053
   0.40000000  0.20000000  0.33333333       0.053
   0.00000000  0.40000000  0.33333333       0.027
   0.20000000  0.40000000  0.33333333       0.053
   0.40000000  0.40000000  0.33333333       0.053
   0.00000000  0.00000000  0.50000000       0.007
   0.20000000  0.00000000  0.50000000       0.013
   0.40000000  0.00000000  0.50000000       0.013
   0.00000000  0.20000000  0.50000000       0.013
   0.20000000  0.20000000  0.50000000       0.027
   0.40000000  0.20000000  0.50000000       0.027
   0.00000000  0.40000000  0.50000000       0.013
   0.20000000  0.40000000  0.50000000       0.027
   0.40000000  0.40000000  0.50000000       0.027
 
 position of ions in fractional coordinates (direct lattice) 
   0.00000000  0.00000000  0.00000000
   0.00000000  0.00000000  0.50000000
   0.00000000  0.33333333  0.00000000
   0.00000000  0.33333333  0.50000000
   0.00000000  0.66666667  0.00000000
   0.00000000  0.66666667  0.50000000
   0.33333333  0.00000000  0.00000000
   0.33333333  0.00000000  0.50000000
   0.33333333  0.33333333  0.00000000
   0.33333333  0.33333333  0.50000000
   0.33333333  0.66666667  0.00000000
   0.33333333  0.66666667  0.50000000
   0.66666667  0.00000000  0.00000000
   0.66666667  0.00000000  0.50000000
   0.66666667  0.33333333  0.00000000
   0.66666667  0.33333333  0.50000000
   0.66666667  0.66666667  0.00000000
   0.66666667  0.66666667  0.50000000
   0.16666667  0.16666667  0.25000000
   0.16666667  0.16666667  0.75000000
   0.16666667  0.50000000  0.25000000
   0.16666667  0.50000000  0.75000000
   0.16666667  0.83333333  0.25000000
   0.16666667  0.83333333  0.75000000
   0.50000000  0.16666667  0.25000000
   0.50000000  0.16666667  0.75000000
   0.50000000  0.50000000  0.25000000
   0.50000000  0.50000000  0.75000000
   0.50000000  0.83333333  0.25000000
   0.50000000  0.83333333  0.75000000
   0.83333333  0.16666667  0.25000000
   0.83333333  0.16666667  0.75000000
   0.83333333  0.50000000  0.25000000
   0.83333333  0.50000000  0.75000000
   0.83333333  0.83333333  0.25000000
   0.83333333  0.83333333  0.75000000
 
 position of ions in cartesian coordinates  (Angst):
   0.00000000  0.00000000  0.00000000
   0.00000000  0.00000000  3.47663713
   0.00000000  2.75004939  0.00000000
   0.00000000  2.75004939  3.47663713
   0.00000000  5.50009878  0.00000000
   0.00000000  5.50009878  3.47663713
   2.75004939  0.00000000  0.00000000
   2.75004939  0.00000000  3.47663713
   2.75004939  2.75004939  0.00000000
   2.75004939  2.75004939  3.47663713
   2.75004939  5.50009878  0.00000000
   2.75004939  5.50009878  3.47663713
   5.50009878  0.00000000  0.00000000
   5.50009878  0.00000000  3.47663713
   5.50009878  2.75004939  0.00000000
   5.50009878  2.75004939  3.47663713
   5.50009878  5.50009878  0.00000000
   5.50009878  5.50009878  3.47663713
   1.37502469  1.37502469  1.73831857
   1.37502469  1.37502469  5.21495570
   1.37502469  4.12507408  1.73831857
   1.37502469  4.12507408  5.21495570
   1.37502469  6.87512347  1.73831857
   1.37502469  6.87512347  5.21495570
   4.12507408  1.37502469  1.73831857
   4.12507408  1.37502469  5.21495570
   4.12507408  4.12507408  1.73831857
   4.12507408  4.12507408  5.21495570
   4.12507408  6.87512347  1.73831857
   4.12507408  6.87512347  5.21495570
   6.87512347  1.37502469  1.73831857
   6.87512347  1.37502469  5.21495570
   6.87512347  4.12507408  1.73831857
   6.87512347  4.12507408  5.21495570
   6.87512347  6.87512347  1.73831857
   6.87512347  6.87512347  5.21495570
 


--------------------------------------------------------------------------------------------------------


 k-point  1 :   0.0000 0.0000 0.0000  plane waves:    8799
 k-point  2 :   0.2000 0.0000 0.0000  plane waves:    8753
 k-point  3 :   0.4000 0.0000 0.0000  plane waves:    8757
 k-point  4 :   0.0000 0.2000 0.0000  plane waves:    8753
 k-point  5 :   0.2000 0.2000 0.0000  plane waves:    8767
 k-point  6 :   0.4000 0.2000 0.0000  plane waves:    8761
 k-point  7 :   0.0000 0.4000 0.0000  plane waves:    8757
 k-point  8 :   0.2000 0.4000 0.0000  plane waves:    8761
 k-point  9 :   0.4000 0.4000 0.0000  plane waves:    8731
 k-point 10 :   0.0000 0.0000 0.1667  plane waves:    8763
 k-point 11 :   0.2000 0.0000 0.1667  plane waves:    8771
 k-point 12 :   0.4000 0.0000 0.1667  plane waves:    8747
 k-point 13 :   0.0000 0.2000 0.1667  plane waves:    8771
 k-point 14 :   0.2000 0.2000 0.1667  plane waves:    8764
 k-point 15 :   0.4000 0.2000 0.1667  plane waves:    8768
 k-point 16 :   0.0000 0.4000 0.1667  plane waves:    8747
 k-point 17 :   0.2000 0.4000 0.1667  plane waves:    8768
 k-point 18 :   0.4000 0.4000 0.1667  plane waves:    8740
 k-point 19 :   0.0000 0.0000 0.3333  plane waves:    8743
 k-point 20 :   0.2000 0.0000 0.3333  plane waves:    8736
 k-point 21 :   0.4000 0.0000 0.3333  plane waves:    8753
 k-point 22 :   0.0000 0.2000 0.3333  plane waves:    8736
 k-point 23 :   0.2000 0.2000 0.3333  plane waves:    8753
 k-point 24 :   0.4000 0.2000 0.3333  plane waves:    8743
 k-point 25 :   0.0000 0.4000 0.3333  plane waves:    8753
 k-point 26 :   0.2000 0.4000 0.3333  plane waves:    8743
 k-point 27 :   0.4000 0.4000 0.3333  plane waves:    8755
 k-point 28 :   0.0000 0.0000 0.5000  plane waves:    8742
 k-point 29 :   0.2000 0.0000 0.5000  plane waves:    8756
 k-point 30 :   0.4000 0.0000 0.5000  plane waves:    8744
 k-point 31 :   0.0000 0.2000 0.5000  plane waves:    8756
 k-point 32 :   0.2000 0.2000 0.5000  plane waves:    8762
 k-point 33 :   0.4000 0.2000 0.5000  plane waves:    8732
 k-point 34 :   0.0000 0.4000 0.5000  plane waves:    8744
 k-point 35 :   0.2000 0.4000 0.5000  plane waves:    8732
 k-point 36 :   0.4000 0.4000 0.5000  plane waves:    8736

 maximum and minimum number of plane-waves per node :      2208     2165

 maximum number of plane-waves:      8799
 maximum index in each direction: 
   IXMAX=   13   IYMAX=   13   IZMAX=   11
   IXMIN=  -13   IYMIN=  -13   IZMIN=  -11


 parallel 3D FFT for wavefunctions:
    minimum data exchange during FFTs selected (reduces bandwidth)
 parallel 3D FFT for charge:
    minimum data exchange during FFTs selected (reduces bandwidth)


 total amount of memory used by VASP MPI-rank0   501577. kBytes
=======================================================================

   base      :      30000. kBytes
   nonl-proj :      24164. kBytes
   fftplans  :      21726. kBytes
   grid      :      14732. kBytes
   one-center:        279. kBytes
   wavefun   :     410676. kBytes
 
     INWAV:  cpu time    0.0000: real time    0.0000
 Broyden mixing: mesh for mixing (old mesh)
   NGX = 27   NGY = 27   NGZ = 23
  (NGX  =108   NGY  =108   NGZ  = 96)
  gives a total of  16767 points

 initial charge density was supplied:
 charge density of overlapping atoms calculated
 number of electron     180.0000000 magnetization     -18.0000000
 keeping initial charge density in first step


--------------------------------------------------------------------------------------------------------


 Maximum index for augmentation-charges        11261 (set IRDMAX)


--------------------------------------------------------------------------------------------------------


 First call to EWALD:  gamma=   0.227
 Maximum number of real-space cells 3x 3x 3
 Maximum number of reciprocal cells 3x 3x 3

    FEWALD:  cpu time    0.0073: real time    0.0073


--------------------------------------- Iteration      1(   1)  ---------------------------------------


    POTLOK:  cpu time    0.2513: real time    0.2519
    SETDIJ:  cpu time    0.3410: real time    0.3420
    TRIAL :  cpu time   12.2541: real time   12.2913
    CORREC:  cpu time    0.0485: real time    0.0489
    --------------------------------------------
      LOOP:  cpu time   13.0321: real time   13.0797

 eigenvalue-minimisations  : 14688
 total energy-change (2. order) : 0.1381541E+04  (-0.5761199E+04)
 number of electron     180.0000000 magnetization     -18.0000000
 augmentation part      180.0000000 magnetization     -18.0000000

 Free energy of the ion-electron system (eV)
  ---------------------------------------------------
  alpha Z        PSCENC =       532.25742704
  Ewald energy   TEWEN  =     -8601.05107233
  -Hartree energ DENC   =     -1903.73857242
  -exchange      EXHF   =         0.00000000
  -V(xc)+E(xc)   XCENC  =      -664.47818756
  PAW double counting   =      8494.55058411    -7650.81563588
  entropy T*S    EENTRO =        -0.00302699
  eigenvalues    EBANDS =      2709.70303578
  atomic energy  EATOM  =      8465.11600846
  ---------------------------------------------------
  free energy    TOTEN  =      1381.54056022 eV

  energy without entropy =     1381.54358720  energy(sigma->0) =     1381.54156921


--------------------------------------------------------------------------------------------------------




--------------------------------------- Iteration      1(   2)  ---------------------------------------


    TRIAL :  cpu time   11.6022: real time   11.7349
    CORREC:  cpu time    0.0055: real time    0.0057
    --------------------------------------------
      LOOP:  cpu time   11.6157: real time   11.7501

 eigenvalue-minimisations  : 14688
 total energy-change (2. order) :-0.1407772E+04  (-0.1391530E+04)
 number of electron     180.0000000 magnetization     -18.0000000
 augmentation part      180.0000000 magnetization     -18.0000000

 Free energy of the ion-electron system (eV)
  ---------------------------------------------------
  alpha Z        PSCENC =       532.25742704
  Ewald energy   TEWEN  =     -8601.05107233
  -Hartree energ DENC   =     -1903.73857242
  -exchange      EXHF   =         0.00000000
  -V(xc)+E(xc)   XCENC  =      -664.47818756
  PAW double counting   =      8494.55058411    -7650.81563588
  entropy T*S    EENTRO =        -0.00050360
  eigenvalues    EBANDS =      1301.92895971
  atomic energy  EATOM  =      8465.11600846
  ---------------------------------------------------
  free energy    TOTEN  =       -26.23099248 eV

  energy without entropy =      -26.23048887  energy(sigma->0) =      -26.23082461


--------------------------------------------------------------------------------------------------------




--------------------------------------- Iteration      1(   3)  ---------------------------------------


    TRIAL :  cpu time   16.3922: real time   16.5877
    CORREC:  cpu time    0.0061: real time    0.0069
    --------------------------------------------
      LOOP:  cpu time   16.3991: real time   16.5978

 eigenvalue-minimisations  : 23208
 total energy-change (2. order) :-0.2033965E+03  (-0.1910210E+03)
 number of electron     180.0000000 magnetization     -18.0000000
 augmentation part      180.0000000 magnetization     -18.0000000

 Free energy of the ion-electron system (eV)
  ---------------------------------------------------
  alpha Z        PSCENC =       532.25742704
  Ewald energy   TEWEN  =     -8601.05107233
  -Hartree energ DENC   =     -1903.73857242
  -exchange      EXHF   =         0.00000000
  -V(xc)+E(xc)   XCENC  =      -664.47818756
  PAW double counting   =      8494.55058411    -7650.81563588
  entropy T*S    EENTRO =        -0.00265910
  eigenvalues    EBANDS =      1098.53463725
  atomic energy  EATOM  =      8465.11600846
  ---------------------------------------------------
  free energy    TOTEN  =      -229.62747044 eV

  energy without entropy =     -229.62481133  energy(sigma->0) =     -229.62658407


--------------------------------------------------------------------------------------------------------




--------------------------------------- Iteration      1(   4)  ---------------------------------------


    TRIAL :  cpu time   17.6872: real time   17.8546
    CORREC:  cpu time    0.0067: real time    0.0068
    --------------------------------------------
      LOOP:  cpu time   17.6957: real time   17.8646

 eigenvalue-minimisations  : 24384
 total energy-change (2. order) :-0.3362583E+02  (-0.3118624E+02)
 number of electron     180.0000000 magnetization     -18.0000000
 augmentation part      180.0000000 magnetization     -18.0000000

 Free energy of the ion-electron system (eV)
  ---------------------------------------------------
  alpha Z        PSCENC =       532.25742704
  Ewald energy   TEWEN  =     -8601.05107233
  -Hartree energ DENC   =     -1903.73857242
  -exchange      EXHF   =         0.00000000
  -V(xc)+E(xc)   XCENC  =      -664.47818756
  PAW double counting   =      8494.55058411    -7650.81563588
  entropy T*S    EENTRO =         0.00307690
  eigenvalues    EBANDS =      1064.90307577
  atomic energy  EATOM  =      8465.11600846
  ---------------------------------------------------
  free energy    TOTEN  =      -263.25329591 eV

  energy without entropy =     -263.25637281  energy(sigma->0) =     -263.25432154


--------------------------------------------------------------------------------------------------------




--------------------------------------- Iteration      1(   5)  ---------------------------------------


    TRIAL :  cpu time   18.3665: real time   18.4789
    CORREC:  cpu time    0.0067: real time    0.0069
    --------------------------------------------
      LOOP:  cpu time   18.3766: real time   18.4893

 eigenvalue-minimisations  : 25136
 total energy-change (2. order) :-0.4862167E+01  (-0.4584014E+01)
 number of electron     180.0000000 magnetization     -18.0000000
 augmentation part      180.0000000 magnetization     -18.0000000

 Free energy of the ion-electron system (eV)
  ---------------------------------------------------
  alpha Z        PSCENC =       532.25742704
  Ewald energy   TEWEN  =     -8601.05107233
  -Hartree energ DENC   =     -1903.73857242
  -exchange      EXHF   =         0.00000000
  -V(xc)+E(xc)   XCENC  =      -664.47818756
  PAW double counting   =      8494.55058411    -7650.81563588
  entropy T*S    EENTRO =         0.01065304
  eigenvalues    EBANDS =      1060.03333277
  atomic energy  EATOM  =      8465.11600846
  ---------------------------------------------------
  free energy    TOTEN  =      -268.11546277 eV

  energy without entropy =     -268.12611581  energy(sigma->0) =     -268.11901379


--------------------------------------------------------------------------------------------------------




--------------------------------------- Iteration      1(   6)  ---------------------------------------


    TRIAL :  cpu time   17.3662: real time   17.5777
    CORREC:  cpu time    0.0066: real time    0.0075
    --------------------------------------------
      LOOP:  cpu time   17.3736: real time   17.5883

 eigenvalue-minimisations  : 24960
 total energy-change (2. order) :-0.8216495E+00  (-0.7763225E+00)
 number of electron     180.0000000 magnetization     -18.0000000
 augmentation part      180.0000000 magnetization     -18.0000000

 Free energy of the ion-electron system (eV)
  ---------------------------------------------------
  alpha Z        PSCENC =       532.25742704
  Ewald energy   TEWEN  =     -8601.05107233
  -Hartree energ DENC   =     -1903.73857242
  -exchange      EXHF   =         0.00000000
  -V(xc)+E(xc)   XCENC  =      -664.47818756
  PAW double counting   =      8494.55058411    -7650.81563588
  entropy T*S    EENTRO =         0.01432019
  eigenvalues    EBANDS =      1059.20801613
  atomic energy  EATOM  =      8465.11600846
  ---------------------------------------------------
  free energy    TOTEN  =      -268.93711226 eV

  energy without entropy =     -268.95143245  energy(sigma->0) =     -268.94188566


--------------------------------------------------------------------------------------------------------




--------------------------------------- Iteration      1(   7)  ---------------------------------------


    TRIAL :  cpu time   18.4144: real time   18.5736
    CORREC:  cpu time    0.0071: real time    0.0072
    --------------------------------------------
      LOOP:  cpu time   18.4223: real time   18.5837

 eigenvalue-minimisations  : 25472
 total energy-change (2. order) :-0.2088747E+00  (-0.1981752E+00)
 number of electron     180.0000000 magnetization     -18.0000000
 augmentation part      180.0000000 magnetization     -18.0000000

 Free energy of the ion-electron system (eV)
  ---------------------------------------------------
  alpha Z        PSCENC =       532.25742704
  Ewald energy   TEWEN  =     -8601.05107233
  -Hartree energ DENC   =     -1903.73857242
  -exchange      EXHF   =         0.00000000
  -V(xc)+E(xc)   XCENC  =      -664.47818756
  PAW double counting   =      8494.55058411    -7650.81563588
  entropy T*S    EENTRO =         0.01565192
  eigenvalues    EBANDS =      1058.99780970
  atomic energy  EATOM  =      8465.11600846
  ---------------------------------------------------
  free energy    TOTEN  =      -269.14598696 eV

  energy without entropy =     -269.16163888  energy(sigma->0) =     -269.15120427


--------------------------------------------------------------------------------------------------------




--------------------------------------- Iteration      1(   8)  ---------------------------------------


    TRIAL :  cpu time   17.1896: real time   17.2440
    CORREC:  cpu time    0.0071: real time    0.0072
    CHARGE:  cpu time    0.8259: real time    0.8264
    --------------------------------------------
      LOOP:  cpu time   18.0257: real time   18.0809

 eigenvalue-minimisations  : 24480
 total energy-change (2. order) :-0.6997873E-01  (-0.6684314E-01)
 number of electron     179.9999997 magnetization     -12.4729073
 augmentation part       42.6427543 magnetization      -7.3286525

 Free energy of the ion-electron system (eV)
  ---------------------------------------------------
  alpha Z        PSCENC =       532.25742704
  Ewald energy   TEWEN  =     -8601.05107233
  -Hartree energ DENC   =     -1903.73857242
  -exchange      EXHF   =         0.00000000
  -V(xc)+E(xc)   XCENC  =      -664.47818756
  PAW double counting   =      8494.55058411    -7650.81563588
  entropy T*S    EENTRO =         0.01642145
  eigenvalues    EBANDS =      1058.92706144
  atomic energy  EATOM  =      8465.11600846
  ---------------------------------------------------
  free energy    TOTEN  =      -269.21596569 eV

  energy without entropy =     -269.23238714  energy(sigma->0) =     -269.22143951


--------------------------------------------------------------------------------------------------------




--------------------------------------- Iteration      1(   9)  ---------------------------------------


    POTLOK:  cpu time    0.2506: real time    0.2506
    SETDIJ:  cpu time    0.3228: real time    0.3229
    TRIAL :  cpu time    5.6093: real time    5.7153
    CORREC:  cpu time    2.4805: real time    2.4902
    CHARGE:  cpu time    0.8408: real time    0.8408
    --------------------------------------------
      LOOP:  cpu time   10.5624: real time   10.6784

 eigenvalue-minimisations  :     0
 total energy-change (2. order) : 0.2068707E+03  (-0.1459256E+03)
 number of electron     179.9999997 magnetization     -13.0460503
 augmentation part       54.2227741 magnetization      -8.4900899

 Free energy of the ion-electron system (eV)
  ---------------------------------------------------
  alpha Z        PSCENC =       532.25742704
  Ewald energy   TEWEN  =     -8601.05107233
  -Hartree energ DENC   =      -845.69508143
  -exchange      EXHF   =         0.00000000
  -V(xc)+E(xc)   XCENC  =      -694.69100594
  PAW double counting   =     12765.00304079   -11818.37205829
  entropy T*S    EENTRO =        -0.00042787
  eigenvalues    EBANDS =       135.07102990
  atomic energy  EATOM  =      8465.11600846
  ---------------------------------------------------
  free energy    TOTEN  =       -62.34529035 eV

  energy without entropy =      -62.34486248  energy(sigma->0) =      -62.34514773


--------------------------------------------------------------------------------------------------------




--------------------------------------- Iteration      1(  10)  ---------------------------------------


    POTLOK:  cpu time    0.2479: real time    0.2479
    SETDIJ:  cpu time    0.3210: real time    0.3211
    TRIAL :  cpu time    5.6370: real time    5.7499
    CORREC:  cpu time    2.5487: real time    2.5920
    CHARGE:  cpu time    0.8244: real time    0.8883
    --------------------------------------------
      LOOP:  cpu time    9.6071: real time    9.8280

 eigenvalue-minimisations  :     0
 total energy-change (2. order) :-0.1446711E+03  (-0.1031976E+02)
 number of electron     179.9999996 magnetization     -13.0983398
 augmentation part       57.6905938 magnetization      -8.8785120

 Free energy of the ion-electron system (eV)
  ---------------------------------------------------
  alpha Z        PSCENC =       532.25742704
  Ewald energy   TEWEN  =     -8601.05107233
  -Hartree energ DENC   =     -1363.76464215
  -exchange      EXHF   =         0.00000000
  -V(xc)+E(xc)   XCENC  =      -677.05756898
  PAW double counting   =     13591.76485630   -12758.55800181
  entropy T*S    EENTRO =        -0.00274909
  eigenvalues    EBANDS =       604.27704123
  atomic energy  EATOM  =      8465.11600846
  ---------------------------------------------------
  free energy    TOTEN  =      -207.01638011 eV

  energy without entropy =     -207.01363102  energy(sigma->0) =     -207.01546375


--------------------------------------------------------------------------------------------------------




--------------------------------------- Iteration      1(  11)  ---------------------------------------


    POTLOK:  cpu time    0.2483: real time    0.2483
    SETDIJ:  cpu time    0.3214: real time    0.3214
    TRIAL :  cpu time    5.6904: real time    5.7595
    CORREC:  cpu time    2.4652: real time    2.4670
    CHARGE:  cpu time    0.8219: real time    0.8220
    --------------------------------------------
      LOOP:  cpu time    9.5763: real time    9.6490

 eigenvalue-minimisations  :     0
 total energy-change (2. order) :-0.1031743E+02  (-0.9957885E+01)
 number of electron     179.9999996 magnetization     -13.0881931
 augmentation part       59.1524223 magnetization      -9.0687893

 Free energy of the ion-electron system (eV)
  ---------------------------------------------------
  alpha Z        PSCENC =       532.25742704
  Ewald energy   TEWEN  =     -8601.05107233
  -Hartree energ DENC   =     -1559.39453044
  -exchange      EXHF   =         0.00000000
  -V(xc)+E(xc)   XCENC  =      -670.11536311
  PAW double counting   =     14416.81954940   -13619.67751231
  entropy T*S    EENTRO =        -0.01056667
  eigenvalues    EBANDS =       818.71442930
  atomic energy  EATOM  =      8465.11600846
  ---------------------------------------------------
  free energy    TOTEN  =      -217.33381307 eV

  energy without entropy =     -217.32324640  energy(sigma->0) =     -217.33029084


--------------------------------------------------------------------------------------------------------




--------------------------------------- Iteration      1(  12)  ---------------------------------------


    POTLOK:  cpu time    0.2477: real time    0.2481
    SETDIJ:  cpu time    0.3403: real time    0.3412
    TRIAL :  cpu time    6.4001: real time    6.4375
    CORREC:  cpu time    2.4864: real time    2.5304
    CHARGE:  cpu time    0.8256: real time    0.8340
    --------------------------------------------
      LOOP:  cpu time   10.3033: real time   10.3966

 eigenvalue-minimisations  :     0
 total energy-change (2. order) :-0.9958831E+01  (-0.5437001E+01)
 number of electron     179.9999996 magnetization     -12.9454755
 augmentation part       58.1607724 magnetization      -9.0093319

 Free energy of the ion-electron system (eV)
  ---------------------------------------------------
  alpha Z        PSCENC =       532.25742704
  Ewald energy   TEWEN  =     -8601.05107233
  -Hartree energ DENC   =     -1706.99607442
  -exchange      EXHF   =         0.00000000
  -V(xc)+E(xc)   XCENC  =      -665.54931587
  PAW double counting   =     14473.78596145   -13676.56280560
  entropy T*S    EENTRO =        -0.01239454
  eigenvalues    EBANDS =       951.71779429
  atomic energy  EATOM  =      8465.11600846
  ---------------------------------------------------
  free energy    TOTEN  =      -227.29264365 eV

  energy without entropy =     -227.28024911  energy(sigma->0) =     -227.28851213


--------------------------------------------------------------------------------------------------------




--------------------------------------- Iteration      1(  13)  ---------------------------------------


    POTLOK:  cpu time    0.2480: real time    0.2480
    SETDIJ:  cpu time    0.3322: real time    0.3322
    TRIAL :  cpu time    5.6607: real time    5.7067
    CORREC:  cpu time    2.4637: real time    2.4650
    CHARGE:  cpu time    0.8787: real time    0.8795
    --------------------------------------------
      LOOP:  cpu time    9.6013: real time    9.6504

 eigenvalue-minimisations  :     0
 total energy-change (2. order) :-0.5289202E+01  (-0.9750962E+00)
 number of electron     179.9999996 magnetization     -12.8275308
 augmentation part       57.3123529 magnetization      -8.8566506

 Free energy of the ion-electron system (eV)
  ---------------------------------------------------
  alpha Z        PSCENC =       532.25742704
  Ewald energy   TEWEN  =     -8601.05107233
  -Hartree energ DENC   =     -1694.89631880
  -exchange      EXHF   =         0.00000000
  -V(xc)+E(xc)   XCENC  =      -666.45858102
  PAW double counting   =     14244.18186656   -13423.58254522
  entropy T*S    EENTRO =        -0.01314434
  eigenvalues    EBANDS =       911.86376440
  atomic energy  EATOM  =      8465.11600846
  ---------------------------------------------------
  free energy    TOTEN  =      -232.58184546 eV

  energy without entropy =     -232.56870112  energy(sigma->0) =     -232.57746401


--------------------------------------------------------------------------------------------------------




--------------------------------------- Iteration      1(  14)  ---------------------------------------


    POTLOK:  cpu time    0.2483: real time    0.2482
    SETDIJ:  cpu time    0.3562: real time    0.3563
    TRIAL :  cpu time    5.6065: real time    5.6240
    CORREC:  cpu time    2.5229: real time    2.5245
    CHARGE:  cpu time    0.8213: real time    0.8214
    --------------------------------------------
      LOOP:  cpu time    9.5582: real time    9.5780

 eigenvalue-minimisations  :     0
 total energy-change (2. order) :-0.9662465E+00  (-0.9430515E+00)
 number of electron     179.9999996 magnetization     -12.7201441
 augmentation part       57.2316433 magnetization      -8.6523040

 Free energy of the ion-electron system (eV)
  ---------------------------------------------------
  alpha Z        PSCENC =       532.25742704
  Ewald energy   TEWEN  =     -8601.05107233
  -Hartree energ DENC   =     -1651.97806838
  -exchange      EXHF   =         0.00000000
  -V(xc)+E(xc)   XCENC  =      -668.15426225
  PAW double counting   =     13922.99210350   -13089.56366104
  entropy T*S    EENTRO =        -0.01351076
  eigenvalues    EBANDS =       856.84657742
  atomic energy  EATOM  =      8465.11600846
  ---------------------------------------------------
  free energy    TOTEN  =      -233.54809193 eV

  energy without entropy =     -233.53458117  energy(sigma->0) =     -233.54358834


--------------------------------------------------------------------------------------------------------




--------------------------------------- Iteration      1(  15)  ---------------------------------------


    POTLOK:  cpu time    0.2479: real time    0.2479
    SETDIJ:  cpu time    1.0588: real time    1.0590
    TRIAL :  cpu time    5.6033: real time    5.7053
    CORREC:  cpu time    2.5032: real time    2.5122
    CHARGE:  cpu time    0.8217: real time    0.8217
    --------------------------------------------
      LOOP:  cpu time   10.2389: real time   10.3512

 eigenvalue-minimisations  :     0
 total energy-change (2. order) :-0.9429715E+00  (-0.4887225E+00)
 number of electron     179.9999996 magnetization     -12.5585555
 augmentation part       57.8144210 magnetization      -8.5684002

 Free energy of the ion-electron system (eV)
  ---------------------------------------------------
  alpha Z        PSCENC =       532.25742704
  Ewald energy   TEWEN  =     -8601.05107233
  -Hartree energ DENC   =     -1637.79606140
  -exchange      EXHF   =         0.00000000
  -V(xc)+E(xc)   XCENC  =      -668.82350113
  PAW double counting   =     13318.58102682   -12480.22093128
  entropy T*S    EENTRO =        -0.01378851
  eigenvalues    EBANDS =       837.45955120
  atomic energy  EATOM  =      8465.11600846
  ---------------------------------------------------
  free energy    TOTEN  =      -234.49106338 eV

  energy without entropy =     -234.47727487  energy(sigma->0) =     -234.48646721


--------------------------------------------------------------------------------------------------------




--------------------------------------- Iteration      1(  16)  ---------------------------------------


    POTLOK:  cpu time    0.2479: real time    0.2480
    SETDIJ:  cpu time    0.3551: real time    0.3552
    TRIAL :  cpu time    5.5966: real time    5.7107
    CORREC:  cpu time    2.4640: real time    2.4655
    CHARGE:  cpu time    0.8717: real time    0.9459
    --------------------------------------------
      LOOP:  cpu time    9.5394: real time    9.7294

 eigenvalue-minimisations  :     0
 total energy-change (2. order) :-0.4898781E+00  (-0.2136149E+00)
 number of electron     179.9999996 magnetization     -12.4771207
 augmentation part       58.2088388 magnetization      -8.5795116

 Free energy of the ion-electron system (eV)
  ---------------------------------------------------
  alpha Z        PSCENC =       532.25742704
  Ewald energy   TEWEN  =     -8601.05107233
  -Hartree energ DENC   =     -1660.93821681
  -exchange      EXHF   =         0.00000000
  -V(xc)+E(xc)   XCENC  =      -668.02688705
  PAW double counting   =     13061.86397619   -12228.10762422
  entropy T*S    EENTRO =        -0.01246318
  eigenvalues    EBANDS =       863.91923576
  atomic energy  EATOM  =      8465.11600846
  ---------------------------------------------------
  free energy    TOTEN  =      -234.98094147 eV

  energy without entropy =     -234.96847830  energy(sigma->0) =     -234.97678708


--------------------------------------------------------------------------------------------------------




--------------------------------------- Iteration      1(  17)  ---------------------------------------


    POTLOK:  cpu time    0.2502: real time    0.2502
    SETDIJ:  cpu time    0.3224: real time    0.3224
    TRIAL :  cpu time    5.7019: real time    5.7208
    CORREC:  cpu time    2.3839: real time    2.4661
    CHARGE:  cpu time    0.8196: real time    0.8196
    --------------------------------------------
      LOOP:  cpu time    9.4793: real time    9.5818

 eigenvalue-minimisations  :     0
 total energy-change (2. order) :-0.2136762E+00  (-0.2369723E+00)
 number of electron     179.9999996 magnetization     -12.4251518
 augmentation part       58.2290353 magnetization      -8.6103090

 Free energy of the ion-electron system (eV)
  ---------------------------------------------------
  alpha Z        PSCENC =       532.25742704
  Ewald energy   TEWEN  =     -8601.05107233
  -Hartree energ DENC   =     -1677.86369813
  -exchange      EXHF   =         0.00000000
  -V(xc)+E(xc)   XCENC  =      -667.29372814
  PAW double counting   =     12992.63504810   -12163.02411988
  entropy T*S    EENTRO =        -0.01137947
  eigenvalues    EBANDS =       884.04198044
  atomic energy  EATOM  =      8465.11600846
  ---------------------------------------------------
  free energy    TOTEN  =      -235.19461762 eV

  energy without entropy =     -235.18323816  energy(sigma->0) =     -235.19082447


--------------------------------------------------------------------------------------------------------




--------------------------------------- Iteration      1(  18)  ---------------------------------------


    POTLOK:  cpu time    0.2482: real time    0.2482
    SETDIJ:  cpu time    0.3220: real time    0.3220
    TRIAL :  cpu time    6.3482: real time    6.3842
    CORREC:  cpu time    2.4835: real time    2.4995
    CHARGE:  cpu time    0.8852: real time    0.8853
    --------------------------------------------
      LOOP:  cpu time   10.3100: real time   10.3636

 eigenvalue-minimisations  :     0
 total energy-change (2. order) :-0.2369326E+00  (-0.1213828E+00)
 number of electron     179.9999996 magnetization     -12.3615034
 augmentation part       57.9633796 magnetization      -8.6061117

 Free energy of the ion-electron system (eV)
  ---------------------------------------------------
  alpha Z        PSCENC =       532.25742704
  Ewald energy   TEWEN  =     -8601.05107233
  -Hartree energ DENC   =     -1675.20566704
  -exchange      EXHF   =         0.00000000
  -V(xc)+E(xc)   XCENC  =      -667.16913462
  PAW double counting   =     12932.53049509   -12103.26436779
  entropy T*S    EENTRO =        -0.00932851
  eigenvalues    EBANDS =       881.36614044
  atomic energy  EATOM  =      8465.11600846
  ---------------------------------------------------
  free energy    TOTEN  =      -235.43155022 eV

  energy without entropy =     -235.42222171  energy(sigma->0) =     -235.42844072


--------------------------------------------------------------------------------------------------------




--------------------------------------- Iteration      1(  19)  ---------------------------------------


    POTLOK:  cpu time    0.2510: real time    0.2606
    SETDIJ:  cpu time    0.3218: real time    0.3218
    TRIAL :  cpu time    5.7146: real time    5.7255
    CORREC:  cpu time    2.4231: real time    2.4871
    CHARGE:  cpu time    0.8210: real time    0.8210
    --------------------------------------------
      LOOP:  cpu time    9.5366: real time    9.6220

 eigenvalue-minimisations  :     0
 total energy-change (2. order) :-0.1207334E+00  (-0.1031735E+00)
 number of electron     179.9999996 magnetization     -12.3642085
 augmentation part       57.7241821 magnetization      -8.6287858

 Free energy of the ion-electron system (eV)
  ---------------------------------------------------
  alpha Z        PSCENC =       532.25742704
  Ewald energy   TEWEN  =     -8601.05107233
  -Hartree energ DENC   =     -1660.49598616
  -exchange      EXHF   =         0.00000000
  -V(xc)+E(xc)   XCENC  =      -667.56375026
  PAW double counting   =     12900.73030413   -12068.71202642
  entropy T*S    EENTRO =        -0.00791714
  eigenvalues    EBANDS =       864.17614039
  atomic energy  EATOM  =      8465.11600846
  ---------------------------------------------------
  free energy    TOTEN  =      -235.55228367 eV

  energy without entropy =     -235.54436653  energy(sigma->0) =     -235.54964463


--------------------------------------------------------------------------------------------------------




--------------------------------------- Iteration      1(  20)  ---------------------------------------


    POTLOK:  cpu time    0.2481: real time    0.2481
    SETDIJ:  cpu time    0.3402: real time    0.3401
    TRIAL :  cpu time    5.6148: real time    5.6439
    CORREC:  cpu time    2.5004: real time    2.5012
    CHARGE:  cpu time    0.8222: real time    0.8222
    --------------------------------------------
      LOOP:  cpu time    9.5459: real time    9.5770

 eigenvalue-minimisations  :     0
 total energy-change (2. order) :-0.1031451E+00  (-0.1165228E+00)
 number of electron     179.9999996 magnetization     -12.3445120
 augmentation part       57.7900746 magnetization      -8.6678615

 Free energy of the ion-electron system (eV)
  ---------------------------------------------------
  alpha Z        PSCENC =       532.25742704
  Ewald energy   TEWEN  =     -8601.05107233
  -Hartree energ DENC   =     -1650.51586264
  -exchange      EXHF   =         0.00000000
  -V(xc)+E(xc)   XCENC  =      -667.80913755
  PAW double counting   =     12894.81649624   -12060.55057756
  entropy T*S    EENTRO =        -0.00428267
  eigenvalues    EBANDS =       852.08920672
  atomic energy  EATOM  =      8465.11600846
  ---------------------------------------------------
  free energy    TOTEN  =      -235.65542876 eV

  energy without entropy =     -235.65114609  energy(sigma->0) =     -235.65400120


--------------------------------------------------------------------------------------------------------




--------------------------------------- Iteration      1(  21)  ---------------------------------------


    POTLOK:  cpu time    0.2482: real time    0.2482
    SETDIJ:  cpu time    0.3407: real time    0.3407
    TRIAL :  cpu time    6.4077: real time    6.4949
    CORREC:  cpu time    2.4946: real time    2.5177
    CHARGE:  cpu time    0.8193: real time    0.8326
    --------------------------------------------
      LOOP:  cpu time   10.3131: real time   10.4379

 eigenvalue-minimisations  :     0
 total energy-change (2. order) :-0.1164828E+00  (-0.4816054E-01)
 number of electron     179.9999996 magnetization     -12.3616694
 augmentation part       57.9371454 magnetization      -8.6993513

 Free energy of the ion-electron system (eV)
  ---------------------------------------------------
  alpha Z        PSCENC =       532.25742704
  Ewald energy   TEWEN  =     -8601.05107233
  -Hartree energ DENC   =     -1658.18773434
  -exchange      EXHF   =         0.00000000
  -V(xc)+E(xc)   XCENC  =      -667.41743790
  PAW double counting   =     12933.14945271   -12100.14376339
  entropy T*S    EENTRO =        -0.00325906
  eigenvalues    EBANDS =       860.50949086
  atomic energy  EATOM  =      8465.11600846
  ---------------------------------------------------
  free energy    TOTEN  =      -235.77191155 eV

  energy without entropy =     -235.76865249  energy(sigma->0) =     -235.77082520


--------------------------------------------------------------------------------------------------------




--------------------------------------- Iteration      1(  22)  ---------------------------------------


    POTLOK:  cpu time    0.2481: real time    0.2481
    SETDIJ:  cpu time    0.3431: real time    0.3431
    TRIAL :  cpu time    5.6483: real time    5.7562
    CORREC:  cpu time    2.4863: real time    2.4874
    CHARGE:  cpu time    0.8212: real time    0.8212
    --------------------------------------------
      LOOP:  cpu time    9.5526: real time    9.6618

 eigenvalue-minimisations  :     0
 total energy-change (2. order) :-0.4832942E-01  (-0.4917460E-01)
 number of electron     179.9999996 magnetization     -12.3707137
 augmentation part       58.0234033 magnetization      -8.7114442

 Free energy of the ion-electron system (eV)
  ---------------------------------------------------
  alpha Z        PSCENC =       532.25742704
  Ewald energy   TEWEN  =     -8601.05107233
  -Hartree energ DENC   =     -1667.54883952
  -exchange      EXHF   =         0.00000000
  -V(xc)+E(xc)   XCENC  =      -667.03469426
  PAW double counting   =     12959.43976735   -12128.21982929
  entropy T*S    EENTRO =        -0.00085125
  eigenvalues    EBANDS =       871.22425065
  atomic energy  EATOM  =      8465.11600846
  ---------------------------------------------------
  free energy    TOTEN  =      -235.82024097 eV

  energy without entropy =     -235.81938972  energy(sigma->0) =     -235.81995722


--------------------------------------------------------------------------------------------------------




--------------------------------------- Iteration      1(  23)  ---------------------------------------


    POTLOK:  cpu time    0.2487: real time    0.2487
    SETDIJ:  cpu time    0.3179: real time    0.3242
    TRIAL :  cpu time    5.6528: real time    5.7452
    CORREC:  cpu time    2.4393: real time    2.4961
    CHARGE:  cpu time    0.8450: real time    0.8461
    --------------------------------------------
      LOOP:  cpu time    9.5445: real time    9.7031

 eigenvalue-minimisations  :     0
 total energy-change (2. order) :-0.4917470E-01  (-0.5630018E-01)
 number of electron     179.9999996 magnetization     -12.4504732
 augmentation part       57.9264065 magnetization      -8.7431277

 Free energy of the ion-electron system (eV)
  ---------------------------------------------------
  alpha Z        PSCENC =       532.25742704
  Ewald energy   TEWEN  =     -8601.05107233
  -Hartree energ DENC   =     -1673.07000357
  -exchange      EXHF   =         0.00000000
  -V(xc)+E(xc)   XCENC  =      -666.77886183
  PAW double counting   =     12971.07820375   -12140.74147944
  entropy T*S    EENTRO =         0.00147118
  eigenvalues    EBANDS =       877.32121349
  atomic energy  EATOM  =      8465.11600846
  ---------------------------------------------------
  free energy    TOTEN  =      -235.86941567 eV

  energy without entropy =     -235.87088685  energy(sigma->0) =     -235.86990607


--------------------------------------------------------------------------------------------------------




--------------------------------------- Iteration      1(  24)  ---------------------------------------


    POTLOK:  cpu time    0.2475: real time    0.2475
    SETDIJ:  cpu time    0.3199: real time    0.3199
    TRIAL :  cpu time    6.3510: real time    6.4422
    CORREC:  cpu time    2.4878: real time    2.5204
    CHARGE:  cpu time    0.8220: real time    0.8220
    --------------------------------------------
      LOOP:  cpu time   10.2307: real time   10.3563

 eigenvalue-minimisations  :     0
 total energy-change (2. order) :-0.5634138E-01  (-0.4731909E-01)
 number of electron     179.9999996 magnetization     -12.5556273
 augmentation part       57.8359575 magnetization      -8.8143227

 Free energy of the ion-electron system (eV)
  ---------------------------------------------------
  alpha Z        PSCENC =       532.25742704
  Ewald energy   TEWEN  =     -8601.05107233
  -Hartree energ DENC   =     -1668.15133652
  -exchange      EXHF   =         0.00000000
  -V(xc)+E(xc)   XCENC  =      -666.85612272
  PAW double counting   =     12961.56354981   -12129.85855126
  entropy T*S    EENTRO =         0.00322884
  eigenvalues    EBANDS =       871.05286931
  atomic energy  EATOM  =      8465.11600846
  ---------------------------------------------------
  free energy    TOTEN  =      -235.92575705 eV

  energy without entropy =     -235.92898589  energy(sigma->0) =     -235.92683333


--------------------------------------------------------------------------------------------------------




--------------------------------------- Iteration      1(  25)  ---------------------------------------


    POTLOK:  cpu time    0.2479: real time    0.2479
    SETDIJ:  cpu time    0.3202: real time    0.3202
    TRIAL :  cpu time    5.6900: real time    5.7057
    CORREC:  cpu time    2.4602: real time    2.4907
    CHARGE:  cpu time    0.8441: real time    0.8441
    --------------------------------------------
      LOOP:  cpu time    9.6016: real time    9.6492

 eigenvalue-minimisations  :     0
 total energy-change (2. order) :-0.4732611E-01  (-0.3797972E-01)
 number of electron     179.9999996 magnetization     -12.6763280
 augmentation part       57.8963821 magnetization      -8.9274053

 Free energy of the ion-electron system (eV)
  ---------------------------------------------------
  alpha Z        PSCENC =       532.25742704
  Ewald energy   TEWEN  =     -8601.05107233
  -Hartree energ DENC   =     -1662.69337125
  -exchange      EXHF   =         0.00000000
  -V(xc)+E(xc)   XCENC  =      -666.91702686
  PAW double counting   =     12951.22725954   -12118.16149249
  entropy T*S    EENTRO =         0.00402830
[...]
|                         13       (-0.02678)                                 |
|                         14       (-0.02729)                                 |
|                         15       (-0.02167)                                 |
|                         16       (-0.02439)                                 |
|                         17       (-0.02912)                                 |
|                         18       (-0.03262)                                 |
|                         19       (-0.03402)                                 |
|                         20       (-0.03251)                                 |
|                         21       (-0.03154)                                 |
|                         22       (-0.03366)                                 |
|                         23       (-0.01834)                                 |
|                         24       (-0.02932)                                 |
|                         25       (-0.03337)                                 |
|                         26       (-0.03090)                                 |
|                         27       (-0.02780)                                 |
|                         28       (-0.03195)                                 |
|                         30       (-0.02422)                                 |
|                         31       (-0.02356)                                 |
|                         32       (-0.01410)                                 |
|                                                                             |
|      The total occupancy of band no.   102 is  -0.02228 electrons ...       |
|                                                                             |
 ----------------------------------------------------------------------------- 

 


 total charge     
 
# of ion       s       p       d       tot
------------------------------------------
    1        0.405   0.430   0.000   0.835
    2        0.405   0.430   0.000   0.835
    3        0.406   0.430   0.000   0.836
    4        0.405   0.430   0.000   0.835
    5        0.405   0.432   0.000   0.836
    6        0.405   0.431   0.000   0.836
    7        0.405   0.428   0.000   0.833
    8        0.405   0.428   0.000   0.833
    9        0.405   0.428   0.000   0.833
   10        0.405   0.428   0.000   0.833
   11        0.405   0.425   0.000   0.830
   12        0.405   0.425   0.000   0.830
   13        0.405   0.427   0.000   0.832
   14        0.405   0.427   0.000   0.832
   15        0.404   0.427   0.000   0.831
   16        0.405   0.427   0.000   0.832
   17        0.405   0.427   0.000   0.831
   18        0.404   0.426   0.000   0.831
   19        0.331   0.355   5.134   5.820
   20        0.329   0.360   5.129   5.819
   21        0.334   0.356   5.118   5.809
   22        0.334   0.354   5.134   5.821
   23        0.335   0.356   5.118   5.810
   24        0.334   0.353   5.131   5.818
   25        0.331   0.354   5.144   5.829
   26        0.331   0.348   5.150   5.829
   27        0.333   0.350   5.142   5.825
   28        0.335   0.354   5.131   5.821
   29        0.333   0.351   5.137   5.821
   30        0.336   0.354   5.128   5.818
   31        0.331   0.353   5.135   5.819
   32        0.329   0.352   5.143   5.825
   33        0.330   0.355   5.145   5.830
   34        0.333   0.356   5.126   5.815
   35        0.330   0.355   5.134   5.819
   36        0.333   0.356   5.121   5.810
--------------------------------------------------
tot         13.273  14.078  92.400 119.751
 


 magnetization (x)
 
# of ion       s       p       d       tot
------------------------------------------
    1        0.001   0.000   0.000   0.002
    2        0.001   0.001   0.000   0.002
    3        0.002   0.002   0.000   0.004
    4        0.001  -0.000   0.000   0.001
    5        0.002   0.001   0.000   0.003
    6        0.001   0.000   0.000   0.002
    7        0.010   0.018   0.000   0.029
    8        0.010   0.018   0.000   0.029
    9        0.010   0.018   0.000   0.029
   10        0.010   0.018   0.000   0.029
   11        0.010   0.016   0.000   0.026
   12        0.010   0.017   0.000   0.026
   13        0.010   0.017   0.000   0.027
   14        0.010   0.018   0.000   0.028
   15        0.010   0.018   0.000   0.027
   16        0.010   0.018   0.000   0.027
   17        0.010   0.015   0.000   0.025
   18        0.010   0.016   0.000   0.026
   19        0.025   0.036   2.161   2.222
   20       -0.023  -0.040  -2.108  -2.171
   21       -0.021  -0.026  -2.490  -2.537
   22        0.019   0.023   2.325   2.367
   23       -0.020  -0.025  -2.498  -2.544
   24        0.019   0.023   2.318   2.360
   25       -0.019  -0.026  -1.981  -2.027
   26       -0.012  -0.003  -2.260  -2.276
   27       -0.015  -0.008  -2.327  -2.351
   28       -0.021  -0.025  -2.357  -2.403
   29       -0.015  -0.008  -2.329  -2.352
   30       -0.020  -0.025  -2.364  -2.409
   31        0.010  -0.002   2.344   2.352
   32       -0.008   0.000  -2.196  -2.205
   33        0.016   0.018   2.121   2.155
   34       -0.018  -0.022  -2.368  -2.407
   35        0.016   0.018   2.123   2.156
   36       -0.018  -0.022  -2.368  -2.408
--------------------------------------------------
tot          0.022   0.097 -14.253 -14.135
 
    FORLOC:  cpu time    0.0277: real time    0.0277
    FORNL :  cpu time    8.9626: real time    9.0935
    STRESS:  cpu time   13.7438: real time   14.6598
    FORCOR:  cpu time    0.2716: real time    0.2716
    OFIELD:  cpu time    0.0014: real time    0.0014

  FORCE on cell =-STRESS in cart. coord.  units (eV):
  Direction    XX          YY          ZZ          XY          YZ          ZX
  --------------------------------------------------------------------------------------
  Alpha Z   532.25743   532.25743   532.25743
  Ewald   -2702.40749 -2702.40749 -3196.26924    -0.00000    -0.00000    -0.00000
  Hartree   722.27317   723.23059   221.56771     0.00000    -0.00000    -0.00000
  E(xc)    -760.06042  -760.42881  -759.33152    -0.00000    -0.00000    -0.00000
  Local     246.84327   243.89392  1270.44306    -0.00000    -0.00000     0.00000
  n-local  -111.38792  -112.07197  -120.83159    -0.00858    -0.30985    -0.06633
  augment   521.55040   522.70225   512.28870     0.00000     0.00001     0.00001
  Kinetic  1557.55778  1559.13521  1537.83962    -0.29730     1.27640     0.57387
  Fock        0.00000     0.00000     0.00000     0.00000     0.00000     0.00000
  -------------------------------------------------------------------------------------
  Total       6.62622     6.31111    -2.03584     0.00000     0.00000     0.00000
  in kB      22.43179    21.36504    -6.89193     0.00000     0.00000     0.00000
  external pressure =       12.30 kB  Pullay stress =        0.00 kB


 VOLUME and BASIS-vectors are now :
 -----------------------------------------------------------------------------
  energy-cutoff  :      404.80
  volume of cell :      473.27
      direct lattice vectors                 reciprocal lattice vectors
     8.250148166  0.000000000  0.000000000     0.121209944  0.000000000  0.000000000
     0.000000000  8.250148166  0.000000000     0.000000000  0.121209944  0.000000000
     0.000000000  0.000000000  6.953274261     0.000000000  0.000000000  0.143817137

  length of vectors
     8.250148166  8.250148166  6.953274261     0.121209944  0.121209944  0.143817137


 FORCES acting on ions:
    Electron-Ion                     Ewald-Force                    Non-Local-Force
 -----------------------------------------------------------------------------------------------
   -.286E+00 0.376E+00 -.233E-02   -.239E-08 -.239E-08 0.411E-08   0.951E-01 -.104E+00 0.870E-02
   -.286E+00 0.376E+00 0.233E-02   -.239E-08 -.239E-08 0.411E-08   0.951E-01 -.104E+00 -.870E-02
   -.286E+00 -.376E+00 -.233E-02   -.239E-08 -.802E-09 0.411E-08   0.951E-01 0.104E+00 0.870E-02
   -.286E+00 -.376E+00 0.233E-02   -.239E-08 -.802E-09 0.411E-08   0.951E-01 0.104E+00 -.870E-02
   -.600E-01 -.326E-08 0.160E-01   -.239E-08 0.631E-08 0.411E-08   0.509E-01 0.000E+00 -.769E-03
   -.600E-01 -.326E-08 -.160E-01   -.239E-08 0.631E-08 0.411E-08   0.509E-01 0.813E-19 0.769E-03
   0.178E+00 0.122E+00 -.731E-02   -.802E-09 -.239E-08 0.411E-08   0.228E-01 -.270E-01 0.151E-01
   0.178E+00 0.122E+00 0.731E-02   -.802E-09 -.239E-08 0.411E-08   0.228E-01 -.270E-01 -.151E-01
   0.178E+00 -.122E+00 -.731E-02   -.802E-09 -.802E-09 0.411E-08   0.228E-01 0.270E-01 0.151E-01
   0.178E+00 -.122E+00 0.731E-02   -.802E-09 -.802E-09 0.411E-08   0.228E-01 0.270E-01 -.151E-01
   -.133E+00 -.329E-08 0.216E-01   -.802E-09 0.631E-08 0.411E-08   0.902E-01 0.000E+00 0.835E-01
   -.133E+00 -.329E-08 -.216E-01   -.802E-09 0.631E-08 0.411E-08   0.902E-01 0.000E+00 -.835E-01
   0.664E-01 0.271E-01 0.225E-01   0.631E-08 -.239E-08 0.411E-08   -.863E-01 0.671E-03 -.863E-01
   0.664E-01 0.271E-01 -.225E-01   0.631E-08 -.239E-08 0.411E-08   -.863E-01 0.671E-03 0.863E-01
   0.664E-01 -.271E-01 0.225E-01   0.631E-08 -.802E-09 0.411E-08   -.863E-01 -.671E-03 -.863E-01
   0.664E-01 -.271E-01 -.225E-01   0.631E-08 -.802E-09 0.411E-08   -.863E-01 -.671E-03 0.863E-01
   0.170E+00 -.330E-08 -.218E-01   0.631E-08 0.631E-08 0.411E-08   -.109E+00 0.217E-18 -.123E-01
   0.170E+00 -.330E-08 0.218E-01   0.631E-08 0.631E-08 0.411E-08   -.109E+00 0.217E-18 0.123E-01
   -.676E+00 0.479E-08 -.179E-08   -.169E-07 -.169E-07 -.411E-08   0.411E+00 0.000E+00 0.000E+00
   -.552E-01 0.479E-08 -.235E-08   -.169E-07 -.169E-07 -.411E-08   -.559E-02 0.000E+00 0.000E+00
   0.427E+00 0.587E+00 -.199E-08   -.169E-07 0.802E-09 -.411E-08   -.834E-01 -.321E+00 0.000E+00
   0.277E-01 0.612E+00 -.424E-08   -.169E-07 0.802E-09 -.411E-08   0.102E+00 -.366E+00 0.000E+00
   0.427E+00 -.587E+00 -.199E-08   -.169E-07 0.130E-07 -.411E-08   -.834E-01 0.321E+00 0.000E+00
   0.277E-01 -.612E+00 -.424E-08   -.169E-07 0.130E-07 -.411E-08   0.102E+00 0.366E+00 0.000E+00
   0.214E+00 0.480E-08 -.167E-08   0.802E-09 -.169E-07 -.411E-08   -.181E+00 0.000E+00 0.000E+00
   -.358E-01 0.479E-08 -.230E-08   0.802E-09 -.169E-07 -.411E-08   0.306E-01 0.000E+00 0.000E+00
   -.303E+00 -.557E-02 -.189E-08   0.802E-09 0.802E-09 -.411E-08   0.918E-01 0.422E-01 0.000E+00
   0.482E+00 -.949E-01 -.422E-08   0.802E-09 0.802E-09 -.411E-08   -.257E+00 0.738E-01 0.000E+00
   -.303E+00 0.557E-02 -.189E-08   0.802E-09 0.130E-07 -.411E-08   0.918E-01 -.422E-01 0.000E+00
   0.482E+00 0.949E-01 -.422E-08   0.802E-09 0.130E-07 -.411E-08   -.257E+00 -.738E-01 0.000E+00
   0.431E+00 0.488E-08 -.179E-08   0.130E-07 -.169E-07 -.411E-08   -.391E+00 0.000E+00 0.000E+00
   0.157E+00 0.485E-08 -.237E-08   0.130E-07 -.169E-07 -.411E-08   -.257E+00 0.000E+00 0.000E+00
   -.151E+00 0.289E-01 -.191E-08   0.130E-07 0.802E-09 -.411E-08   0.111E+00 -.101E+00 0.000E+00
   -.431E+00 -.290E-01 -.434E-08   0.130E-07 0.802E-09 -.411E-08   0.176E+00 -.608E-02 0.000E+00
   -.151E+00 -.289E-01 -.190E-08   0.130E-07 0.130E-07 -.411E-08   0.111E+00 0.101E+00 0.000E+00
   -.431E+00 0.290E-01 -.434E-08   0.130E-07 0.130E-07 -.411E-08   0.176E+00 0.608E-02 0.000E+00
 -----------------------------------------------------------------------------------------------
   -.794E-01 -.271E-07 -.855E-07   -.197E-14 0.275E-13 0.265E-14   0.794E-01 -.520E-16 0.000E+00
 
 
 POSITION                                       TOTAL-FORCE (eV/Angst)
 -----------------------------------------------------------------------------------
      0.00000      0.00000      0.00000        -0.198367      0.281545      0.006071
      0.00000      0.00000      3.47664        -0.198367      0.281545     -0.006071
      0.00000      2.75005      0.00000        -0.198367     -0.281545      0.006071
      0.00000      2.75005      3.47664        -0.198367     -0.281545     -0.006071
      0.00000      5.50010      0.00000        -0.012935      0.000000      0.015446
      0.00000      5.50010      3.47664        -0.012935      0.000000     -0.015446
      2.75005      0.00000      0.00000         0.198090      0.097829      0.006973
      2.75005      0.00000      3.47664         0.198090      0.097829     -0.006973
      2.75005      2.75005      0.00000         0.198090     -0.097829      0.006973
      2.75005      2.75005      3.47664         0.198090     -0.097829     -0.006973
      2.75005      5.50010      0.00000        -0.052039      0.000000      0.097325
      2.75005      5.50010      3.47664        -0.052039      0.000000     -0.097325
      5.50010      0.00000      0.00000        -0.011714      0.027234     -0.055438
      5.50010      0.00000      3.47664        -0.011714      0.027234      0.055438
      5.50010      2.75005      0.00000        -0.011714     -0.027234     -0.055438
      5.50010      2.75005      3.47664        -0.011714     -0.027234      0.055438
      5.50010      5.50010      0.00000         0.071064      0.000000     -0.032535
      5.50010      5.50010      3.47664         0.071064      0.000000      0.032535
      1.37502      1.37502      1.73832        -0.276028      0.000000     -0.000000
      1.37502      1.37502      5.21496        -0.056804      0.000000     -0.000000
      1.37502      4.12507      1.73832         0.353456      0.274801     -0.000000
      1.37502      4.12507      5.21496         0.131923      0.256353     -0.000000
      1.37502      6.87512      1.73832         0.353456     -0.274801     -0.000000
      1.37502      6.87512      5.21496         0.131923     -0.256353     -0.000000
      4.12507      1.37502      1.73832         0.034965      0.000000     -0.000000
      4.12507      1.37502      5.21496        -0.008379      0.000000     -0.000000
      4.12507      4.12507      1.73832        -0.220530      0.038428     -0.000000
      4.12507      4.12507      5.21496         0.233500     -0.021816     -0.000000
      4.12507      6.87512      1.73832        -0.220530     -0.038428     -0.000000
      4.12507      6.87512      5.21496         0.233500      0.021816     -0.000000
      6.87512      1.37502      1.73832         0.047120      0.000000     -0.000000
      6.87512      1.37502      5.21496        -0.097045      0.000000     -0.000000
      6.87512      4.12507      1.73832        -0.042875     -0.073193     -0.000000
      6.87512      4.12507      5.21496        -0.259495     -0.034445     -0.000000
      6.87512      6.87512      1.73832        -0.042875      0.073193     -0.000000
      6.87512      6.87512      5.21496        -0.259495      0.034445     -0.000000
 -----------------------------------------------------------------------------------
    total drift:                               -0.000047     -0.000000     -0.000000


--------------------------------------------------------------------------------------------------------



  FREE ENERGIE OF THE ION-ELECTRON SYSTEM (eV)
  ---------------------------------------------------
  free  energy   TOTEN  =      -236.20578634 eV

  energy  without entropy=     -236.21255210  energy(sigma->0) =     -236.20804160
 


--------------------------------------------------------------------------------------------------------


    POTLOK:  cpu time    0.7323: real time    0.7323


--------------------------------------------------------------------------------------------------------


     LOOP+:  cpu time 1064.1811: real time 1075.3629
    4ORBIT:  cpu time    0.0000: real time    0.0000
 


 total charge     
 
# of ion       s       p       d       tot
------------------------------------------
    1        0.405   0.430   0.000   0.835
    2        0.405   0.430   0.000   0.835
    3        0.406   0.430   0.000   0.836
    4        0.405   0.430   0.000   0.835
    5        0.405   0.432   0.000   0.836
    6        0.405   0.431   0.000   0.836
    7        0.405   0.428   0.000   0.833
    8        0.405   0.428   0.000   0.833
    9        0.405   0.428   0.000   0.833
   10        0.405   0.428   0.000   0.833
   11        0.405   0.425   0.000   0.830
   12        0.405   0.425   0.000   0.830
   13        0.405   0.427   0.000   0.832
   14        0.405   0.427   0.000   0.832
   15        0.404   0.427   0.000   0.831
   16        0.405   0.427   0.000   0.832
   17        0.405   0.427   0.000   0.831
   18        0.404   0.426   0.000   0.831
   19        0.331   0.355   5.134   5.820
   20        0.329   0.360   5.129   5.819
   21        0.334   0.356   5.118   5.809
   22        0.334   0.354   5.134   5.821
   23        0.335   0.356   5.118   5.810
   24        0.334   0.353   5.131   5.818
   25        0.331   0.354   5.144   5.829
   26        0.331   0.348   5.150   5.829
   27        0.333   0.350   5.142   5.825
   28        0.335   0.354   5.131   5.821
   29        0.333   0.351   5.137   5.821
   30        0.336   0.354   5.128   5.818
   31        0.331   0.353   5.135   5.819
   32        0.329   0.352   5.143   5.825
   33        0.330   0.355   5.145   5.830
   34        0.333   0.356   5.126   5.815
   35        0.330   0.355   5.134   5.819
   36        0.333   0.356   5.121   5.810
--------------------------------------------------
tot         13.273  14.078  92.400 119.751
 


 magnetization (x)
 
# of ion       s       p       d       tot
------------------------------------------
    1        0.001   0.000   0.000   0.002
    2        0.001   0.001   0.000   0.002
    3        0.002   0.002   0.000   0.004
    4        0.001  -0.000   0.000   0.001
    5        0.002   0.001   0.000   0.003
    6        0.001   0.000   0.000   0.002
    7        0.010   0.018   0.000   0.029
    8        0.010   0.018   0.000   0.029
    9        0.010   0.018   0.000   0.029
   10        0.010   0.018   0.000   0.029
   11        0.010   0.016   0.000   0.026
   12        0.010   0.017   0.000   0.026
   13        0.010   0.017   0.000   0.027
   14        0.010   0.018   0.000   0.028
   15        0.010   0.018   0.000   0.027
   16        0.010   0.018   0.000   0.027
   17        0.010   0.015   0.000   0.025
   18        0.010   0.016   0.000   0.026
   19        0.025   0.036   2.161   2.222
   20       -0.023  -0.040  -2.108  -2.171
   21       -0.021  -0.026  -2.490  -2.537
   22        0.019   0.023   2.325   2.367
   23       -0.020  -0.025  -2.498  -2.544
   24        0.019   0.023   2.318   2.360
   25       -0.019  -0.026  -1.981  -2.027
   26       -0.012  -0.003  -2.260  -2.276
   27       -0.015  -0.008  -2.327  -2.351
   28       -0.021  -0.025  -2.357  -2.403
   29       -0.015  -0.008  -2.329  -2.352
   30       -0.020  -0.025  -2.364  -2.409
   31        0.010  -0.002   2.344   2.352
   32       -0.008   0.000  -2.196  -2.205
   33        0.016   0.018   2.121   2.155
   34       -0.018  -0.022  -2.368  -2.407
   35        0.016   0.018   2.123   2.156
   36       -0.018  -0.022  -2.368  -2.408
--------------------------------------------------
tot          0.022   0.097 -14.253 -14.135
 

 total amount of memory used by VASP MPI-rank0   501577. kBytes
=======================================================================

   base      :      30000. kBytes
   nonl-proj :      24164. kBytes
   fftplans  :      21726. kBytes
   grid      :      14732. kBytes
   one-center:        279. kBytes
   wavefun   :     410676. kBytes
 
  
  
 General timing and accounting informations for this job:
 ========================================================
  
                  Total CPU time used (sec):     1081.511
                            User time (sec):     1060.869
                          System time (sec):       20.642
                         Elapsed time (sec):     1094.550
  
                   Maximum memory used (kb):      628184.
                   Average memory used (kb):           0.
  
                          Minor page faults:       605368
                          Major page faults:           17
                 Voluntary context switches:         5526
