 vasp.5.4.4.18Apr17-6-g9f103f2a35 (build Dec 20 2018 12:05:58) complex          
  
 executed on             LinuxIFC date 2019.06.20  22:45:19
 running on   32 total cores
 distrk:  each k-point on    8 cores,    4 groups
 distr:  one band on NCORES_PER_BAND=   4 cores,    2 groups


--------------------------------------------------------------------------------------------------------


 INCAR:
 POTCAR:    PAW_PBE Al 04Jan2001                  
 POTCAR:    PAW_PBE Mn 06Sep2000                  

 ----------------------------------------------------------------------------- 
|                                                                             |
|           W    W    AA    RRRRR   N    N  II  N    N   GGGG   !!!           |
|           W    W   A  A   R    R  NN   N  II  NN   N  G    G  !!!           |
|           W    W  A    A  R    R  N N  N  II  N N  N  G       !!!           |
|           W WW W  AAAAAA  RRRRR   N  N N  II  N  N N  G  GGG   !            |
|           WW  WW  A    A  R   R   N   NN  II  N   NN  G    G                |
|           W    W  A    A  R    R  N    N  II  N    N   GGGG   !!!           |
|                                                                             |
|      You have enabled k-point parallelism (KPAR>1).                         |
|      This developmental code was originally  written by Paul Kent at ORNL,  |
|      and carefully double checked in Vienna.                                |
|      GW as well as linear response parallelism added by Martijn Marsman     |
|      and Georg Kresse.                                                      |
|      Carefully verify results versus KPAR=1.                                |
|      Report problems to Paul Kent and Vienna.                               |
|                                                                             |
 ----------------------------------------------------------------------------- 

 POTCAR:    PAW_PBE Al 04Jan2001                  
   VRHFIN =Al: s2p1                                                             
   LEXCH  = PE                                                                  
   EATOM  =    53.5387 eV,    3.9350 Ry                                         
                                                                                
   TITEL  = PAW_PBE Al 04Jan2001                                                
   LULTRA =        F    use ultrasoft PP ?                                      
   IUNSCR =        1    unscreen: 0-lin 1-nonlin 2-no                           
   RPACOR =    1.500    partial core radius                                     
   POMASS =   26.981; ZVAL   =    3.000    mass and valenz                      
   RCORE  =    1.900    outmost cutoff radius                                   
   RWIGS  =    2.650; RWIGS  =    1.402    wigner-seitz radius (au A)           
   ENMAX  =  240.300; ENMIN  =  180.225 eV                                      
   ICORE  =        2    local potential                                         
   LCOR   =        T    correct aug charges                                     
   LPAW   =        T    paw PP                                                  
   EAUG   =  291.052                                                            
   DEXC   =    0.000                                                            
   RMAX   =    1.939    core radius for proj-oper                               
   RAUG   =    1.300    factor for augmentation sphere                          
   RDEP   =    1.966    radius for radial grids                                 
   RDEPT  =    1.856    core radius for aug-charge                              
                                                                                
   Atomic configuration                                                         
    6 entries                                                                   
     n  l   j            E        occ.                                          
     1  0  0.50     -1511.1048   2.0000                                         
     2  0  0.50      -108.1629   2.0000                                         
     2  1  1.50       -69.6402   6.0000                                         
     3  0  0.50        -7.7528   2.0000                                         
     3  1  1.50        -2.7121   1.0000                                         
     3  2  2.50        -2.7212   0.0000                                         
   Description                                                                  
     l       E           TYP  RCUT    TYP  RCUT                                 
     0     -7.7528455     23  1.900                                             
     0     -3.3096929     23  1.900                                             
     1     -2.7120682     23  1.900                                             
     1     13.6058260     23  1.900                                             
     2     -2.7211652      7  1.900                                             
  local pseudopotential read in
  partial core-charges read in
  partial kinetic energy density read in
  atomic valenz-charges read in
  non local Contribution for L=           0  read in
    real space projection operators read in
  non local Contribution for L=           0  read in
    real space projection operators read in
  non local Contribution for L=           1  read in
    real space projection operators read in
  non local Contribution for L=           1  read in
    real space projection operators read in
    PAW grid and wavefunctions read in
 
   number of l-projection  operators is LMAX  =           4
   number of lm-projection operators is LMMAX =           8
 
 POTCAR:    PAW_PBE Mn 06Sep2000                  
   VRHFIN =Mn: d6 s1                                                            
   LEXCH  = PE                                                                  
   EATOM  =   416.7541 eV,   30.6306 Ry                                         
                                                                                
   TITEL  = PAW_PBE Mn 06Sep2000                                                
   LULTRA =        F    use ultrasoft PP ?                                      
   IUNSCR =        1    unscreen: 0-lin 1-nonlin 2-no                           
   RPACOR =    2.000    partial core radius                                     
   POMASS =   54.938; ZVAL   =    7.000    mass and valenz                      
   RCORE  =    2.300    outmost cutoff radius                                   
   RWIGS  =    2.500; RWIGS  =    1.323    wigner-seitz radius (au A)           
   ENMAX  =  269.864; ENMIN  =  202.398 eV                                      
   RCLOC  =    1.725    cutoff for local pot                                    
   LCOR   =        T    correct aug charges                                     
   LPAW   =        T    paw PP                                                  
   EAUG   =  500.711                                                            
   DEXC   =    0.000                                                            
   RMAX   =    2.343    core radius for proj-oper                               
   RAUG   =    1.300    factor for augmentation sphere                          
   RDEP   =    2.338    radius for radial grids                                 
   RDEPT  =    1.911    core radius for aug-charge                              
                                                                                
   Atomic configuration                                                         
    9 entries                                                                   
     n  l   j            E        occ.                                          
     1  0  0.50     -6424.8288   2.0000                                         
     2  0  0.50      -739.1154   2.0000                                         
     2  1  1.50      -625.3949   6.0000                                         
     3  0  0.50       -81.6100   2.0000                                         
     3  1  1.50       -50.4667   6.0000                                         
     3  2  2.50        -3.3745   6.0000                                         
     4  0  0.50        -4.1331   1.0000                                         
     4  1  0.50        -4.0817   0.0000                                         
     4  3  2.50        -1.3606   0.0000                                         
   Description                                                                  
     l       E           TYP  RCUT    TYP  RCUT                                 
     2     -3.3744664     23  2.300                                             
     2     -4.7350490     23  2.300                                             
     0     -4.1331408     23  2.300                                             
     0      7.6656614     23  2.300                                             
     1     -2.7211652     23  2.300                                             
     1     20.4087390     23  2.300                                             
  local pseudopotential read in
  partial core-charges read in
  partial kinetic energy density read in
  atomic valenz-charges read in
  non local Contribution for L=           2  read in
    real space projection operators read in
  non local Contribution for L=           2  read in
    real space projection operators read in
  non local Contribution for L=           0  read in
    real space projection operators read in
  non local Contribution for L=           0  read in
    real space projection operators read in
  non local Contribution for L=           1  read in
    real space projection operators read in
  non local Contribution for L=           1  read in
    real space projection operators read in
    PAW grid and wavefunctions read in
 
   number of l-projection  operators is LMAX  =           6
   number of lm-projection operators is LMMAX =          18
 

 ----------------------------------------------------------------------------- 
|                                                                             |
|  ADVICE TO THIS USER RUNNING 'VASP/VAMP'   (HEAR YOUR MASTER'S VOICE ...):  |
|                                                                             |
|      You have a (more or less) 'large supercell' and for larger cells       |
|      it might be more efficient to use real space projection opertators     |
|      So try LREAL= Auto  in the INCAR   file.                               |
|      Mind:          For very  accurate calculation you might also keep the  |
|      reciprocal projection scheme          (i.e. LREAL=.FALSE.)             |
|                                                                             |
 ----------------------------------------------------------------------------- 

  PAW_PBE Al 04Jan2001                  :
 energy of atom  1       EATOM=  -53.5387
 kinetic energy error for atom=    0.0005 (will be added to EATOM!!)
  PAW_PBE Mn 06Sep2000                  :
 energy of atom  2       EATOM= -416.7541
 kinetic energy error for atom=    0.0080 (will be added to EATOM!!)
 
 
 POSCAR: NewRef: 27, @ ['Mn', array([1.37502469, 
  positions in cartesian coordinates
  velocities in cartesian coordinates
  No initial velocities read in
 exchange correlation table for  LEXCH =        8
   RHO(1)=    0.500       N(1)  =     2000
   RHO(2)=  100.500       N(2)  =     4000
 


--------------------------------------------------------------------------------------------------------


 ion  position               nearest neighbor table
   1  0.000  0.000  0.000-  28 2.61  30 2.61  34 2.61  36 2.61  46 2.61  48 2.61  52 2.61  54 2.61
                             4 2.75  10 2.75   7 2.75  19 2.75
   2  0.000  0.000  0.333-  28 2.61  34 2.61  46 2.61  52 2.61  29 2.61  47 2.61  35 2.61  53 2.61
                             5 2.75  11 2.75   8 2.75  20 2.75
   3  0.000  0.000  0.667-  29 2.61  35 2.61  47 2.61  53 2.61  30 2.61  48 2.61  36 2.61  54 2.61
                             6 2.75  12 2.75   9 2.75  21 2.75
   4  0.000  0.333  0.000-  28 2.61  30 2.61  46 2.61  48 2.61  31 2.61  33 2.61  49 2.61  51 2.61
                            13 2.75   1 2.75   7 2.75  22 2.75
   5  0.000  0.333  0.333-  28 2.61  46 2.61  31 2.61  49 2.61  47 2.61  29 2.61  32 2.61  50 2.61
                            14 2.75   2 2.75   8 2.75  23 2.75
   6  0.000  0.333  0.667-  29 2.61  47 2.61  32 2.61  50 2.61  48 2.61  30 2.61  33 2.61  51 2.61
                            15 2.75   3 2.75   9 2.75  24 2.75
   7  0.000  0.667  0.000-  31 2.61  33 2.61  49 2.61  51 2.61  34 2.61  36 2.61  52 2.61  54 2.61
                             4 2.75  16 2.75   1 2.75  25 2.75
   8  0.000  0.667  0.333-  31 2.61  49 2.61  34 2.61  52 2.61  50 2.61  32 2.61  35 2.61  53 2.61
                             5 2.75  17 2.75   2 2.75  26 2.75
   9  0.000  0.667  0.667-  32 2.61  50 2.61  35 2.61  53 2.61  51 2.61  33 2.61  36 2.61  54 2.61
                             6 2.75  18 2.75   3 2.75  27 2.75
  10  0.333  0.000  0.000-  28 2.61  30 2.61  34 2.61  36 2.61  37 2.61  39 2.61  43 2.61  45 2.61
                            19 2.75   1 2.75  13 2.75  16 2.75
  11  0.333  0.000  0.333-  28 2.61  34 2.61  37 2.61  43 2.61  29 2.61  35 2.61  38 2.61  44 2.61
                            20 2.75   2 2.75  14 2.75  17 2.75
  12  0.333  0.000  0.667-  29 2.61  35 2.61  38 2.61  44 2.61  30 2.61  36 2.61  39 2.61  45 2.61
                            21 2.75   3 2.75  15 2.75  18 2.75
  13  0.333  0.333  0.000-  28 2.61  30 2.61  31 2.61  33 2.61  37 2.61  39 2.61  40 2.61  42 2.61
                             4 2.75  10 2.75  16 2.75  22 2.75
  14  0.333  0.333  0.333-  28 2.61  31 2.61  37 2.61  29 2.61  40 2.61  38 2.61  32 2.61  41 2.61
                             5 2.75  11 2.75  17 2.75  23 2.75
  15  0.333  0.333  0.667-  29 2.61  32 2.61  38 2.61  30 2.61  41 2.61  39 2.61  33 2.61  42 2.61
                             6 2.75  12 2.75  18 2.75  24 2.75
  16  0.333  0.667  0.000-  31 2.61  33 2.61  34 2.61  36 2.61  40 2.61  42 2.61  43 2.61  45 2.61
                            25 2.75   7 2.75  13 2.75  10 2.75
  17  0.333  0.667  0.333-  31 2.61  34 2.61  40 2.61  32 2.61  43 2.61  41 2.61  35 2.61  44 2.61
                            26 2.75   8 2.75  14 2.75  11 2.75
  18  0.333  0.667  0.667-  32 2.61  35 2.61  41 2.61  33 2.61  44 2.61  42 2.61  36 2.61  45 2.61
                            27 2.75   9 2.75  15 2.75  12 2.75
  19  0.667  0.000  0.000-  37 2.61  39 2.61  43 2.61  45 2.61  46 2.61  48 2.61  52 2.61  54 2.61
                            10 2.75  22 2.75   1 2.75  25 2.75
  20  0.667  0.000  0.333-  37 2.61  43 2.61  46 2.61  52 2.61  38 2.61  44 2.61  47 2.61  53 2.61
                            11 2.75  23 2.75   2 2.75  26 2.75
  21  0.667  0.000  0.667-  38 2.61  44 2.61  47 2.61  53 2.61  39 2.61  45 2.61  48 2.61  54 2.61
                            12 2.75  24 2.75   3 2.75  27 2.75
  22  0.667  0.333  0.000-  37 2.61  39 2.61  40 2.61  42 2.61  46 2.61  48 2.61  49 2.61  51 2.61
                            25 2.75  13 2.75  19 2.75   4 2.75
  23  0.667  0.333  0.333-  37 2.61  40 2.61  46 2.61  38 2.61  49 2.61  47 2.61  41 2.61  50 2.61
                            26 2.75  14 2.75  20 2.75   5 2.75
  24  0.667  0.333  0.667-  38 2.61  41 2.61  47 2.61  39 2.61  50 2.61  48 2.61  42 2.61  51 2.61
                            27 2.75  15 2.75  21 2.75   6 2.75
  25  0.667  0.667  0.000-  40 2.61  42 2.61  43 2.61  45 2.61  49 2.61  51 2.61  52 2.61  54 2.61
                            16 2.75  22 2.75  19 2.75   7 2.75
  26  0.667  0.667  0.333-  40 2.61  43 2.61  49 2.61  41 2.61  52 2.61  50 2.61  44 2.61  53 2.61
                            17 2.75  23 2.75  20 2.75   8 2.75
  27  0.667  0.667  0.667-  41 2.61  44 2.61  50 2.61  42 2.61  53 2.61  51 2.61  45 2.61  54 2.61
                            18 2.75  24 2.75  21 2.75   9 2.75
  28  0.167  0.167  0.167-  14 2.61  11 2.61   5 2.61  13 2.61   2 2.61  10 2.61   4 2.61   1 2.61
                            31 2.75  37 2.75  34 2.75  46 2.75
  29  0.167  0.167  0.500-  15 2.61  12 2.61   6 2.61  14 2.61   3 2.61  11 2.61   5 2.61   2 2.61
                            32 2.75  38 2.75  35 2.75  47 2.75
  30  0.167  0.167  0.833-  13 2.61  15 2.61  10 2.61  12 2.61   4 2.61   6 2.61   1 2.61   3 2.61
                            33 2.75  39 2.75  36 2.75  48 2.75
  31  0.167  0.500  0.167-  17 2.61  14 2.61   8 2.61  16 2.61   5 2.61  13 2.61   7 2.61   4 2.61
                            28 2.75  34 2.75  40 2.75  49 2.75
  32  0.167  0.500  0.500-  18 2.61  15 2.61   9 2.61  17 2.61   6 2.61  14 2.61   8 2.61   5 2.61
                            29 2.75  35 2.75  41 2.75  50 2.75
  33  0.167  0.500  0.833-  16 2.61  18 2.61  13 2.61  15 2.61   7 2.61   9 2.61   4 2.61   6 2.61
                            30 2.75  36 2.75  42 2.75  51 2.75
  34  0.167  0.833  0.167-  11 2.61  17 2.61   2 2.61   8 2.61  16 2.61  10 2.61   7 2.61   1 2.61
                            31 2.75  43 2.75  28 2.75  52 2.75
  35  0.167  0.833  0.500-  12 2.61  18 2.61   3 2.61   9 2.61  17 2.61  11 2.61   8 2.61   2 2.61
                            32 2.75  44 2.75  29 2.75  53 2.75
  36  0.167  0.833  0.833-  10 2.61  12 2.61  16 2.61  18 2.61   1 2.61   3 2.61   7 2.61   9 2.61
                            33 2.75  45 2.75  30 2.75  54 2.75
  37  0.500  0.167  0.167-  23 2.61  20 2.61  14 2.61  22 2.61  11 2.61  19 2.61  13 2.61  10 2.61
                            28 2.75  40 2.75  46 2.75  43 2.75
  38  0.500  0.167  0.500-  24 2.61  21 2.61  15 2.61  23 2.61  12 2.61  20 2.61  14 2.61  11 2.61
                            29 2.75  41 2.75  47 2.75  44 2.75
  39  0.500  0.167  0.833-  22 2.61  24 2.61  19 2.61  21 2.61  13 2.61  15 2.61  10 2.61  12 2.61
                            30 2.75  42 2.75  48 2.75  45 2.75
  40  0.500  0.500  0.167-  26 2.61  23 2.61  17 2.61  25 2.61  14 2.61  22 2.61  16 2.61  13 2.61
                            31 2.75  37 2.75  43 2.75  49 2.75
  41  0.500  0.500  0.500-  27 2.61  24 2.61  18 2.61  26 2.61  15 2.61  23 2.61  17 2.61  14 2.61
                            32 2.75  38 2.75  44 2.75  50 2.75
  42  0.500  0.500  0.833-  25 2.61  27 2.61  22 2.61  24 2.61  16 2.61  18 2.61  13 2.61  15 2.61
                            33 2.75  39 2.75  45 2.75  51 2.75
  43  0.500  0.833  0.167-  20 2.61  26 2.61  11 2.61  17 2.61  25 2.61  19 2.61  16 2.61  10 2.61
                            34 2.75  40 2.75  52 2.75  37 2.75
  44  0.500  0.833  0.500-  21 2.61  27 2.61  12 2.61  18 2.61  26 2.61  20 2.61  17 2.61  11 2.61
                            35 2.75  41 2.75  53 2.75  38 2.75
  45  0.500  0.833  0.833-  19 2.61  21 2.61  25 2.61  27 2.61  10 2.61  12 2.61  16 2.61  18 2.61
                            36 2.75  42 2.75  54 2.75  39 2.75
  46  0.833  0.167  0.167-   5 2.61  23 2.61  20 2.61   2 2.61  22 2.61   4 2.61  19 2.61   1 2.61
                            37 2.75  49 2.75  28 2.75  52 2.75
  47  0.833  0.167  0.500-   6 2.61  24 2.61  21 2.61   3 2.61  23 2.61   5 2.61  20 2.61   2 2.61
                            38 2.75  50 2.75  29 2.75  53 2.75
  48  0.833  0.167  0.833-   4 2.61   6 2.61  22 2.61  24 2.61  19 2.61  21 2.61   1 2.61   3 2.61
                            39 2.75  51 2.75  30 2.75  54 2.75
  49  0.833  0.500  0.167-   8 2.61  26 2.61  23 2.61   5 2.61  25 2.61   7 2.61  22 2.61   4 2.61
                            40 2.75  46 2.75  52 2.75  31 2.75
  50  0.833  0.500  0.500-   9 2.61  27 2.61  24 2.61   6 2.61  26 2.61   8 2.61  23 2.61   5 2.61
                            41 2.75  47 2.75  53 2.75  32 2.75
  51  0.833  0.500  0.833-   7 2.61   9 2.61  25 2.61  27 2.61  22 2.61  24 2.61   4 2.61   6 2.61
                            42 2.75  48 2.75  54 2.75  33 2.75
  52  0.833  0.833  0.167-   2 2.61   8 2.61  20 2.61  26 2.61  19 2.61   7 2.61  25 2.61   1 2.61
                            43 2.75  49 2.75  46 2.75  34 2.75
  53  0.833  0.833  0.500-   3 2.61   9 2.61  21 2.61  27 2.61  20 2.61   8 2.61  26 2.61   2 2.61
                            44 2.75  50 2.75  47 2.75  35 2.75
  54  0.833  0.833  0.833-   1 2.61   3 2.61   7 2.61   9 2.61  19 2.61  21 2.61  25 2.61  27 2.61
                            45 2.75  51 2.75  48 2.75  36 2.75
 
  LATTYP: Found a simple tetragonal cell.
 ALAT       =     8.2501481662
 C/A-ratio  =     1.2642089792
  
  Lattice vectors:
  
 A1 = (   8.2501481662,   0.0000000000,   0.0000000000)
 A2 = (   0.0000000000,   8.2501481662,   0.0000000000)
 A3 = (   0.0000000000,   0.0000000000,  10.4299113916)


Analysis of symmetry for initial positions (statically):
=====================================================================
 Subroutine PRICEL returns following result:
 
  LATTYP: Found a simple tetragonal cell.
 ALAT       =     2.7500493888
 C/A-ratio  =     1.2642089792
  
  Lattice vectors:
  
 A1 = (   2.7500493888,   0.0000000000,   0.0000000000)
 A2 = (   0.0000000000,   2.7500493888,   0.0000000000)
 A3 = (   0.0000000000,   0.0000000000,   3.4766371306)
 
  27 primitive cells build up your supercell.
 

 Routine SETGRP: Setting up the symmetry group for a 
 simple tetragonal supercell.


 Subroutine GETGRP returns: Found 16 space group operations
 (whereof 16 operations were pure point group operations)
 out of a pool of 16 trial point group operations.


The static configuration has the point symmetry D_4h.


Analysis of symmetry for dynamics (positions and initial velocities):
=====================================================================
 Subroutine PRICEL returns following result:
 
  LATTYP: Found a simple tetragonal cell.
 ALAT       =     2.7500493888
 C/A-ratio  =     1.2642089792
  
  Lattice vectors:
  
 A1 = (   2.7500493888,   0.0000000000,   0.0000000000)
 A2 = (   0.0000000000,   2.7500493888,   0.0000000000)
 A3 = (   0.0000000000,   0.0000000000,   3.4766371306)
 
  27 primitive cells build up your supercell.
 

 Routine SETGRP: Setting up the symmetry group for a 
 simple tetragonal supercell.


 Subroutine GETGRP returns: Found 16 space group operations
 (whereof 16 operations were pure point group operations)
 out of a pool of 16 trial point group operations.


The dynamic configuration has the point symmetry D_4h.


Analysis of structural, dynamic, and magnetic symmetry:
=====================================================================
 Subroutine PRICEL returns:
 Original cell was already a primitive cell.
 

 Routine SETGRP: Setting up the symmetry group for a 
 simple tetragonal supercell.


 Subroutine GETGRP returns: Found  2 space group operations
 (whereof  1 operations were pure point group operations)
 out of a pool of 16 trial point group operations.


The magnetic configuration has the point symmetry C_1 .
 The point group associated with its full space group is C_1h.


 Subroutine INISYM returns: Found  2 space group operations
 (whereof  1 operations are pure point group operations),
 and found     1 'primitive' translations

 
 
 KPOINTS: automatic KPOINTS                       

Automatic generation of k-mesh.
 generate k-points for:    5    5    4
Space group operators:
 irot       det(A)        alpha          n_x          n_y          n_z        tau_x        tau_y        tau_z
    1     1.000000     0.000001     1.000000     0.000000     0.000000     0.000000     0.000000     0.000000
    2    -1.000000   180.000000     1.000000     0.000000     0.000000     0.333333     0.000000     0.000000
 
 Subroutine IBZKPT returns following result:
 ===========================================
 
 Found     33 irreducible k-points:
 
 Following reciprocal coordinates:
            Coordinates               Weight
  0.000000  0.000000  0.000000      1.000000
  0.200000  0.000000  0.000000      2.000000
  0.400000  0.000000  0.000000      2.000000
  0.000000  0.200000  0.000000      2.000000
  0.200000  0.200000  0.000000      4.000000
  0.400000  0.200000  0.000000      4.000000
  0.000000  0.400000  0.000000      2.000000
  0.200000  0.400000  0.000000      4.000000
  0.400000  0.400000  0.000000      4.000000
  0.000000  0.000000  0.250000      2.000000
  0.200000  0.000000  0.250000      4.000000
  0.400000  0.000000  0.250000      4.000000
  0.000000  0.200000  0.250000      2.000000
  0.200000  0.200000  0.250000      4.000000
  0.400000  0.200000  0.250000      4.000000
  0.000000  0.400000  0.250000      2.000000
  0.200000  0.400000  0.250000      4.000000
  0.400000  0.400000  0.250000      4.000000
  0.000000 -0.400000  0.250000      2.000000
  0.200000 -0.400000  0.250000      4.000000
  0.400000 -0.400000  0.250000      4.000000
  0.000000 -0.200000  0.250000      2.000000
  0.200000 -0.200000  0.250000      4.000000
  0.400000 -0.200000  0.250000      4.000000
  0.000000  0.000000  0.500000      1.000000
  0.200000  0.000000  0.500000      2.000000
  0.400000  0.000000  0.500000      2.000000
  0.000000  0.200000  0.500000      2.000000
  0.200000  0.200000  0.500000      4.000000
  0.400000  0.200000  0.500000      4.000000
  0.000000  0.400000  0.500000      2.000000
  0.200000  0.400000  0.500000      4.000000
  0.400000  0.400000  0.500000      4.000000
 
 Following cartesian coordinates:
            Coordinates               Weight
  0.000000  0.000000  0.000000      1.000000
  0.024242  0.000000  0.000000      2.000000
  0.048484  0.000000  0.000000      2.000000
  0.000000  0.024242  0.000000      2.000000
  0.024242  0.024242  0.000000      4.000000
  0.048484  0.024242  0.000000      4.000000
  0.000000  0.048484  0.000000      2.000000
  0.024242  0.048484  0.000000      4.000000
  0.048484  0.048484  0.000000      4.000000
  0.000000  0.000000  0.023970      2.000000
  0.024242  0.000000  0.023970      4.000000
  0.048484  0.000000  0.023970      4.000000
  0.000000  0.024242  0.023970      2.000000
  0.024242  0.024242  0.023970      4.000000
  0.048484  0.024242  0.023970      4.000000
  0.000000  0.048484  0.023970      2.000000
  0.024242  0.048484  0.023970      4.000000
  0.048484  0.048484  0.023970      4.000000
  0.000000 -0.048484  0.023970      2.000000
  0.024242 -0.048484  0.023970      4.000000
  0.048484 -0.048484  0.023970      4.000000
  0.000000 -0.024242  0.023970      2.000000
  0.024242 -0.024242  0.023970      4.000000
  0.048484 -0.024242  0.023970      4.000000
  0.000000  0.000000  0.047939      1.000000
  0.024242  0.000000  0.047939      2.000000
  0.048484  0.000000  0.047939      2.000000
  0.000000  0.024242  0.047939      2.000000
  0.024242  0.024242  0.047939      4.000000
  0.048484  0.024242  0.047939      4.000000
  0.000000  0.048484  0.047939      2.000000
  0.024242  0.048484  0.047939      4.000000
  0.048484  0.048484  0.047939      4.000000
 


--------------------------------------------------------------------------------------------------------




 Dimension of arrays:
   k-points           NKPTS =     33   k-points in BZ     NKDIM =     33   number of bands    NBANDS=    174
   number of dos      NEDOS =    301   number of ions     NIONS =     54
   non local maximal  LDIM  =      6   non local SUM 2l+1 LMDIM =     18
   total plane-waves  NPLWV = 204120
   max r-space proj   IRMAX =      1   max aug-charges    IRDMAX=  89713
   dimension x,y,z NGX =    54 NGY =   54 NGZ =   70
   dimension x,y,z NGXF=   108 NGYF=  108 NGZF=  140
   support grid    NGXF=   216 NGYF=  216 NGZF=  280
   ions per type =              27  27
   NGX,Y,Z   is equivalent  to a cutoff of  10.88, 10.88, 11.16 a.u.
   NGXF,Y,Z  is equivalent  to a cutoff of  21.76, 21.76, 22.32 a.u.

 SYSTEM =  AlMn_pv                                 
 POSCAR =  NewRef: 27, @ ['Mn', array([1.37502469, 

 Startparameter for this run:
   NWRITE =      2    write-flag & timer
   PREC   = accura    normal or accurate (medium, high low for compatibility)
   ISTART =      0    job   : 0-new  1-cont  2-samecut
   ICHARG =      2    charge: 1-file 2-atom 10-const
   ISPIN  =      2    spin polarized calculation?
   LNONCOLLINEAR =      F non collinear calculations
   LSORBIT =      F    spin-orbit coupling
   INIWAV =      1    electr: 0-lowe 1-rand  2-diag
   LASPH  =      F    aspherical Exc in radial PAW
   METAGGA=      F    non-selfconsistent MetaGGA calc.

 Electronic Relaxation 1
   ENCUT  =  404.8 eV  29.75 Ry    5.45 a.u.  13.53 13.53 17.11*2*pi/ulx,y,z
   ENINI  =  404.8     initial cutoff
   ENAUG  =  500.7 eV  augmentation charge cutoff
   NELM   =    100;   NELMIN=  4; NELMDL= -8     # of ELM steps 
   EDIFF  = 0.1E-06   stopping-criterion for ELM
   LREAL  =      F    real-space projection
   NLSPLINE    = F    spline interpolate recip. space projectors
   LCOMPAT=      F    compatible to vasp.4.4
   GGA_COMPAT  = T    GGA compatible to vasp.4.4-vasp.4.6
   LMAXPAW     = -100 max onsite density
   LMAXMIX     =    2 max onsite mixed and CHGCAR
   VOSKOWN=      0    Vosko Wilk Nusair interpolation
   ROPT   =    0.00000   0.00000
 Ionic relaxation
   EDIFFG = 0.1E-05   stopping-criterion for IOM
   NSW    =      0    number of steps for IOM
   NBLOCK =      1;   KBLOCK =      1    inner block; outer block 
   IBRION =     -1    ionic relax: 0-MD 1-quasi-New 2-CG
   NFREE  =      0    steps in history (QN), initial steepest desc. (CG)
   ISIF   =      2    stress and relaxation
   IWAVPR =     10    prediction:  0-non 1-charg 2-wave 3-comb
   ISYM   =      2    0-nonsym 1-usesym 2-fastsym
   LCORR  =      T    Harris-Foulkes like correction to forces

   POTIM  = 0.2000    time-step for ionic-motion
   TEIN   =    0.0    initial temperature
   TEBEG  =    0.0;   TEEND  =   0.0 temperature during run
   SMASS  =  -3.00    Nose mass-parameter (am)
   estimated Nose-frequenzy (Omega)   =  0.10E-29 period in steps =****** mass=  -0.156E-26a.u.
   SCALEE = 1.0000    scale energy and forces
   NPACO  =    256;   APACO  = 16.0  distance and # of slots for P.C.
   PSTRESS=    0.0 pullay stress

  Mass of Ions in am
   POMASS =  26.98 54.94
  Ionic Valenz
   ZVAL   =   3.00  7.00
  Atomic Wigner-Seitz radii
   RWIGS  =  -1.00 -1.00
  virtual crystal weights 
   VCA    =   1.00  1.00
   NELECT =     270.0000    total number of electrons
   NUPDOWN=      -1.0000    fix difference up-down

 DOS related values:
   EMIN   =  10.00;   EMAX   =-10.00  energy-range for DOS
   EFERMI =   0.00
   ISMEAR =     1;   SIGMA  =   0.20  broadening in eV -4-tet -1-fermi 0-gaus

 Electronic relaxation 2 (details)
   IALGO  =     58    algorithm
   LDIAG  =      T    sub-space diagonalisation (order eigenvalues)
   LSUBROT=      F    optimize rotation matrix (better conditioning)
   TURBO    =      0    0=normal 1=particle mesh
   IRESTART =      0    0=no restart 2=restart with 2 vectors
   NREBOOT  =      0    no. of reboots
   NMIN     =      0    reboot dimension
   EREF     =   0.00    reference energy to select bands
   IMIX   =      4    mixing-type and parameters
     AMIX     =   0.40;   BMIX     =  1.00
     AMIX_MAG =   1.60;   BMIX_MAG =  1.00
     AMIN     =   0.10
     WC   =   100.;   INIMIX=   1;  MIXPRE=   1;  MAXMIX= -45

 Intra band minimization:
   WEIMIN = 0.0000     energy-eigenvalue tresh-hold
   EBREAK =  0.14E-09  absolut break condition
   DEPER  =   0.30     relativ break condition  

   TIME   =   0.40     timestep for ELM

  volume/ion in A,a.u.               =      13.15        88.72
  Fermi-wavevector in a.u.,A,eV,Ry     =   1.186118  2.241439 19.141722  1.406877
  Thomas-Fermi vector in A             =   2.322298
 
 Write flags
   LWAVE        =      F    write WAVECAR
   LDOWNSAMPLE  =      F    k-point downsampling of WAVECAR
   LCHARG       =      F    write CHGCAR
   LVTOT        =      F    write LOCPOT, total local potential
   LVHAR        =      F    write LOCPOT, Hartree potential only
   LELF         =      F    write electronic localiz. function (ELF)
   LORBIT       =     10    0 simple, 1 ext, 2 COOP (PROOUT), +10 PAW based schemes


 Dipole corrections
   LMONO  =      F    monopole corrections only (constant potential shift)
   LDIPOL =      F    correct potential (dipole corrections)
   IDIPOL =      0    1-x, 2-y, 3-z, 4-all directions 
   EPSILON=  1.0000000 bulk dielectric constant

 Exchange correlation treatment:
   GGA     =    --    GGA type
   LEXCH   =     8    internal setting for exchange type
   VOSKOWN=      0    Vosko Wilk Nusair interpolation
   LHFCALC =     F    Hartree Fock is set to
   LHFONE  =     F    Hartree Fock one center treatment
   AEXX    =    0.0000 exact exchange contribution

 Linear response parameters
   LEPSILON=     F    determine dielectric tensor
   LRPA    =     F    only Hartree local field effects (RPA)
   LNABLA  =     F    use nabla operator in PAW spheres
   LVEL    =     F    velocity operator in full k-point grid
   LINTERFAST=   F  fast interpolation
   KINTER  =     0    interpolate to denser k-point grid
   CSHIFT  =0.1000    complex shift for real part using Kramers Kronig
   OMEGAMAX=  -1.0    maximum frequency
   DEG_THRESHOLD= 0.2000000E-02 threshold for treating states as degnerate
   RTIME   =   -0.100 relaxation time in fs
  (WPLASMAI=    0.000 imaginary part of plasma frequency in eV, 0.658/RTIME)
   DFIELD  = 0.0000000 0.0000000 0.0000000 field for delta impulse in time
 
 Orbital magnetization related:
   ORBITALMAG=     F  switch on orbital magnetization
   LCHIMAG   =     F  perturbation theory with respect to B field
   DQ        =  0.001000  dq finite difference perturbation B field
   LLRAUG    =     F  two centre corrections for induced B field



--------------------------------------------------------------------------------------------------------


 Static calculation
 charge density and potential will be updated during run
 spin polarized calculation
 Conjugate gradient for all bands (Freysoldt, et al. PRB 79, 241103 (2009))
 preconditioned conjugated gradient                                        
 perform sub-space diagonalisation
    before iterative eigenvector-optimisation
 modified Broyden-mixing scheme, WC =      100.0
 initial mixing is a Kerker type mixing with AMIX =  0.4000 and BMIX =      1.0000
 Hartree-type preconditioning will be used
 using additional bands           39
 reciprocal scheme for non local part
 use partial core corrections
 no Harris-corrections to forces 
 use gradient corrections 
 use of overlap-Matrix (Vanderbilt PP)
 Methfessel and Paxton  Order N= 1 SIGMA  =   0.20


--------------------------------------------------------------------------------------------------------


  energy-cutoff  :      404.80
  volume of cell :      709.91
      direct lattice vectors                 reciprocal lattice vectors
     8.250148166  0.000000000  0.000000000     0.121209944  0.000000000  0.000000000
     0.000000000  8.250148166  0.000000000     0.000000000  0.121209944  0.000000000
     0.000000000  0.000000000 10.429911392     0.000000000  0.000000000  0.095878092

  length of vectors
     8.250148166  8.250148166 10.429911392     0.121209944  0.121209944  0.095878092


 
 k-points in units of 2pi/SCALE and weight: automatic KPOINTS                       
   0.00000000  0.00000000  0.00000000       0.010
   0.02424199  0.00000000  0.00000000       0.020
   0.04848398  0.00000000  0.00000000       0.020
   0.00000000  0.02424199  0.00000000       0.020
   0.02424199  0.02424199  0.00000000       0.040
   0.04848398  0.02424199  0.00000000       0.040
   0.00000000  0.04848398  0.00000000       0.020
   0.02424199  0.04848398  0.00000000       0.040
   0.04848398  0.04848398  0.00000000       0.040
   0.00000000  0.00000000  0.02396952       0.020
   0.02424199  0.00000000  0.02396952       0.040
   0.04848398  0.00000000  0.02396952       0.040
   0.00000000  0.02424199  0.02396952       0.020
   0.02424199  0.02424199  0.02396952       0.040
   0.04848398  0.02424199  0.02396952       0.040
   0.00000000  0.04848398  0.02396952       0.020
   0.02424199  0.04848398  0.02396952       0.040
   0.04848398  0.04848398  0.02396952       0.040
   0.00000000 -0.04848398  0.02396952       0.020
   0.02424199 -0.04848398  0.02396952       0.040
   0.04848398 -0.04848398  0.02396952       0.040
   0.00000000 -0.02424199  0.02396952       0.020
   0.02424199 -0.02424199  0.02396952       0.040
   0.04848398 -0.02424199  0.02396952       0.040
   0.00000000  0.00000000  0.04793905       0.010
   0.02424199  0.00000000  0.04793905       0.020
   0.04848398  0.00000000  0.04793905       0.020
   0.00000000  0.02424199  0.04793905       0.020
   0.02424199  0.02424199  0.04793905       0.040
   0.04848398  0.02424199  0.04793905       0.040
   0.00000000  0.04848398  0.04793905       0.020
   0.02424199  0.04848398  0.04793905       0.040
   0.04848398  0.04848398  0.04793905       0.040
 
 k-points in reciprocal lattice and weights: automatic KPOINTS                       
   0.00000000  0.00000000  0.00000000       0.010
   0.20000000  0.00000000  0.00000000       0.020
   0.40000000  0.00000000  0.00000000       0.020
   0.00000000  0.20000000  0.00000000       0.020
   0.20000000  0.20000000  0.00000000       0.040
   0.40000000  0.20000000  0.00000000       0.040
   0.00000000  0.40000000  0.00000000       0.020
   0.20000000  0.40000000  0.00000000       0.040
   0.40000000  0.40000000  0.00000000       0.040
   0.00000000  0.00000000  0.25000000       0.020
   0.20000000  0.00000000  0.25000000       0.040
   0.40000000  0.00000000  0.25000000       0.040
   0.00000000  0.20000000  0.25000000       0.020
   0.20000000  0.20000000  0.25000000       0.040
   0.40000000  0.20000000  0.25000000       0.040
   0.00000000  0.40000000  0.25000000       0.020
   0.20000000  0.40000000  0.25000000       0.040
   0.40000000  0.40000000  0.25000000       0.040
   0.00000000 -0.40000000  0.25000000       0.020
   0.20000000 -0.40000000  0.25000000       0.040
   0.40000000 -0.40000000  0.25000000       0.040
   0.00000000 -0.20000000  0.25000000       0.020
   0.20000000 -0.20000000  0.25000000       0.040
   0.40000000 -0.20000000  0.25000000       0.040
   0.00000000  0.00000000  0.50000000       0.010
   0.20000000  0.00000000  0.50000000       0.020
   0.40000000  0.00000000  0.50000000       0.020
   0.00000000  0.20000000  0.50000000       0.020
   0.20000000  0.20000000  0.50000000       0.040
   0.40000000  0.20000000  0.50000000       0.040
   0.00000000  0.40000000  0.50000000       0.020
   0.20000000  0.40000000  0.50000000       0.040
   0.40000000  0.40000000  0.50000000       0.040
 
 position of ions in fractional coordinates (direct lattice) 
   0.00000000  0.00000000  0.00000000
   0.00000000  0.00000000  0.33333333
   0.00000000  0.00000000  0.66666667
   0.00000000  0.33333333  0.00000000
   0.00000000  0.33333333  0.33333333
   0.00000000  0.33333333  0.66666667
   0.00000000  0.66666667  0.00000000
   0.00000000  0.66666667  0.33333333
   0.00000000  0.66666667  0.66666667
   0.33333333  0.00000000  0.00000000
   0.33333333  0.00000000  0.33333333
   0.33333333  0.00000000  0.66666667
   0.33333333  0.33333333  0.00000000
   0.33333333  0.33333333  0.33333333
   0.33333333  0.33333333  0.66666667
   0.33333333  0.66666667  0.00000000
   0.33333333  0.66666667  0.33333333
   0.33333333  0.66666667  0.66666667
   0.66666667  0.00000000  0.00000000
   0.66666667  0.00000000  0.33333333
   0.66666667  0.00000000  0.66666667
   0.66666667  0.33333333  0.00000000
   0.66666667  0.33333333  0.33333333
   0.66666667  0.33333333  0.66666667
   0.66666667  0.66666667  0.00000000
   0.66666667  0.66666667  0.33333333
   0.66666667  0.66666667  0.66666667
   0.16666667  0.16666667  0.16666667
   0.16666667  0.16666667  0.50000000
   0.16666667  0.16666667  0.83333333
   0.16666667  0.50000000  0.16666667
   0.16666667  0.50000000  0.50000000
   0.16666667  0.50000000  0.83333333
   0.16666667  0.83333333  0.16666667
   0.16666667  0.83333333  0.50000000
   0.16666667  0.83333333  0.83333333
   0.50000000  0.16666667  0.16666667
   0.50000000  0.16666667  0.50000000
   0.50000000  0.16666667  0.83333333
   0.50000000  0.50000000  0.16666667
   0.50000000  0.50000000  0.50000000
   0.50000000  0.50000000  0.83333333
   0.50000000  0.83333333  0.16666667
   0.50000000  0.83333333  0.50000000
   0.50000000  0.83333333  0.83333333
   0.83333333  0.16666667  0.16666667
   0.83333333  0.16666667  0.50000000
   0.83333333  0.16666667  0.83333333
   0.83333333  0.50000000  0.16666667
   0.83333333  0.50000000  0.50000000
   0.83333333  0.50000000  0.83333333
   0.83333333  0.83333333  0.16666667
   0.83333333  0.83333333  0.50000000
   0.83333333  0.83333333  0.83333333
 
 position of ions in cartesian coordinates  (Angst):
   0.00000000  0.00000000  0.00000000
   0.00000000  0.00000000  3.47663713
   0.00000000  0.00000000  6.95327426
   0.00000000  2.75004939  0.00000000
   0.00000000  2.75004939  3.47663713
   0.00000000  2.75004939  6.95327426
   0.00000000  5.50009878  0.00000000
   0.00000000  5.50009878  3.47663713
   0.00000000  5.50009878  6.95327426
   2.75004939  0.00000000  0.00000000
   2.75004939  0.00000000  3.47663713
   2.75004939  0.00000000  6.95327426
   2.75004939  2.75004939  0.00000000
   2.75004939  2.75004939  3.47663713
   2.75004939  2.75004939  6.95327426
   2.75004939  5.50009878  0.00000000
   2.75004939  5.50009878  3.47663713
   2.75004939  5.50009878  6.95327426
   5.50009878  0.00000000  0.00000000
   5.50009878  0.00000000  3.47663713
   5.50009878  0.00000000  6.95327426
   5.50009878  2.75004939  0.00000000
   5.50009878  2.75004939  3.47663713
   5.50009878  2.75004939  6.95327426
   5.50009878  5.50009878  0.00000000
   5.50009878  5.50009878  3.47663713
   5.50009878  5.50009878  6.95327426
   1.37502469  1.37502469  1.73831857
   1.37502469  1.37502469  5.21495570
   1.37502469  1.37502469  8.69159283
   1.37502469  4.12507408  1.73831857
   1.37502469  4.12507408  5.21495570
   1.37502469  4.12507408  8.69159283
   1.37502469  6.87512347  1.73831857
   1.37502469  6.87512347  5.21495570
   1.37502469  6.87512347  8.69159283
   4.12507408  1.37502469  1.73831857
   4.12507408  1.37502469  5.21495570
   4.12507408  1.37502469  8.69159283
   4.12507408  4.12507408  1.73831857
   4.12507408  4.12507408  5.21495570
   4.12507408  4.12507408  8.69159283
   4.12507408  6.87512347  1.73831857
   4.12507408  6.87512347  5.21495570
   4.12507408  6.87512347  8.69159283
   6.87512347  1.37502469  1.73831857
   6.87512347  1.37502469  5.21495570
   6.87512347  1.37502469  8.69159283
   6.87512347  4.12507408  1.73831857
   6.87512347  4.12507408  5.21495570
   6.87512347  4.12507408  8.69159283
   6.87512347  6.87512347  1.73831857
   6.87512347  6.87512347  5.21495570
   6.87512347  6.87512347  8.69159283
 


--------------------------------------------------------------------------------------------------------


 k-point  1 :   0.0000 0.0000 0.0000  plane waves:   13099
 k-point  2 :   0.2000 0.0000 0.0000  plane waves:   13101
 k-point  3 :   0.4000 0.0000 0.0000  plane waves:   13111
 k-point  4 :   0.0000 0.2000 0.0000  plane waves:   13101
 k-point  5 :   0.2000 0.2000 0.0000  plane waves:   13137
 k-point  6 :   0.4000 0.2000 0.0000  plane waves:   13119
 k-point  7 :   0.0000 0.4000 0.0000  plane waves:   13111
 k-point  8 :   0.2000 0.4000 0.0000  plane waves:   13119
 k-point  9 :   0.4000 0.4000 0.0000  plane waves:   13129
 k-point 10 :   0.0000 0.0000 0.2500  plane waves:   13134
 k-point 11 :   0.2000 0.0000 0.2500  plane waves:   13149
 k-point 12 :   0.4000 0.0000 0.2500  plane waves:   13119
 k-point 13 :   0.0000 0.2000 0.2500  plane waves:   13149
 k-point 14 :   0.2000 0.2000 0.2500  plane waves:   13145
 k-point 15 :   0.4000 0.2000 0.2500  plane waves:   13134
 k-point 16 :   0.0000 0.4000 0.2500  plane waves:   13119
 k-point 17 :   0.2000 0.4000 0.2500  plane waves:   13134
 k-point 18 :   0.4000 0.4000 0.2500  plane waves:   13108
 k-point 19 :   0.0000-0.4000 0.2500  plane waves:   13119
 k-point 20 :   0.2000-0.4000 0.2500  plane waves:   13134
 k-point 21 :   0.4000-0.4000 0.2500  plane waves:   13108
 k-point 22 :   0.0000-0.2000 0.2500  plane waves:   13149
 k-point 23 :   0.2000-0.2000 0.2500  plane waves:   13145
 k-point 24 :   0.4000-0.2000 0.2500  plane waves:   13134
 k-point 25 :   0.0000 0.0000 0.5000  plane waves:   13186
 k-point 26 :   0.2000 0.0000 0.5000  plane waves:   13124
 k-point 27 :   0.4000 0.0000 0.5000  plane waves:   13152
 k-point 28 :   0.0000 0.2000 0.5000  plane waves:   13124
 k-point 29 :   0.2000 0.2000 0.5000  plane waves:   13136
 k-point 30 :   0.4000 0.2000 0.5000  plane waves:   13128
 k-point 31 :   0.0000 0.4000 0.5000  plane waves:   13152
 k-point 32 :   0.2000 0.4000 0.5000  plane waves:   13128
 k-point 33 :   0.4000 0.4000 0.5000  plane waves:   13112

 maximum and minimum number of plane-waves per node :      3313     3254

 maximum number of plane-waves:     13186
 maximum index in each direction: 
   IXMAX=   13   IYMAX=   13   IZMAX=   17
   IXMIN=  -13   IYMIN=  -13   IZMIN=  -17


 parallel 3D FFT for wavefunctions:
    minimum data exchange during FFTs selected (reduces bandwidth)
 parallel 3D FFT for charge:
    minimum data exchange during FFTs selected (reduces bandwidth)


 total amount of memory used by VASP MPI-rank0  1077308. kBytes
=======================================================================

   base      :      30000. kBytes
   nonl-proj :      34214. kBytes
   fftplans  :      31580. kBytes
   grid      :      21385. kBytes
   one-center:        435. kBytes
   wavefun   :     959694. kBytes
 
     INWAV:  cpu time    0.0000: real time    0.0000
 Broyden mixing: mesh for mixing (old mesh)
   NGX = 27   NGY = 27   NGZ = 35
  (NGX  =108   NGY  =108   NGZ  =140)
  gives a total of  25515 points

 initial charge density was supplied:
 charge density of overlapping atoms calculated
 number of electron     270.0000000 magnetization      21.0000000
 keeping initial charge density in first step


--------------------------------------------------------------------------------------------------------


 Maximum index for augmentation-charges        10967 (set IRDMAX)


--------------------------------------------------------------------------------------------------------


 First call to EWALD:  gamma=   0.199
 Maximum number of real-space cells 3x 3x 2
 Maximum number of reciprocal cells 3x 3x 3

    FEWALD:  cpu time    0.0180: real time    0.0180


--------------------------------------- Iteration      1(   1)  ---------------------------------------


    POTLOK:  cpu time    0.4027: real time    0.4225
    SETDIJ:  cpu time    0.4512: real time    0.4512
    TRIAL :  cpu time   40.0567: real time   40.9342
    CORREC:  cpu time    0.0067: real time    0.0068
    --------------------------------------------
      LOOP:  cpu time   41.2380: real time   42.1448

 eigenvalue-minimisations  : 22968
 total energy-change (2. order) : 0.2035812E+04  (-0.8881886E+04)
 number of electron     270.0000000 magnetization      21.0000000
 augmentation part      270.0000000 magnetization      21.0000000

 Free energy of the ion-electron system (eV)
  ---------------------------------------------------
  alpha Z        PSCENC =       798.38614055
  Ewald energy   TEWEN  =    -12901.57693327
  -Hartree energ DENC   =     -2855.60785864
  -exchange      EXHF   =         0.00000000
  -V(xc)+E(xc)   XCENC  =      -996.20757404
  PAW double counting   =     12741.82587617   -11476.22345381
  entropy T*S    EENTRO =        -0.00457329
  eigenvalues    EBANDS =      4027.54616524
  atomic energy  EATOM  =     12697.67401269
  ---------------------------------------------------
  free energy    TOTEN  =      2035.81180159 eV

  energy without entropy =     2035.81637488  energy(sigma->0) =     2035.81332602


--------------------------------------------------------------------------------------------------------




--------------------------------------- Iteration      1(   2)  ---------------------------------------


    TRIAL :  cpu time   40.5438: real time   41.4768
    CORREC:  cpu time    0.0084: real time    0.0093
    --------------------------------------------
      LOOP:  cpu time   40.5548: real time   41.4897

 eigenvalue-minimisations  : 22968
 total energy-change (2. order) :-0.2131402E+04  (-0.2073246E+04)
 number of electron     270.0000000 magnetization      21.0000000
 augmentation part      270.0000000 magnetization      21.0000000

 Free energy of the ion-electron system (eV)
  ---------------------------------------------------
  alpha Z        PSCENC =       798.38614055
  Ewald energy   TEWEN  =    -12901.57693327
  -Hartree energ DENC   =     -2855.60785864
  -exchange      EXHF   =         0.00000000
  -V(xc)+E(xc)   XCENC  =      -996.20757404
  PAW double counting   =     12741.82587617   -11476.22345381
  entropy T*S    EENTRO =         0.00486573
  eigenvalues    EBANDS =      1896.13491890
  atomic energy  EATOM  =     12697.67401269
  ---------------------------------------------------
  free energy    TOTEN  =       -95.59000573 eV

  energy without entropy =      -95.59487146  energy(sigma->0) =      -95.59162764


--------------------------------------------------------------------------------------------------------




--------------------------------------- Iteration      1(   3)  ---------------------------------------


    TRIAL :  cpu time   56.4467: real time   57.4749
    CORREC:  cpu time    0.0099: real time    0.0108
    --------------------------------------------
      LOOP:  cpu time   56.4574: real time   57.4886

 eigenvalue-minimisations  : 34486
 total energy-change (2. order) :-0.2607710E+03  (-0.2299632E+03)
 number of electron     270.0000000 magnetization      21.0000000
 augmentation part      270.0000000 magnetization      21.0000000

 Free energy of the ion-electron system (eV)
  ---------------------------------------------------
  alpha Z        PSCENC =       798.38614055
  Ewald energy   TEWEN  =    -12901.57693327
  -Hartree energ DENC   =     -2855.60785864
  -exchange      EXHF   =         0.00000000
  -V(xc)+E(xc)   XCENC  =      -996.20757404
  PAW double counting   =     12741.82587617   -11476.22345381
  entropy T*S    EENTRO =         0.00042475
  eigenvalues    EBANDS =      1635.36831186
  atomic energy  EATOM  =     12697.67401269
  ---------------------------------------------------
  free energy    TOTEN  =      -356.36105375 eV

  energy without entropy =     -356.36147850  energy(sigma->0) =     -356.36119533


--------------------------------------------------------------------------------------------------------




--------------------------------------- Iteration      1(   4)  ---------------------------------------


    TRIAL :  cpu time   59.4681: real time   60.5016
    CORREC:  cpu time    0.0104: real time    0.0112
    --------------------------------------------
      LOOP:  cpu time   59.4796: real time   60.5162

 eigenvalue-minimisations  : 37336
 total energy-change (2. order) :-0.4285009E+02  (-0.3754658E+02)
 number of electron     270.0000000 magnetization      21.0000000
 augmentation part      270.0000000 magnetization      21.0000000

 Free energy of the ion-electron system (eV)
  ---------------------------------------------------
  alpha Z        PSCENC =       798.38614055
  Ewald energy   TEWEN  =    -12901.57693327
  -Hartree energ DENC   =     -2855.60785864
  -exchange      EXHF   =         0.00000000
  -V(xc)+E(xc)   XCENC  =      -996.20757404
  PAW double counting   =     12741.82587617   -11476.22345381
  entropy T*S    EENTRO =         0.02346953
  eigenvalues    EBANDS =      1592.49518058
  atomic energy  EATOM  =     12697.67401269
  ---------------------------------------------------
  free energy    TOTEN  =      -399.21114024 eV

  energy without entropy =     -399.23460978  energy(sigma->0) =     -399.21896342


--------------------------------------------------------------------------------------------------------




--------------------------------------- Iteration      1(   5)  ---------------------------------------


    TRIAL :  cpu time   60.0222: real time   61.8008
    CORREC:  cpu time    0.0106: real time    0.0114
    --------------------------------------------
      LOOP:  cpu time   60.0337: real time   61.8153

 eigenvalue-minimisations  : 37920
 total energy-change (2. order) :-0.4410385E+01  (-0.4205357E+01)
 number of electron     270.0000000 magnetization      21.0000000
 augmentation part      270.0000000 magnetization      21.0000000

 Free energy of the ion-electron system (eV)
  ---------------------------------------------------
  alpha Z        PSCENC =       798.38614055
  Ewald energy   TEWEN  =    -12901.57693327
  -Hartree energ DENC   =     -2855.60785864
  -exchange      EXHF   =         0.00000000
  -V(xc)+E(xc)   XCENC  =      -996.20757404
  PAW double counting   =     12741.82587617   -11476.22345381
  entropy T*S    EENTRO =         0.02770018
  eigenvalues    EBANDS =      1588.08056452
  atomic energy  EATOM  =     12697.67401269
  ---------------------------------------------------
  free energy    TOTEN  =      -403.62152566 eV

  energy without entropy =     -403.64922584  energy(sigma->0) =     -403.63075905


--------------------------------------------------------------------------------------------------------




--------------------------------------- Iteration      1(   6)  ---------------------------------------


    TRIAL :  cpu time   60.4782: real time   61.5192
    CORREC:  cpu time    0.0105: real time    0.0114
    --------------------------------------------
      LOOP:  cpu time   60.4918: real time   61.5340

 eigenvalue-minimisations  : 37800
 total energy-change (2. order) :-0.3665195E+00  (-0.3591340E+00)
 number of electron     270.0000000 magnetization      21.0000000
 augmentation part      270.0000000 magnetization      21.0000000

 Free energy of the ion-electron system (eV)
  ---------------------------------------------------
  alpha Z        PSCENC =       798.38614055
  Ewald energy   TEWEN  =    -12901.57693327
  -Hartree energ DENC   =     -2855.60785864
  -exchange      EXHF   =         0.00000000
  -V(xc)+E(xc)   XCENC  =      -996.20757404
  PAW double counting   =     12741.82587617   -11476.22345381
  entropy T*S    EENTRO =         0.02898809
  eigenvalues    EBANDS =      1587.71275707
  atomic energy  EATOM  =     12697.67401269
  ---------------------------------------------------
  free energy    TOTEN  =      -403.98804520 eV

  energy without entropy =     -404.01703329  energy(sigma->0) =     -403.99770790


--------------------------------------------------------------------------------------------------------




--------------------------------------- Iteration      1(   7)  ---------------------------------------


    TRIAL :  cpu time   61.1760: real time   62.1897
    CORREC:  cpu time    0.0107: real time    0.0116
    --------------------------------------------
      LOOP:  cpu time   61.1882: real time   62.2049

 eigenvalue-minimisations  : 38568
 total energy-change (2. order) :-0.4067139E-01  (-0.4029746E-01)
 number of electron     270.0000000 magnetization      21.0000000
 augmentation part      270.0000000 magnetization      21.0000000

 Free energy of the ion-electron system (eV)
  ---------------------------------------------------
  alpha Z        PSCENC =       798.38614055
  Ewald energy   TEWEN  =    -12901.57693327
  -Hartree energ DENC   =     -2855.60785864
  -exchange      EXHF   =         0.00000000
  -V(xc)+E(xc)   XCENC  =      -996.20757404
  PAW double counting   =     12741.82587617   -11476.22345381
  entropy T*S    EENTRO =         0.02935574
  eigenvalues    EBANDS =      1587.67171803
  atomic energy  EATOM  =     12697.67401269
  ---------------------------------------------------
  free energy    TOTEN  =      -404.02871659 eV

  energy without entropy =     -404.05807233  energy(sigma->0) =     -404.03850184


--------------------------------------------------------------------------------------------------------




--------------------------------------- Iteration      1(   8)  ---------------------------------------


    TRIAL :  cpu time   58.8187: real time   59.8262
    CORREC:  cpu time    0.0109: real time    0.0110
    CHARGE:  cpu time    1.8338: real time    1.8439
    --------------------------------------------
      LOOP:  cpu time   60.6649: real time   61.6856

 eigenvalue-minimisations  : 37040
 total energy-change (2. order) :-0.3108094E-02  (-0.3090404E-02)
 number of electron     269.9999995 magnetization      15.1460582
 augmentation part       64.1897981 magnetization       8.7410980

 Free energy of the ion-electron system (eV)
  ---------------------------------------------------
  alpha Z        PSCENC =       798.38614055
  Ewald energy   TEWEN  =    -12901.57693327
  -Hartree energ DENC   =     -2855.60785864
  -exchange      EXHF   =         0.00000000
  -V(xc)+E(xc)   XCENC  =      -996.20757404
  PAW double counting   =     12741.82587617   -11476.22345381
  entropy T*S    EENTRO =         0.02941568
  eigenvalues    EBANDS =      1587.66854999
  atomic energy  EATOM  =     12697.67401269
  ---------------------------------------------------
  free energy    TOTEN  =      -404.03182469 eV

  energy without entropy =     -404.06124037  energy(sigma->0) =     -404.04162991


--------------------------------------------------------------------------------------------------------




--------------------------------------- Iteration      1(   9)  ---------------------------------------


    POTLOK:  cpu time    0.3976: real time    0.3975
    SETDIJ:  cpu time    0.4620: real time    0.4861
    TRIAL :  cpu time   20.3798: real time   20.5485
    CORREC:  cpu time    6.9486: real time    6.9676
    CHARGE:  cpu time    1.8067: real time    1.8066
    --------------------------------------------
      LOOP:  cpu time   29.9968: real time   30.2086

 eigenvalue-minimisations  :     0
 total energy-change (2. order) : 0.3009723E+03  (-0.2167246E+03)
 number of electron     269.9999993 magnetization      15.8392673
 augmentation part       82.3800987 magnetization      10.3843684

 Free energy of the ion-electron system (eV)
  ---------------------------------------------------
  alpha Z        PSCENC =       798.38614055
  Ewald energy   TEWEN  =    -12901.57693327
  -Hartree energ DENC   =     -1273.76223205
  -exchange      EXHF   =         0.00000000
  -V(xc)+E(xc)   XCENC  =     -1041.66480728
  PAW double counting   =     19167.60879057   -17748.19349625
  entropy T*S    EENTRO =         0.03248429
  eigenvalues    EBANDS =       198.43958467
  atomic energy  EATOM  =     12697.67401269
  ---------------------------------------------------
  free energy    TOTEN  =      -103.05952469 eV

  energy without entropy =     -103.09200898  energy(sigma->0) =     -103.07035279


--------------------------------------------------------------------------------------------------------




--------------------------------------- Iteration      1(  10)  ---------------------------------------


    POTLOK:  cpu time    0.3916: real time    0.3917
    SETDIJ:  cpu time    0.5112: real time    0.5112
    TRIAL :  cpu time   20.3143: real time   21.8765
    CORREC:  cpu time    6.1306: real time    6.1336
    CHARGE:  cpu time    1.8208: real time    1.8554
    --------------------------------------------
      LOOP:  cpu time   29.1726: real time   30.7738

 eigenvalue-minimisations  :     0
 total energy-change (2. order) :-0.2145683E+03  (-0.1296139E+02)
 number of electron     269.9999993 magnetization      16.1927536
 augmentation part       86.7781526 magnetization      10.9604583

 Free energy of the ion-electron system (eV)
  ---------------------------------------------------
  alpha Z        PSCENC =       798.38614055
  Ewald energy   TEWEN  =    -12901.57693327
  -Hartree energ DENC   =     -2101.65736274
  -exchange      EXHF   =         0.00000000
  -V(xc)+E(xc)   XCENC  =     -1012.69873500
  PAW double counting   =     20626.82970228   -19387.31738584
  entropy T*S    EENTRO =         0.02640162
  eigenvalues    EBANDS =       962.70026793
  atomic energy  EATOM  =     12697.67401269
  ---------------------------------------------------
  free energy    TOTEN  =      -317.62780912 eV

  energy without entropy =     -317.65421074  energy(sigma->0) =     -317.63660966


--------------------------------------------------------------------------------------------------------




--------------------------------------- Iteration      1(  11)  ---------------------------------------


    POTLOK:  cpu time    0.3933: real time    0.4033
    SETDIJ:  cpu time    0.5094: real time    0.5094
    TRIAL :  cpu time   20.3478: real time   20.4911
    CORREC:  cpu time    6.5613: real time    6.5877
    CHARGE:  cpu time    1.8388: real time    1.8388
    --------------------------------------------
      LOOP:  cpu time   29.6520: real time   29.8326

 eigenvalue-minimisations  :     0
 total energy-change (2. order) :-0.1247042E+02  (-0.1023056E+02)
 number of electron     269.9999992 magnetization      16.5046914
 augmentation part       88.8521601 magnetization      11.2864265

 Free energy of the ion-electron system (eV)
  ---------------------------------------------------
  alpha Z        PSCENC =       798.38614055
  Ewald energy   TEWEN  =    -12901.57693327
  -Hartree energ DENC   =     -2362.01149079
  -exchange      EXHF   =         0.00000000
  -V(xc)+E(xc)   XCENC  =     -1003.26202957
  PAW double counting   =     21645.84657358   -20450.18141922
  entropy T*S    EENTRO =         0.00768158
  eigenvalues    EBANDS =      1245.00051313
  atomic energy  EATOM  =     12697.67401269
  ---------------------------------------------------
  free energy    TOTEN  =      -330.09823128 eV

  energy without entropy =     -330.10591286  energy(sigma->0) =     -330.10079181


--------------------------------------------------------------------------------------------------------




--------------------------------------- Iteration      1(  12)  ---------------------------------------


    POTLOK:  cpu time    0.3924: real time    0.3924
    SETDIJ:  cpu time    0.4741: real time    0.4979
    TRIAL :  cpu time   21.0370: real time   21.9103
    CORREC:  cpu time    6.1063: real time    6.1078
    CHARGE:  cpu time    1.8163: real time    1.8829
    --------------------------------------------
      LOOP:  cpu time   29.8328: real time   30.7983

 eigenvalue-minimisations  :     0
 total energy-change (2. order) :-0.1031870E+02  (-0.1163392E+02)
 number of electron     269.9999993 magnetization      16.4733431
 augmentation part       87.1308326 magnetization      11.3197920

 Free energy of the ion-electron system (eV)
  ---------------------------------------------------
  alpha Z        PSCENC =       798.38614055
  Ewald energy   TEWEN  =    -12901.57693327
  -Hartree energ DENC   =     -2539.62720458
  -exchange      EXHF   =         0.00000000
  -V(xc)+E(xc)   XCENC  =      -997.32326170
  PAW double counting   =     21797.68318703   -20609.56506576
  entropy T*S    EENTRO =        -0.00664122
  eigenvalues    EBANDS =      1413.92450882
  atomic energy  EATOM  =     12697.67401269
  ---------------------------------------------------
  free energy    TOTEN  =      -340.41693464 eV

  energy without entropy =     -340.41029342  energy(sigma->0) =     -340.41472090


--------------------------------------------------------------------------------------------------------




--------------------------------------- Iteration      1(  13)  ---------------------------------------


    POTLOK:  cpu time    0.3921: real time    0.3921
    SETDIJ:  cpu time    0.5027: real time    0.5026
    TRIAL :  cpu time   20.3643: real time   20.5038
    CORREC:  cpu time    6.6834: real time    6.7044
    CHARGE:  cpu time    1.8313: real time    1.8651
    --------------------------------------------
      LOOP:  cpu time   29.7749: real time   29.9701

 eigenvalue-minimisations  :     0
 total energy-change (2. order) :-0.1153743E+02  (-0.1164232E+01)
 number of electron     269.9999993 magnetization      16.5419570
 augmentation part       86.5101758 magnetization      11.3492005

 Free energy of the ion-electron system (eV)
  ---------------------------------------------------
  alpha Z        PSCENC =       798.38614055
  Ewald energy   TEWEN  =    -12901.57693327
  -Hartree energ DENC   =     -2537.82959282
  -exchange      EXHF   =         0.00000000
  -V(xc)+E(xc)   XCENC  =      -998.25660435
  PAW double counting   =     21265.79952233   -20032.20367624
  entropy T*S    EENTRO =        -0.01262580
  eigenvalues    EBANDS =      1356.05940441
  atomic energy  EATOM  =     12697.67401269
  ---------------------------------------------------
  free energy    TOTEN  =      -351.95436792 eV

  energy without entropy =     -351.94174212  energy(sigma->0) =     -351.95015932


--------------------------------------------------------------------------------------------------------




--------------------------------------- Iteration      1(  14)  ---------------------------------------


    POTLOK:  cpu time    0.3932: real time    0.3932
    SETDIJ:  cpu time    0.4579: real time    0.4579
    TRIAL :  cpu time   21.6836: real time   21.8475
    CORREC:  cpu time    6.1031: real time    6.1145
    CHARGE:  cpu time    1.8315: real time    1.8590
    --------------------------------------------
      LOOP:  cpu time   30.4735: real time   30.6768

 eigenvalue-minimisations  :     0
 total energy-change (2. order) :-0.1032570E+01  (-0.1114686E+01)
 number of electron     269.9999993 magnetization      16.4880994
 augmentation part       85.8173301 magnetization      11.2176989

 Free energy of the ion-electron system (eV)
  ---------------------------------------------------
  alpha Z        PSCENC =       798.38614055
  Ewald energy   TEWEN  =    -12901.57693327
  -Hartree energ DENC   =     -2509.24918533
  -exchange      EXHF   =         0.00000000
  -V(xc)+E(xc)   XCENC  =      -999.30875783
  PAW double counting   =     21041.80545724   -19797.99583644
  entropy T*S    EENTRO =        -0.01622345
  eigenvalues    EBANDS =      1317.29079063
  atomic energy  EATOM  =     12697.67401269
  ---------------------------------------------------
  free energy    TOTEN  =      -352.98693756 eV

  energy without entropy =     -352.97071411  energy(sigma->0) =     -352.98152974


--------------------------------------------------------------------------------------------------------




--------------------------------------- Iteration      1(  15)  ---------------------------------------


    POTLOK:  cpu time    0.3924: real time    0.3924
    SETDIJ:  cpu time    0.4779: real time    0.4779
    TRIAL :  cpu time   20.7369: real time   20.9109
    CORREC:  cpu time    6.0869: real time    6.0963
    CHARGE:  cpu time    1.8228: real time    1.8494
    --------------------------------------------
      LOOP:  cpu time   29.5200: real time   29.7322

 eigenvalue-minimisations  :     0
 total energy-change (2. order) :-0.1114179E+01  (-0.8912099E+00)
 number of electron     269.9999992 magnetization      16.5859440
 augmentation part       86.5018304 magnetization      11.2485488

 Free energy of the ion-electron system (eV)
  ---------------------------------------------------
  alpha Z        PSCENC =       798.38614055
  Ewald energy   TEWEN  =    -12901.57693327
  -Hartree energ DENC   =     -2464.60922080
  -exchange      EXHF   =         0.00000000
  -V(xc)+E(xc)   XCENC  =     -1000.90477536
  PAW double counting   =     20384.79009395   -19128.36706392
  entropy T*S    EENTRO =        -0.01913189
  eigenvalues    EBANDS =      1260.52285342
  atomic energy  EATOM  =     12697.67401269
  ---------------------------------------------------
  free energy    TOTEN  =      -354.10111619 eV

  energy without entropy =     -354.08198431  energy(sigma->0) =     -354.09473890


--------------------------------------------------------------------------------------------------------




--------------------------------------- Iteration      1(  16)  ---------------------------------------


    POTLOK:  cpu time    0.3921: real time    0.3921
    SETDIJ:  cpu time    0.4578: real time    0.4579
    TRIAL :  cpu time   21.0143: real time   21.8060
    CORREC:  cpu time    6.1060: real time    6.1303
    CHARGE:  cpu time    1.8405: real time    1.8503
    --------------------------------------------
      LOOP:  cpu time   29.8156: real time   30.6416

 eigenvalue-minimisations  :     0
 total energy-change (2. order) :-0.8895601E+00  (-0.3432988E+00)
 number of electron     269.9999992 magnetization      16.5051766
 augmentation part       86.9811097 magnetization      11.2331172

 Free energy of the ion-electron system (eV)
  ---------------------------------------------------
  alpha Z        PSCENC =       798.38614055
  Ewald energy   TEWEN  =    -12901.57693327
  -Hartree energ DENC   =     -2487.15159492
  -exchange      EXHF   =         0.00000000
  -V(xc)+E(xc)   XCENC  =      -999.94887161
  PAW double counting   =     19867.40440223   -18615.11305630
  entropy T*S    EENTRO =        -0.02163757
  eigenvalues    EBANDS =      1285.35435626
  atomic energy  EATOM  =     12697.67401269
  ---------------------------------------------------
  free energy    TOTEN  =      -354.99067625 eV

  energy without entropy =     -354.96903868  energy(sigma->0) =     -354.98346373


--------------------------------------------------------------------------------------------------------




--------------------------------------- Iteration      1(  17)  ---------------------------------------


    POTLOK:  cpu time    0.3925: real time    0.3925
    SETDIJ:  cpu time    0.4584: real time    0.4585
    TRIAL :  cpu time   20.7544: real time   20.9263
    CORREC:  cpu time    6.1116: real time    6.1205
    CHARGE:  cpu time    1.8327: real time    1.8517
    --------------------------------------------
      LOOP:  cpu time   29.5516: real time   29.7521

 eigenvalue-minimisations  :     0
 total energy-change (2. order) :-0.3460181E+00  (-0.2013735E+00)
 number of electron     269.9999992 magnetization      16.4581611
 augmentation part       87.1899899 magnetization      11.2745032

 Free energy of the ion-electron system (eV)
  ---------------------------------------------------
  alpha Z        PSCENC =       798.38614055
  Ewald energy   TEWEN  =    -12901.57693327
  -Hartree energ DENC   =     -2505.88656877
  -exchange      EXHF   =         0.00000000
  -V(xc)+E(xc)   XCENC  =      -999.15852776
  PAW double counting   =     19693.26787884   -18445.19455146
  entropy T*S    EENTRO =        -0.02421823
  eigenvalues    EBANDS =      1307.17349238
  atomic energy  EATOM  =     12697.67401269
  ---------------------------------------------------
  free energy    TOTEN  =      -355.33669437 eV

  energy without entropy =     -355.31247613  energy(sigma->0) =     -355.32862162


--------------------------------------------------------------------------------------------------------




--------------------------------------- Iteration      1(  18)  ---------------------------------------


    POTLOK:  cpu time    0.3930: real time    0.3930
    SETDIJ:  cpu time    0.4460: real time    0.4567
    TRIAL :  cpu time   20.2363: real time   21.8388
    CORREC:  cpu time    6.1137: real time    6.1564
    CHARGE:  cpu time    1.8463: real time    1.8669
    --------------------------------------------
      LOOP:  cpu time   29.0545: real time   30.7318

 eigenvalue-minimisations  :     0
 total energy-change (2. order) :-0.2013144E+00  (-0.2079063E+00)
 number of electron     269.9999992 magnetization      16.4184010
 augmentation part       87.2043090 magnetization      11.3050890

 Free energy of the ion-electron system (eV)
  ---------------------------------------------------
  alpha Z        PSCENC =       798.38614055
  Ewald energy   TEWEN  =    -12901.57693327
  -Hartree energ DENC   =     -2512.40213758
  -exchange      EXHF   =         0.00000000
  -V(xc)+E(xc)   XCENC  =      -998.68922129
  PAW double counting   =     19602.10232658   -18356.25684612
  entropy T*S    EENTRO =        -0.02447632
  eigenvalues    EBANDS =      1315.24886792
  atomic energy  EATOM  =     12697.67401269
  ---------------------------------------------------
  free energy    TOTEN  =      -355.53800875 eV

  energy without entropy =     -355.51353243  energy(sigma->0) =     -355.52984998


--------------------------------------------------------------------------------------------------------




--------------------------------------- Iteration      1(  19)  ---------------------------------------


    POTLOK:  cpu time    0.3923: real time    0.3924
    SETDIJ:  cpu time    0.4580: real time    0.4580
    TRIAL :  cpu time   20.7738: real time   20.9527
    CORREC:  cpu time    6.1153: real time    6.1243
    CHARGE:  cpu time    1.8445: real time    1.8581
    --------------------------------------------
      LOOP:  cpu time   29.5876: real time   29.7897

 eigenvalue-minimisations  :     0
 total energy-change (2. order) :-0.2085854E+00  (-0.7398808E-01)
 number of electron     269.9999992 magnetization      16.4531628
 augmentation part       87.0476748 magnetization      11.3446987

 Free energy of the ion-electron system (eV)
  ---------------------------------------------------
  alpha Z        PSCENC =       798.38614055
  Ewald energy   TEWEN  =    -12901.57693327
  -Hartree energ DENC   =     -2508.84881891
  -exchange      EXHF   =         0.00000000
  -V(xc)+E(xc)   XCENC  =      -998.53156778
  PAW double counting   =     19519.86040868   -18274.26444467
  entropy T*S    EENTRO =        -0.02567471
  eigenvalues    EBANDS =      1311.57908485
  atomic energy  EATOM  =     12697.67401269
  ---------------------------------------------------
  free energy    TOTEN  =      -355.74659419 eV

  energy without entropy =     -355.72091948  energy(sigma->0) =     -355.73803595


--------------------------------------------------------------------------------------------------------




--------------------------------------- Iteration      1(  20)  ---------------------------------------


    POTLOK:  cpu time    0.3860: real time    0.4023
    SETDIJ:  cpu time    0.4489: real time    0.4490
    TRIAL :  cpu time   21.0323: real time   21.8544
    CORREC:  cpu time    6.1018: real time    6.1391
    CHARGE:  cpu time    1.8427: real time    1.8428
    --------------------------------------------
      LOOP:  cpu time   29.8272: real time   30.7057

 eigenvalue-minimisations  :     0
 total energy-change (2. order) :-0.7369603E-01  (-0.5427697E-01)
 number of electron     269.9999992 magnetization      16.4114804
 augmentation part       86.8561709 magnetization      11.3515399

 Free energy of the ion-electron system (eV)
  ---------------------------------------------------
  alpha Z        PSCENC =       798.38614055
  Ewald energy   TEWEN  =    -12901.57693327
  -Hartree energ DENC   =     -2499.87338497
  -exchange      EXHF   =         0.00000000
  -V(xc)+E(xc)   XCENC  =      -998.72207804
  PAW double counting   =     19489.73613282   -18242.58768782
  entropy T*S    EENTRO =        -0.02623574
  eigenvalues    EBANDS =      1301.16918253
  atomic energy  EATOM  =     12697.67401269
  ---------------------------------------------------
  free energy    TOTEN  =      -355.82029022 eV

  energy without entropy =     -355.79405448  energy(sigma->0) =     -355.81154497


--------------------------------------------------------------------------------------------------------




--------------------------------------- Iteration      1(  21)  ---------------------------------------


    POTLOK:  cpu time    0.3920: real time    0.3925
    SETDIJ:  cpu time    0.4599: real time    0.4605
    TRIAL :  cpu time   20.9302: real time   21.0597
    CORREC:  cpu time    6.0989: real time    6.1095
    CHARGE:  cpu time    1.8439: real time    1.8516
    --------------------------------------------
      LOOP:  cpu time   29.7361: real time   29.8863

 eigenvalue-minimisations  :     0
 total energy-change (2. order) :-0.5424254E-01  (-0.5058604E-01)
 number of electron     269.9999992 magnetization      16.4380917
 augmentation part       86.7983625 magnetization      11.3962622

 Free energy of the ion-electron system (eV)
  ---------------------------------------------------
  alpha Z        PSCENC =       798.38614055
  Ewald energy   TEWEN  =    -12901.57693327
  -Hartree energ DENC   =     -2490.96014579
  -exchange      EXHF   =         0.00000000
  -V(xc)+E(xc)   XCENC  =      -998.93724622
  PAW double counting   =     19474.05586339   -18225.09802076
  entropy T*S    EENTRO =        -0.02753628
  eigenvalues    EBANDS =      1290.60803240
  atomic energy  EATOM  =     12697.67401269
  ---------------------------------------------------
  free energy    TOTEN  =      -355.87453275 eV

  energy without entropy =     -355.84699647  energy(sigma->0) =     -355.86535399


--------------------------------------------------------------------------------------------------------




--------------------------------------- Iteration      1(  22)  ---------------------------------------


    POTLOK:  cpu time    0.3926: real time    0.3926
    SETDIJ:  cpu time    0.4754: real time    0.4753
    TRIAL :  cpu time   20.9866: real time   21.8262
    CORREC:  cpu time    6.1362: real time    6.1743
    CHARGE:  cpu time    1.8376: real time    1.8375
    --------------------------------------------
      LOOP:  cpu time   29.8313: real time   30.7095

 eigenvalue-minimisations  :     0
 total energy-change (2. order) :-0.5045498E-01  (-0.4425810E-01)
 number of electron     269.9999992 magnetization      16.4408453
 augmentation part       86.8985577 magnetization      11.4267546

 Free energy of the ion-electron system (eV)
  ---------------------------------------------------
  alpha Z        PSCENC =       798.38614055
  Ewald energy   TEWEN  =    -12901.57693327
  -Hartree energ DENC   =     -2490.07331872
  -exchange      EXHF   =         0.00000000
  -V(xc)+E(xc)   XCENC  =      -998.85853824
  PAW double counting   =     19478.65721921   -18229.47964500
  entropy T*S    EENTRO =        -0.02801508
  eigenvalues    EBANDS =      1289.37361133
  atomic energy  EATOM  =     12697.67401269
  ---------------------------------------------------
  free energy    TOTEN  =      -355.92498773 eV

  energy without entropy =     -355.89697265  energy(sigma->0) =     -355.91564937


--------------------------------------------------------------------------------------------------------




--------------------------------------- Iteration      1(  23)  ---------------------------------------


    POTLOK:  cpu time    0.3929: real time    0.3929
    SETDIJ:  cpu time    0.4779: real time    0.4779
    TRIAL :  cpu time   20.8293: real time   20.9958
    CORREC:  cpu time    6.1342: real time    6.1499
    CHARGE:  cpu time    1.8381: real time    1.8456
    --------------------------------------------
      LOOP:  cpu time   29.6784: real time   29.8682

 eigenvalue-minimisations  :     0
 total energy-change (2. order) :-0.4430519E-01  (-0.1675731E-01)
 number of electron     269.9999992 magnetization      16.4306699
 augmentation part       86.9663011 magnetization      11.4375314

 Free energy of the ion-electron system (eV)
  ---------------------------------------------------
  alpha Z        PSCENC =       798.38614055
[...]
   45       -0.021  -0.025  -2.360  -2.405
   46       -0.023  -0.019  -2.390  -2.433
   47        0.014   0.019   2.250   2.283
   48       -0.015  -0.011  -2.327  -2.354
   49        0.022   0.020   2.393   2.435
   50        0.019   0.018   2.377   2.414
   51       -0.011  -0.013  -2.238  -2.262
   52        0.020   0.024   2.361   2.405
   53        0.017   0.022   2.353   2.392
   54       -0.021  -0.025  -2.360  -2.406
--------------------------------------------------
tot         -0.014  -0.086  16.091  15.991
 
    FORLOC:  cpu time    0.0583: real time    0.0583
    FORNL :  cpu time   30.5144: real time   30.7299
    STRESS:  cpu time   41.7570: real time   42.6829
    FORCOR:  cpu time    0.4387: real time    0.4386
    OFIELD:  cpu time    0.0021: real time    0.0021

  FORCE on cell =-STRESS in cart. coord.  units (eV):
  Direction    XX          YY          ZZ          XY          YZ          ZX
  --------------------------------------------------------------------------------------
  Alpha Z   798.38614   798.38614   798.38614
  Ewald   -4053.61603 -4053.61603 -4794.40593    -0.00000    -0.00000    -0.00000
  Hartree  1084.62849  1083.17631   333.54341    -0.00000    -0.13158    -0.00000
  E(xc)   -1141.42910 -1141.16494 -1139.87844     0.00000     0.02810     0.00000
  Local     367.99441   371.41985  1903.15842    -0.00000     0.38323    -0.00000
  n-local  -170.05515  -169.52402  -176.70442     0.13838     0.12649    -0.28296
  augment   784.59781   783.49996   768.33764     0.00000    -0.13940     0.00001
  Kinetic  2336.26041  2333.73768  2310.18243    -1.15997    -0.43935    -1.30292
  Fock        0.00000     0.00000     0.00000     0.00000     0.00000     0.00000
  -------------------------------------------------------------------------------------
  Total       6.76699     5.91495     2.61926     0.00000    -0.17251     0.00000
  in kB      15.27221    13.34927     5.91132     0.00000    -0.38932     0.00000
  external pressure =       11.51 kB  Pullay stress =        0.00 kB


 VOLUME and BASIS-vectors are now :
 -----------------------------------------------------------------------------
  energy-cutoff  :      404.80
  volume of cell :      709.91
      direct lattice vectors                 reciprocal lattice vectors
     8.250148166  0.000000000  0.000000000     0.121209944  0.000000000  0.000000000
     0.000000000  8.250148166  0.000000000     0.000000000  0.121209944  0.000000000
     0.000000000  0.000000000 10.429911392     0.000000000  0.000000000  0.095878092

  length of vectors
     8.250148166  8.250148166 10.429911392     0.121209944  0.121209944  0.095878092


 FORCES acting on ions:
    Electron-Ion                     Ewald-Force                    Non-Local-Force
 -----------------------------------------------------------------------------------------------
   0.350E-01 0.317E-02 -.599E-01   -.239E-08 -.239E-08 -.210E-08   0.196E-01 -.968E-02 0.351E-01
   0.715E-01 -.341E-01 0.293E-01   -.239E-08 -.239E-08 0.171E-08   0.968E-02 -.132E-02 -.103E-02
   -.778E-01 0.968E-01 0.266E-01   -.239E-08 -.239E-08 0.861E-08   0.764E-01 -.808E-01 -.278E-01
   0.159E+00 0.113E+00 -.139E+00   -.239E-08 -.802E-09 -.210E-08   -.750E-01 -.856E-01 0.436E-01
   0.775E-01 0.199E-01 0.234E-01   -.239E-08 -.802E-09 0.171E-08   0.249E-01 0.203E-01 0.107E-01
   0.135E-01 -.544E-02 0.699E-01   -.239E-08 -.802E-09 0.861E-08   -.708E-02 -.316E-02 -.240E-01
   -.123E+00 -.133E+00 -.165E-01   -.239E-08 0.631E-08 -.210E-08   0.109E+00 0.114E+00 0.761E-01
   -.167E-01 -.470E-02 0.223E-01   -.239E-08 0.631E-08 0.171E-08   -.148E-01 -.429E-02 -.679E-01
   -.847E-01 -.945E-01 0.659E-01   -.239E-08 0.631E-08 0.861E-08   0.820E-01 0.940E-01 -.626E-01
   -.350E-01 0.317E-02 -.599E-01   -.802E-09 -.239E-08 -.210E-08   -.196E-01 -.968E-02 0.351E-01
   -.715E-01 -.341E-01 0.293E-01   -.802E-09 -.239E-08 0.171E-08   -.968E-02 -.132E-02 -.103E-02
   0.778E-01 0.968E-01 0.266E-01   -.803E-09 -.239E-08 0.861E-08   -.764E-01 -.808E-01 -.278E-01
   -.159E+00 0.113E+00 -.139E+00   -.802E-09 -.802E-09 -.210E-08   0.750E-01 -.856E-01 0.436E-01
   -.775E-01 0.199E-01 0.234E-01   -.802E-09 -.802E-09 0.171E-08   -.249E-01 0.203E-01 0.107E-01
   -.135E-01 -.544E-02 0.699E-01   -.803E-09 -.802E-09 0.861E-08   0.708E-02 -.316E-02 -.240E-01
   0.123E+00 -.133E+00 -.165E-01   -.802E-09 0.631E-08 -.210E-08   -.109E+00 0.114E+00 0.761E-01
   0.167E-01 -.470E-02 0.223E-01   -.802E-09 0.631E-08 0.171E-08   0.148E-01 -.429E-02 -.679E-01
   0.847E-01 -.945E-01 0.659E-01   -.803E-09 0.631E-08 0.861E-08   -.820E-01 0.940E-01 -.626E-01
   -.327E-08 -.895E-01 -.641E-01   0.631E-08 -.239E-08 -.210E-08   0.000E+00 0.171E+00 -.177E-01
   -.328E-08 0.573E-01 0.354E-01   0.631E-08 -.239E-08 0.171E-08   0.000E+00 -.512E-01 0.528E-01
   -.329E-08 -.162E-02 -.256E-01   0.631E-08 -.239E-08 0.861E-08   0.000E+00 0.213E-02 0.150E-01
   -.328E-08 0.691E-01 -.636E-01   0.631E-08 -.802E-09 -.210E-08   0.000E+00 -.188E+00 -.423E-01
   -.328E-08 -.814E-01 0.101E-01   0.631E-08 -.802E-09 0.171E-08   0.000E+00 0.519E-01 0.386E-01
   -.329E-08 0.177E-01 -.178E-02   0.631E-08 -.802E-09 0.861E-08   0.000E+00 -.184E-01 0.451E-01
   -.329E-08 0.168E-01 -.514E-01   0.631E-08 0.631E-08 -.210E-08   0.000E+00 -.765E-02 0.222E-01
   -.329E-08 0.247E-01 0.314E-02   0.631E-08 0.631E-08 0.171E-08   0.000E+00 -.945E-02 -.283E-01
   -.329E-08 0.581E-02 0.186E+00   0.631E-08 0.631E-08 0.861E-08   0.000E+00 -.761E-02 -.823E-01
   0.474E-08 0.602E-01 0.177E+00   -.169E-07 -.169E-07 -.180E-07   0.000E+00 -.690E-01 -.134E+00
   0.485E-08 0.617E-01 -.123E+00   -.169E-07 -.169E-07 -.170E-08   0.000E+00 -.237E-01 0.941E-01
   0.488E-08 0.359E+00 -.327E+00   -.169E-07 -.169E-07 0.115E-07   0.000E+00 -.209E+00 0.439E+00
   0.487E-08 -.250E+00 0.295E-01   -.169E-07 0.802E-09 -.180E-07   0.000E+00 0.237E+00 -.517E-01
   0.484E-08 -.112E+00 -.265E-01   -.169E-07 0.802E-09 -.170E-08   0.000E+00 0.136E+00 0.668E-01
   0.489E-08 -.358E+00 0.393E-01   -.169E-07 0.802E-09 0.115E-07   0.000E+00 0.175E+00 -.719E-01
   0.481E-08 0.177E+00 -.150E+00   -.169E-07 0.130E-07 -.180E-07   0.000E+00 -.171E+00 0.158E+00
   0.480E-08 0.535E-01 0.196E+00   -.169E-07 0.130E-07 -.170E-08   0.000E+00 -.103E+00 -.150E+00
   0.472E-08 -.452E-01 -.177E+00   -.169E-07 0.130E-07 0.115E-07   0.000E+00 0.921E-01 0.189E+00
   0.597E+00 0.711E-01 -.164E+00   0.802E-09 -.169E-07 -.180E-07   -.284E+00 -.723E-01 0.137E+00
   0.714E-01 -.286E-01 0.150E+00   0.802E-09 -.169E-07 -.170E-08   0.696E-04 0.258E-01 -.130E+00
   -.854E-01 -.919E-01 0.196E+00   0.802E-09 -.169E-07 0.115E-07   0.335E-01 0.839E-01 -.348E+00
   -.552E-01 0.307E+00 0.830E-01   0.802E-09 0.802E-09 -.180E-07   0.397E-01 -.130E+00 -.123E+00
   -.356E-01 -.615E-03 -.673E-01   0.802E-09 0.802E-09 -.170E-08   -.617E-02 -.365E-02 0.152E+00
   -.594E-01 0.113E+00 -.911E-01   0.802E-09 0.802E-09 0.115E-07   0.927E-01 -.869E-01 0.928E-01
   0.209E-01 -.294E+00 0.819E-01   0.802E-09 0.130E-07 -.180E-07   -.259E-01 0.140E+00 -.931E-01
   0.576E-01 0.284E-01 -.803E-01   0.802E-09 0.130E-07 -.170E-08   -.536E-01 -.231E-01 0.835E-01
   0.343E+00 -.437E-01 -.111E+00   0.802E-09 0.130E-07 0.115E-07   -.183E+00 0.180E-01 0.130E+00
   -.597E+00 0.711E-01 -.164E+00   0.130E-07 -.169E-07 -.180E-07   0.284E+00 -.723E-01 0.137E+00
   -.714E-01 -.286E-01 0.150E+00   0.130E-07 -.169E-07 -.170E-08   -.696E-04 0.258E-01 -.130E+00
   0.854E-01 -.919E-01 0.196E+00   0.130E-07 -.169E-07 0.115E-07   -.335E-01 0.839E-01 -.348E+00
   0.552E-01 0.307E+00 0.830E-01   0.130E-07 0.802E-09 -.180E-07   -.397E-01 -.130E+00 -.123E+00
   0.356E-01 -.615E-03 -.673E-01   0.130E-07 0.802E-09 -.170E-08   0.617E-02 -.365E-02 0.152E+00
   0.594E-01 0.113E+00 -.911E-01   0.130E-07 0.802E-09 0.115E-07   -.927E-01 -.869E-01 0.928E-01
   -.209E-01 -.294E+00 0.819E-01   0.130E-07 0.130E-07 -.180E-07   0.259E-01 0.140E+00 -.931E-01
   -.576E-01 0.284E-01 -.803E-01   0.130E-07 0.130E-07 -.170E-08   0.536E-01 -.231E-01 0.835E-01
   -.343E+00 -.437E-01 -.111E+00   0.130E-07 0.130E-07 0.115E-07   0.183E+00 0.180E-01 0.130E+00
 -----------------------------------------------------------------------------------------------
   -.406E-07 0.459E-02 -.309E+00   -.614E-13 -.142E-13 0.128E-13   -.278E-16 -.459E-02 0.309E+00
 
 
 POSITION                                       TOTAL-FORCE (eV/Angst)
 -----------------------------------------------------------------------------------
      0.00000      0.00000      0.00000         0.053461     -0.005659     -0.027993
      0.00000      0.00000      3.47664         0.079797     -0.034593      0.027189
      0.00000      0.00000      6.95327        -0.007648      0.022767      0.002594
      0.00000      2.75005      0.00000         0.091409      0.034851     -0.098836
      0.00000      2.75005      3.47664         0.100377      0.037920      0.031949
      0.00000      2.75005      6.95327         0.007506     -0.008326      0.048549
      0.00000      5.50010      0.00000        -0.023540     -0.028267      0.052537
      0.00000      5.50010      3.47664        -0.031018     -0.008959     -0.040145
      0.00000      5.50010      6.95327        -0.009489     -0.008215      0.010108
      2.75005      0.00000      0.00000        -0.053461     -0.005659     -0.027993
      2.75005      0.00000      3.47664        -0.079797     -0.034593      0.027189
      2.75005      0.00000      6.95327         0.007648      0.022767      0.002594
      2.75005      2.75005      0.00000        -0.091409      0.034851     -0.098836
      2.75005      2.75005      3.47664        -0.100377      0.037920      0.031949
      2.75005      2.75005      6.95327        -0.007506     -0.008326      0.048549
      2.75005      5.50010      0.00000         0.023540     -0.028267      0.052537
      2.75005      5.50010      3.47664         0.031018     -0.008959     -0.040145
      2.75005      5.50010      6.95327         0.009489     -0.008215      0.010108
      5.50010      0.00000      0.00000         0.000000      0.066788     -0.079317
      5.50010      0.00000      3.47664         0.000000      0.010546      0.082347
      5.50010      0.00000      6.95327         0.000000     -0.000071     -0.012300
      5.50010      2.75005      0.00000         0.000000     -0.103451     -0.101235
      5.50010      2.75005      3.47664         0.000000     -0.034784      0.043582
      5.50010      2.75005      6.95327         0.000000      0.000791      0.039190
      5.50010      5.50010      0.00000         0.000000      0.010252     -0.030660
      5.50010      5.50010      3.47664         0.000000      0.016455     -0.023240
      5.50010      5.50010      6.95327         0.000000     -0.000760      0.112135
      1.37502      1.37502      1.73832         0.000000     -0.008604      0.044580
      1.37502      1.37502      5.21496         0.000000      0.038032     -0.036274
      1.37502      1.37502      8.69159         0.000000      0.152911      0.105313
      1.37502      4.12507      1.73832         0.000000     -0.017184     -0.014587
      1.37502      4.12507      5.21496         0.000000      0.022219      0.032838
      1.37502      4.12507      8.69159         0.000000     -0.186397     -0.029064
      1.37502      6.87512      1.73832         0.000000      0.008515      0.010179
      1.37502      6.87512      5.21496         0.000000     -0.048541      0.041277
      1.37502      6.87512      8.69159         0.000000      0.044405      0.009790
      4.12507      1.37502      1.73832         0.323347      0.000317     -0.030327
      4.12507      1.37502      5.21496         0.070766     -0.003540      0.020276
      4.12507      1.37502      8.69159        -0.052288     -0.010877     -0.142631
      4.12507      4.12507      1.73832        -0.016860      0.180133     -0.034668
      4.12507      4.12507      5.21496        -0.041900     -0.001955      0.076743
      4.12507      4.12507      8.69159         0.031504      0.027451      0.000594
      4.12507      6.87512      1.73832        -0.005030     -0.156574     -0.007562
      4.12507      6.87512      5.21496         0.004236      0.003065     -0.004462
      4.12507      6.87512      8.69159         0.163065     -0.025099      0.018807
      6.87512      1.37502      1.73832        -0.323347      0.000317     -0.030327
      6.87512      1.37502      5.21496        -0.070766     -0.003540      0.020276
      6.87512      1.37502      8.69159         0.052288     -0.010877     -0.142631
      6.87512      4.12507      1.73832         0.016860      0.180133     -0.034668
      6.87512      4.12507      5.21496         0.041900     -0.001955      0.076743
      6.87512      4.12507      8.69159        -0.031504      0.027451      0.000594
      6.87512      6.87512      1.73832         0.005030     -0.156574     -0.007562
      6.87512      6.87512      5.21496        -0.004236      0.003065     -0.004462
      6.87512      6.87512      8.69159        -0.163065     -0.025099      0.018807
 -----------------------------------------------------------------------------------
    total drift:                               -0.000000     -0.000003     -0.000087


--------------------------------------------------------------------------------------------------------



  FREE ENERGIE OF THE ION-ELECTRON SYSTEM (eV)
  ---------------------------------------------------
  free  energy   TOTEN  =      -356.04920850 eV

  energy  without entropy=     -356.02189360  energy(sigma->0) =     -356.04010353
 


--------------------------------------------------------------------------------------------------------


    POTLOK:  cpu time    1.7943: real time    1.7947


--------------------------------------------------------------------------------------------------------


     LOOP+:  cpu time 2815.0372: real time 2878.8773
    4ORBIT:  cpu time    0.0000: real time    0.0000
 


 total charge     
 
# of ion       s       p       d       tot
------------------------------------------
    1        0.406   0.428   0.000   0.834
    2        0.405   0.428   0.000   0.833
    3        0.405   0.428   0.000   0.833
    4        0.405   0.428   0.000   0.833
    5        0.404   0.430   0.000   0.834
    6        0.405   0.426   0.000   0.831
    7        0.405   0.427   0.000   0.832
    8        0.404   0.427   0.000   0.832
    9        0.405   0.429   0.000   0.833
   10        0.406   0.428   0.000   0.834
   11        0.405   0.429   0.000   0.834
   12        0.405   0.428   0.000   0.833
   13        0.405   0.427   0.000   0.833
   14        0.404   0.430   0.000   0.834
   15        0.405   0.426   0.000   0.832
   16        0.405   0.428   0.000   0.833
   17        0.404   0.427   0.000   0.831
   18        0.405   0.428   0.000   0.834
   19        0.405   0.428   0.000   0.833
   20        0.404   0.429   0.000   0.834
   21        0.405   0.426   0.000   0.832
   22        0.405   0.428   0.000   0.833
   23        0.405   0.429   0.000   0.834
   24        0.405   0.427   0.000   0.832
   25        0.405   0.425   0.000   0.830
   26        0.404   0.427   0.000   0.831
   27        0.405   0.427   0.000   0.832
   28        0.331   0.358   5.134   5.822
   29        0.334   0.350   5.137   5.820
   30        0.335   0.356   5.125   5.816
   31        0.331   0.354   5.136   5.821
   32        0.334   0.353   5.132   5.820
   33        0.336   0.354   5.127   5.816
   34        0.331   0.349   5.149   5.828
   35        0.335   0.348   5.142   5.824
   36        0.337   0.352   5.136   5.825
   37        0.335   0.354   5.128   5.816
   38        0.332   0.352   5.143   5.826
   39        0.334   0.350   5.143   5.827
   40        0.334   0.354   5.132   5.819
   41        0.334   0.350   5.139   5.822
   42        0.333   0.353   5.134   5.820
   43        0.333   0.355   5.136   5.824
   44        0.333   0.351   5.134   5.818
   45        0.334   0.355   5.126   5.815
   46        0.334   0.354   5.130   5.818
   47        0.332   0.352   5.132   5.816
   48        0.333   0.350   5.137   5.821
   49        0.334   0.354   5.131   5.819
   50        0.334   0.349   5.138   5.821
   51        0.333   0.353   5.138   5.823
   52        0.333   0.355   5.124   5.812
   53        0.333   0.352   5.136   5.821
   54        0.334   0.355   5.127   5.816
--------------------------------------------------
tot         19.938  21.069 138.623 179.630
 


 magnetization (x)
 
# of ion       s       p       d       tot
------------------------------------------
    1        0.001   0.002   0.000   0.003
    2       -0.016  -0.030   0.000  -0.046
    3       -0.004  -0.008   0.000  -0.012
    4        0.004   0.008   0.000   0.012
    5       -0.017  -0.027   0.000  -0.044
    6       -0.001  -0.001   0.000  -0.002
    7       -0.004  -0.005   0.000  -0.009
    8       -0.021  -0.038   0.000  -0.059
    9       -0.004  -0.007   0.000  -0.011
   10        0.001   0.002   0.000   0.003
   11       -0.016  -0.031   0.000  -0.047
   12       -0.004  -0.007   0.000  -0.012
   13        0.004   0.009   0.000   0.013
   14       -0.017  -0.028   0.000  -0.044
   15       -0.001  -0.001   0.000  -0.002
   16       -0.004  -0.005   0.000  -0.009
   17       -0.022  -0.038   0.000  -0.059
   18       -0.004  -0.007   0.000  -0.011
   19        0.009   0.017   0.000   0.026
   20       -0.012  -0.018   0.000  -0.031
   21       -0.001  -0.000   0.000  -0.001
   22        0.010   0.020   0.000   0.030
   23       -0.012  -0.021   0.000  -0.032
   24        0.001   0.002   0.000   0.002
   25        0.001   0.003   0.000   0.004
   26       -0.021  -0.033   0.000  -0.054
   27       -0.001  -0.003   0.000  -0.003
   28        0.028   0.035   2.185   2.248
   29        0.019   0.018   2.392   2.429
   30       -0.019  -0.029  -2.323  -2.371
   31        0.009   0.013   2.325   2.347
   32        0.015   0.026   2.353   2.394
   33       -0.022  -0.021  -2.383  -2.426
   34        0.012   0.005   2.265   2.282
   35        0.019   0.018   2.354   2.391
   36        0.028   0.028   2.099   2.156
   37       -0.023  -0.020  -2.395  -2.437
   38        0.014   0.019   2.232   2.264
   39       -0.015  -0.011  -2.319  -2.345
   40        0.022   0.020   2.392   2.434
   41        0.019   0.018   2.371   2.408
   42       -0.011  -0.013  -2.230  -2.254
   43        0.020   0.024   2.358   2.402
   44        0.017   0.022   2.354   2.393
   45       -0.021  -0.025  -2.360  -2.405
   46       -0.023  -0.019  -2.390  -2.433
   47        0.014   0.019   2.250   2.283
   48       -0.015  -0.011  -2.327  -2.354
   49        0.022   0.020   2.393   2.435
   50        0.019   0.018   2.377   2.414
   51       -0.011  -0.013  -2.238  -2.262
   52        0.020   0.024   2.361   2.405
   53        0.017   0.022   2.353   2.392
   54       -0.021  -0.025  -2.360  -2.406
--------------------------------------------------
tot         -0.014  -0.086  16.091  15.991
 

 total amount of memory used by VASP MPI-rank0  1077308. kBytes
=======================================================================

   base      :      30000. kBytes
   nonl-proj :      34214. kBytes
   fftplans  :      31580. kBytes
   grid      :      21385. kBytes
   one-center:        435. kBytes
   wavefun   :     959694. kBytes
 
  
  
 General timing and accounting informations for this job:
 ========================================================
  
                  Total CPU time used (sec):     2854.907
                            User time (sec):     2822.535
                          System time (sec):       32.372
                         Elapsed time (sec):     2922.613
  
                   Maximum memory used (kb):     1260396.
                   Average memory used (kb):           0.
  
                          Minor page faults:       908410
                          Major page faults:           18
                 Voluntary context switches:         3410
