  36  36   1   0
  0.1314651E+02  0.8250148E-09  0.8250148E-09  0.6953274E-09  0.2000000E-15
  1.000000000000000E-004
  CAR 
 AlMn_pv                                 
     11.81519990     -4.52163553  301      7.74430260      1.00000000
     -4.522  0.0000E+00  0.0000E+00  0.0000E+00  0.0000E+00
     -4.467  0.0000E+00  0.0000E+00  0.0000E+00  0.0000E+00
     -4.413  0.0000E+00  0.0000E+00  0.0000E+00  0.0000E+00
     -4.358  0.0000E+00  0.0000E+00  0.0000E+00  0.0000E+00
     -4.304  0.0000E+00  0.0000E+00  0.0000E+00  0.0000E+00
     -4.249  0.0000E+00  0.0000E+00  0.0000E+00  0.0000E+00
     -4.195  0.0000E+00  0.0000E+00  0.0000E+00  0.0000E+00
     -4.140 -0.9870E-29 -0.5546E-29 -0.5375E-30 -0.3020E-30
     -4.086 -0.7183E-27 -0.4111E-27 -0.3965E-28 -0.2269E-28
     -4.032 -0.4565E-25 -0.2669E-25 -0.2526E-26 -0.1476E-26
     -3.977 -0.2491E-23 -0.1485E-23 -0.1382E-24 -0.8234E-25
     -3.923 -0.1170E-21 -0.7115E-22 -0.6510E-23 -0.3957E-23
     -3.868 -0.4733E-20 -0.2935E-20 -0.2643E-21 -0.1638E-21
     -3.814 -0.1648E-18 -0.1042E-18 -0.9240E-20 -0.5841E-20
     -3.759 -0.4941E-17 -0.3188E-17 -0.2783E-18 -0.1794E-18
     -3.705 -0.1207E-15 -0.8391E-16 -0.6854E-17 -0.4749E-17
     -3.650 -0.2752E-14 -0.1840E-14 -0.1567E-15 -0.1050E-15
     -3.596 -0.5236E-13 -0.3586E-13 -0.3008E-14 -0.2058E-14
     -3.541 -0.8596E-12 -0.6003E-12 -0.4982E-13 -0.3475E-13
     -3.487 -0.1214E-10 -0.8648E-11 -0.7110E-12 -0.5057E-12
     -3.433 -0.1477E-09 -0.1073E-09 -0.8752E-11 -0.6347E-11
     -3.378 -0.1546E-08 -0.1145E-08 -0.9294E-10 -0.6872E-10
     -3.324 -0.1394E-07 -0.1053E-07 -0.8521E-09 -0.6424E-09
     -3.269 -0.1083E-06 -0.8347E-07 -0.6750E-08 -0.5188E-08
     -3.215 -0.7253E-06 -0.5700E-06 -0.4625E-07 -0.3623E-07
     -3.160 -0.4188E-05 -0.3356E-05 -0.2743E-06 -0.2190E-06
     -3.106 -0.2086E-04 -0.1705E-04 -0.1410E-05 -0.1147E-05
     -3.051 -0.8962E-04 -0.7468E-04 -0.6291E-05 -0.5214E-05
     -2.997 -0.3318E-03 -0.2820E-03 -0.2436E-04 -0.2057E-04
     -2.942 -0.1056E-02 -0.9161E-03 -0.8189E-04 -0.7046E-04
     -2.888 -0.2877E-02 -0.2548E-02 -0.2386E-03 -0.2092E-03
     -2.833 -0.6636E-02 -0.6013E-02 -0.5999E-03 -0.5367E-03
     -2.779 -0.1267E-01 -0.1179E-01 -0.1290E-02 -0.1179E-02
     -2.725 -0.1894E-01 -0.1831E-01 -0.2321E-02 -0.2176E-02
     -2.670 -0.1841E-01 -0.1931E-01 -0.3324E-02 -0.3227E-02
     -2.616  0.2344E-02 -0.2125E-02 -0.3196E-02 -0.3343E-02
     -2.561  0.5961E-01  0.4961E-01  0.4973E-04 -0.6418E-03
     -2.507  0.1624E+00  0.1466E+00  0.8895E-02  0.7342E-02
     -2.452  0.3009E+00  0.2818E+00  0.2528E-01  0.2269E-01
     -2.398  0.4445E+00  0.4270E+00  0.4948E-01  0.4594E-01
     -2.343  0.5606E+00  0.5480E+00  0.8001E-01  0.7578E-01
     -2.289  0.6437E+00  0.6343E+00  0.1151E+00  0.1103E+00
     -2.234  0.7276E+00  0.7155E+00  0.1547E+00  0.1493E+00
     -2.180  0.8581E+00  0.8386E+00  0.2014E+00  0.1950E+00
     -2.126  0.1038E+01  0.1015E+01  0.2580E+00  0.2502E+00
     -2.071  0.1203E+01  0.1187E+01  0.3235E+00  0.3149E+00
     -2.017  0.1261E+01  0.1262E+01  0.3922E+00  0.3836E+00
     -1.962  0.1185E+01  0.1200E+01  0.4567E+00  0.4489E+00
     -1.908  0.1056E+01  0.1071E+01  0.5142E+00  0.5073E+00
     -1.853  0.1013E+01  0.1012E+01  0.5693E+00  0.5624E+00
     -1.799  0.1140E+01  0.1118E+01  0.6314E+00  0.6233E+00
     -1.744  0.1396E+01  0.1365E+01  0.7075E+00  0.6976E+00
     -1.690  0.1647E+01  0.1624E+01  0.7971E+00  0.7860E+00
     -1.635  0.1771E+01  0.1767E+01  0.8936E+00  0.8823E+00
     -1.581  0.1745E+01  0.1758E+01  0.9886E+00  0.9780E+00
     -1.527  0.1656E+01  0.1670E+01  0.1079E+01  0.1069E+01
     -1.472  0.1623E+01  0.1625E+01  0.1167E+01  0.1157E+01
     -1.418  0.1703E+01  0.1689E+01  0.1260E+01  0.1249E+01
     -1.363  0.1828E+01  0.1811E+01  0.1359E+01  0.1348E+01
     -1.309  0.1863E+01  0.1861E+01  0.1461E+01  0.1449E+01
     -1.254  0.1747E+01  0.1764E+01  0.1556E+01  0.1545E+01
     -1.200  0.1577E+01  0.1599E+01  0.1642E+01  0.1633E+01
     -1.145  0.1546E+01  0.1549E+01  0.1726E+01  0.1717E+01
     -1.091  0.1758E+01  0.1728E+01  0.1822E+01  0.1811E+01
     -1.036  0.2129E+01  0.2079E+01  0.1938E+01  0.1924E+01
     -0.982  0.2467E+01  0.2422E+01  0.2072E+01  0.2056E+01
     -0.928  0.2638E+01  0.2615E+01  0.2216E+01  0.2199E+01
     -0.873  0.2652E+01  0.2650E+01  0.2360E+01  0.2343E+01
     -0.819  0.2599E+01  0.2605E+01  0.2502E+01  0.2485E+01
     -0.764  0.2531E+01  0.2537E+01  0.2639E+01  0.2623E+01
     -0.710  0.2414E+01  0.2425E+01  0.2771E+01  0.2755E+01
     -0.655  0.2209E+01  0.2233E+01  0.2891E+01  0.2877E+01
     -0.601  0.1966E+01  0.2000E+01  0.2998E+01  0.2985E+01
     -0.546  0.1829E+01  0.1857E+01  0.3098E+01  0.3087E+01
     -0.492  0.1933E+01  0.1935E+01  0.3203E+01  0.3192E+01
     -0.437  0.2283E+01  0.2251E+01  0.3327E+01  0.3314E+01
     -0.383  0.2745E+01  0.2690E+01  0.3477E+01  0.3461E+01
     -0.329  0.3144E+01  0.3087E+01  0.3648E+01  0.3629E+01
     -0.274  0.3377E+01  0.3336E+01  0.3832E+01  0.3811E+01
     -0.220  0.3440E+01  0.3425E+01  0.4019E+01  0.3997E+01
     -0.165  0.3397E+01  0.3402E+01  0.4204E+01  0.4182E+01
     -0.111  0.3316E+01  0.3327E+01  0.4385E+01  0.4364E+01
     -0.056  0.3231E+01  0.3242E+01  0.4561E+01  0.4540E+01
     -0.002  0.3155E+01  0.3165E+01  0.4733E+01  0.4712E+01
      0.053  0.3093E+01  0.3106E+01  0.4901E+01  0.4882E+01
      0.107  0.3069E+01  0.3079E+01  0.5068E+01  0.5049E+01
      0.162  0.3113E+01  0.3104E+01  0.5238E+01  0.5218E+01
      0.216  0.3231E+01  0.3195E+01  0.5414E+01  0.5392E+01
      0.271  0.3384E+01  0.3331E+01  0.5598E+01  0.5574E+01
      0.325  0.3485E+01  0.3444E+01  0.5788E+01  0.5761E+01
      0.379  0.3449E+01  0.3444E+01  0.5976E+01  0.5949E+01
      0.434  0.3263E+01  0.3289E+01  0.6153E+01  0.6128E+01
      0.488  0.3024E+01  0.3049E+01  0.6318E+01  0.6294E+01
      0.543  0.2896E+01  0.2886E+01  0.6476E+01  0.6451E+01
      0.597  0.2992E+01  0.2938E+01  0.6639E+01  0.6611E+01
      0.652  0.3282E+01  0.3204E+01  0.6817E+01  0.6786E+01
      0.706  0.3625E+01  0.3550E+01  0.7015E+01  0.6979E+01
      0.761  0.3891E+01  0.3833E+01  0.7227E+01  0.7188E+01
      0.815  0.4033E+01  0.3993E+01  0.7446E+01  0.7405E+01
      0.870  0.4057E+01  0.4036E+01  0.7667E+01  0.7625E+01
      0.924  0.3962E+01  0.3965E+01  0.7883E+01  0.7841E+01
      0.978  0.3761E+01  0.3783E+01  0.8088E+01  0.8047E+01
      1.033  0.3528E+01  0.3548E+01  0.8280E+01  0.8240E+01
      1.087  0.3386E+01  0.3376E+01  0.8464E+01  0.8424E+01
      1.142  0.3393E+01  0.3351E+01  0.8649E+01  0.8606E+01
      1.196  0.3480E+01  0.3430E+01  0.8838E+01  0.8793E+01
      1.251  0.3533E+01  0.3494E+01  0.9031E+01  0.8983E+01
      1.305  0.3522E+01  0.3486E+01  0.9223E+01  0.9173E+01
      1.360  0.3516E+01  0.3465E+01  0.9414E+01  0.9362E+01
      1.414  0.3559E+01  0.3497E+01  0.9608E+01  0.9552E+01
      1.469  0.3597E+01  0.3553E+01  0.9804E+01  0.9746E+01
      1.523  0.3567E+01  0.3550E+01  0.9998E+01  0.9939E+01
      1.577  0.3525E+01  0.3495E+01  0.1019E+02  0.1013E+02
      1.632  0.3647E+01  0.3538E+01  0.1039E+02  0.1032E+02
      1.686  0.4056E+01  0.3842E+01  0.1061E+02  0.1053E+02
      1.741  0.4671E+01  0.4403E+01  0.1086E+02  0.1077E+02
      1.795  0.5229E+01  0.5004E+01  0.1115E+02  0.1104E+02
      1.850  0.5475E+01  0.5369E+01  0.1145E+02  0.1134E+02
      1.904  0.5349E+01  0.5360E+01  0.1174E+02  0.1163E+02
      1.959  0.5006E+01  0.5066E+01  0.1201E+02  0.1190E+02
      2.013  0.4684E+01  0.4712E+01  0.1227E+02  0.1216E+02
      2.068  0.4566E+01  0.4499E+01  0.1251E+02  0.1241E+02
      2.122  0.4722E+01  0.4523E+01  0.1277E+02  0.1265E+02
      2.176  0.5112E+01  0.4785E+01  0.1305E+02  0.1291E+02
      2.231  0.5590E+01  0.5203E+01  0.1335E+02  0.1320E+02
      2.285  0.5937E+01  0.5615E+01  0.1368E+02  0.1350E+02
      2.340  0.5963E+01  0.5828E+01  0.1400E+02  0.1382E+02
      2.394  0.5638E+01  0.5722E+01  0.1431E+02  0.1413E+02
      2.449  0.5118E+01  0.5349E+01  0.1459E+02  0.1442E+02
      2.503  0.4648E+01  0.4896E+01  0.1484E+02  0.1469E+02
      2.558  0.4418E+01  0.4571E+01  0.1508E+02  0.1494E+02
      2.612  0.4490E+01  0.4490E+01  0.1533E+02  0.1518E+02
      2.667  0.4801E+01  0.4645E+01  0.1559E+02  0.1543E+02
      2.721  0.5217E+01  0.4947E+01  0.1587E+02  0.1570E+02
      2.775  0.5600E+01  0.5284E+01  0.1618E+02  0.1599E+02
      2.830  0.5850E+01  0.5570E+01  0.1650E+02  0.1630E+02
      2.884  0.5928E+01  0.5748E+01  0.1682E+02  0.1661E+02
      2.939  0.5870E+01  0.5792E+01  0.1714E+02  0.1692E+02
      2.993  0.5790E+01  0.5732E+01  0.1745E+02  0.1724E+02
      3.048  0.5809E+01  0.5666E+01  0.1777E+02  0.1754E+02
      3.102  0.5947E+01  0.5692E+01  0.1809E+02  0.1785E+02
      3.157  0.6078E+01  0.5801E+01  0.1842E+02  0.1817E+02
      3.211  0.6045E+01  0.5875E+01  0.1875E+02  0.1849E+02
      3.266  0.5824E+01  0.5803E+01  0.1907E+02  0.1881E+02
      3.320  0.5542E+01  0.5605E+01  0.1937E+02  0.1911E+02
      3.375  0.5336E+01  0.5393E+01  0.1966E+02  0.1940E+02
      3.429  0.5242E+01  0.5254E+01  0.1995E+02  0.1969E+02
      3.483  0.5224E+01  0.5190E+01  0.2023E+02  0.1997E+02
      3.538  0.5269E+01  0.5185E+01  0.2052E+02  0.2026E+02
      3.592  0.5432E+01  0.5277E+01  0.2082E+02  0.2054E+02
      3.647  0.5765E+01  0.5531E+01  0.2113E+02  0.2084E+02
      3.701  0.6246E+01  0.5952E+01  0.2147E+02  0.2117E+02
      3.756  0.6766E+01  0.6440E+01  0.2184E+02  0.2152E+02
      3.810  0.7195E+01  0.6856E+01  0.2223E+02  0.2189E+02
      3.865  0.7470E+01  0.7133E+01  0.2264E+02  0.2228E+02
      3.919  0.7645E+01  0.7316E+01  0.2305E+02  0.2268E+02
      3.974  0.7892E+01  0.7519E+01  0.2348E+02  0.2309E+02
      4.028  0.8433E+01  0.7847E+01  0.2394E+02  0.2352E+02
      4.082  0.9402E+01  0.8364E+01  0.2445E+02  0.2397E+02
      4.137  0.1071E+02  0.9073E+01  0.2504E+02  0.2447E+02
      4.191  0.1206E+02  0.9908E+01  0.2569E+02  0.2501E+02
      4.246  0.1312E+02  0.1077E+02  0.2641E+02  0.2559E+02
      4.300  0.1379E+02  0.1161E+02  0.2716E+02  0.2622E+02
      4.355  0.1423E+02  0.1247E+02  0.2793E+02  0.2690E+02
      4.409  0.1463E+02  0.1341E+02  0.2873E+02  0.2763E+02
      4.464  0.1508E+02  0.1441E+02  0.2955E+02  0.2842E+02
      4.518  0.1549E+02  0.1528E+02  0.3040E+02  0.2925E+02
      4.573  0.1575E+02  0.1584E+02  0.3125E+02  0.3011E+02
      4.627  0.1579E+02  0.1600E+02  0.3211E+02  0.3098E+02
      4.681  0.1563E+02  0.1580E+02  0.3296E+02  0.3184E+02
      4.736  0.1535E+02  0.1534E+02  0.3380E+02  0.3268E+02
      4.790  0.1510E+02  0.1479E+02  0.3462E+02  0.3348E+02
      4.845  0.1508E+02  0.1428E+02  0.3544E+02  0.3426E+02
      4.899  0.1545E+02  0.1397E+02  0.3629E+02  0.3502E+02
      4.954  0.1622E+02  0.1396E+02  0.3717E+02  0.3578E+02
      5.008  0.1721E+02  0.1436E+02  0.3811E+02  0.3656E+02
      5.063  0.1831E+02  0.1528E+02  0.3910E+02  0.3740E+02
      5.117  0.1952E+02  0.1678E+02  0.4017E+02  0.3831E+02
      5.172  0.2086E+02  0.1875E+02  0.4130E+02  0.3933E+02
      5.226  0.2223E+02  0.2095E+02  0.4251E+02  0.4047E+02
      5.280  0.2334E+02  0.2295E+02  0.4378E+02  0.4172E+02
      5.335  0.2386E+02  0.2434E+02  0.4508E+02  0.4305E+02
      5.389  0.2370E+02  0.2482E+02  0.4637E+02  0.4440E+02
      5.444  0.2300E+02  0.2443E+02  0.4763E+02  0.4573E+02
      5.498  0.2207E+02  0.2343E+02  0.4883E+02  0.4700E+02
      5.553  0.2119E+02  0.2212E+02  0.4998E+02  0.4821E+02
      5.607  0.2053E+02  0.2066E+02  0.5110E+02  0.4933E+02
      5.662  0.2005E+02  0.1907E+02  0.5219E+02  0.5037E+02
      5.716  0.1962E+02  0.1740E+02  0.5326E+02  0.5132E+02
      5.771  0.1909E+02  0.1586E+02  0.5430E+02  0.5218E+02
      5.825  0.1835E+02  0.1474E+02  0.5530E+02  0.5299E+02
      5.879  0.1748E+02  0.1421E+02  0.5625E+02  0.5376E+02
      5.934  0.1671E+02  0.1423E+02  0.5716E+02  0.5454E+02
      5.988  0.1632E+02  0.1461E+02  0.5805E+02  0.5533E+02
      6.043  0.1651E+02  0.1521E+02  0.5895E+02  0.5616E+02
      6.097  0.1732E+02  0.1594E+02  0.5989E+02  0.5703E+02
      6.152  0.1865E+02  0.1670E+02  0.6091E+02  0.5794E+02
      6.206  0.2030E+02  0.1739E+02  0.6201E+02  0.5889E+02
      6.261  0.2202E+02  0.1795E+02  0.6321E+02  0.5986E+02
      6.315  0.2358E+02  0.1844E+02  0.6450E+02  0.6087E+02
      6.370  0.2481E+02  0.1901E+02  0.6585E+02  0.6190E+02
      6.424  0.2561E+02  0.1973E+02  0.6724E+02  0.6298E+02
      6.479  0.2602E+02  0.2053E+02  0.6866E+02  0.6409E+02
      6.533  0.2617E+02  0.2135E+02  0.7008E+02  0.6526E+02
      6.587  0.2620E+02  0.2219E+02  0.7151E+02  0.6647E+02
      6.642  0.2609E+02  0.2306E+02  0.7293E+02  0.6772E+02
      6.696  0.2568E+02  0.2391E+02  0.7433E+02  0.6902E+02
      6.751  0.2481E+02  0.2450E+02  0.7568E+02  0.7036E+02
      6.805  0.2351E+02  0.2456E+02  0.7696E+02  0.7170E+02
      6.860  0.2202E+02  0.2392E+02  0.7816E+02  0.7300E+02
      6.914  0.2066E+02  0.2261E+02  0.7928E+02  0.7423E+02
      6.969  0.1964E+02  0.2084E+02  0.8035E+02  0.7536E+02
      7.023  0.1890E+02  0.1896E+02  0.8138E+02  0.7640E+02
      7.078  0.1824E+02  0.1735E+02  0.8238E+02  0.7734E+02
      7.132  0.1746E+02  0.1627E+02  0.8333E+02  0.7823E+02
      7.186  0.1654E+02  0.1581E+02  0.8423E+02  0.7909E+02
      7.241  0.1562E+02  0.1586E+02  0.8508E+02  0.7995E+02
      7.295  0.1485E+02  0.1614E+02  0.8589E+02  0.8083E+02
      7.350  0.1430E+02  0.1636E+02  0.8667E+02  0.8172E+02
      7.404  0.1392E+02  0.1631E+02  0.8742E+02  0.8261E+02
      7.459  0.1365E+02  0.1595E+02  0.8817E+02  0.8348E+02
      7.513  0.1353E+02  0.1539E+02  0.8890E+02  0.8432E+02
      7.568  0.1364E+02  0.1487E+02  0.8965E+02  0.8513E+02
      7.622  0.1405E+02  0.1462E+02  0.9041E+02  0.8592E+02
      7.677  0.1469E+02  0.1468E+02  0.9121E+02  0.8672E+02
      7.731  0.1541E+02  0.1495E+02  0.9205E+02  0.8754E+02
      7.785  0.1605E+02  0.1519E+02  0.9293E+02  0.8836E+02
      7.840  0.1653E+02  0.1525E+02  0.9383E+02  0.8919E+02
      7.894  0.1680E+02  0.1519E+02  0.9474E+02  0.9002E+02
      7.949  0.1681E+02  0.1516E+02  0.9566E+02  0.9085E+02
      8.003  0.1649E+02  0.1532E+02  0.9655E+02  0.9168E+02
      8.058  0.1586E+02  0.1565E+02  0.9742E+02  0.9253E+02
      8.112  0.1509E+02  0.1606E+02  0.9824E+02  0.9341E+02
      8.167  0.1440E+02  0.1643E+02  0.9902E+02  0.9430E+02
      8.221  0.1394E+02  0.1677E+02  0.9978E+02  0.9522E+02
      8.276  0.1370E+02  0.1713E+02  0.1005E+03  0.9615E+02
      8.330  0.1354E+02  0.1753E+02  0.1013E+03  0.9710E+02
      8.384  0.1331E+02  0.1784E+02  0.1020E+03  0.9807E+02
      8.439  0.1294E+02  0.1789E+02  0.1027E+03  0.9905E+02
      8.493  0.1250E+02  0.1758E+02  0.1034E+03  0.1000E+03
      8.548  0.1219E+02  0.1694E+02  0.1040E+03  0.1009E+03
      8.602  0.1214E+02  0.1610E+02  0.1047E+03  0.1018E+03
      8.657  0.1231E+02  0.1511E+02  0.1054E+03  0.1026E+03
      8.711  0.1250E+02  0.1399E+02  0.1061E+03  0.1034E+03
      8.766  0.1247E+02  0.1286E+02  0.1067E+03  0.1041E+03
      8.820  0.1213E+02  0.1203E+02  0.1074E+03  0.1047E+03
      8.875  0.1157E+02  0.1187E+02  0.1080E+03  0.1054E+03
      8.929  0.1094E+02  0.1252E+02  0.1086E+03  0.1061E+03
      8.983  0.1033E+02  0.1368E+02  0.1092E+03  0.1068E+03
      9.038  0.9706E+01  0.1471E+02  0.1097E+03  0.1076E+03
      9.092  0.8910E+01  0.1499E+02  0.1102E+03  0.1084E+03
      9.147  0.7818E+01  0.1426E+02  0.1106E+03  0.1092E+03
      9.201  0.6431E+01  0.1263E+02  0.1110E+03  0.1099E+03
      9.256  0.4909E+01  0.1047E+02  0.1112E+03  0.1105E+03
      9.310  0.3501E+01  0.8164E+01  0.1114E+03  0.1109E+03
      9.365  0.2421E+01  0.6033E+01  0.1116E+03  0.1112E+03
      9.419  0.1747E+01  0.4296E+01  0.1117E+03  0.1115E+03
      9.474  0.1405E+01  0.3051E+01  0.1117E+03  0.1116E+03
      9.528  0.1241E+01  0.2242E+01  0.1118E+03  0.1118E+03
      9.582  0.1109E+01  0.1709E+01  0.1119E+03  0.1119E+03
      9.637  0.9338E+00  0.1282E+01  0.1119E+03  0.1119E+03
      9.691  0.7110E+00  0.8713E+00  0.1119E+03  0.1120E+03
      9.746  0.4785E+00  0.4860E+00  0.1120E+03  0.1120E+03
      9.800  0.2806E+00  0.1829E+00  0.1120E+03  0.1120E+03
      9.855  0.1412E+00  0.1030E-02  0.1120E+03  0.1120E+03
      9.909  0.5782E-01 -0.6883E-01  0.1120E+03  0.1120E+03
      9.964  0.1380E-01 -0.6965E-01  0.1120E+03  0.1120E+03
     10.018 -0.6577E-02 -0.4573E-01  0.1120E+03  0.1120E+03
     10.073 -0.1320E-01 -0.2310E-01  0.1120E+03  0.1120E+03
     10.127 -0.1225E-01 -0.9457E-02  0.1120E+03  0.1120E+03
     10.182 -0.8325E-02 -0.3212E-02  0.1120E+03  0.1120E+03
     10.236 -0.4493E-02 -0.9162E-03  0.1120E+03  0.1120E+03
     10.290 -0.1981E-02 -0.2211E-03  0.1120E+03  0.1120E+03
     10.345 -0.7241E-03 -0.4534E-04  0.1120E+03  0.1120E+03
     10.399 -0.2214E-03 -0.7928E-05  0.1120E+03  0.1120E+03
     10.454 -0.5696E-04 -0.1185E-05  0.1120E+03  0.1120E+03
     10.508 -0.1239E-04 -0.1516E-06  0.1120E+03  0.1120E+03
     10.563 -0.2289E-05 -0.1662E-07  0.1120E+03  0.1120E+03
     10.617 -0.3596E-06 -0.1564E-08  0.1120E+03  0.1120E+03
     10.672 -0.4818E-07 -0.1264E-09  0.1120E+03  0.1120E+03
     10.726 -0.5515E-08 -0.8773E-11  0.1120E+03  0.1120E+03
     10.781 -0.5400E-09 -0.5237E-12  0.1120E+03  0.1120E+03
     10.835 -0.4528E-10 -0.2680E-13  0.1120E+03  0.1120E+03
     10.889 -0.3255E-11 -0.1250E-14  0.1120E+03  0.1120E+03
     10.944 -0.2006E-12  0.0000E+00  0.1120E+03  0.1120E+03
     10.998 -0.1066E-13  0.0000E+00  0.1120E+03  0.1120E+03
     11.053 -0.5437E-15  0.0000E+00  0.1120E+03  0.1120E+03
     11.107  0.0000E+00  0.0000E+00  0.1120E+03  0.1120E+03
     11.162  0.0000E+00  0.0000E+00  0.1120E+03  0.1120E+03
     11.216  0.0000E+00  0.0000E+00  0.1120E+03  0.1120E+03
     11.271  0.0000E+00  0.0000E+00  0.1120E+03  0.1120E+03
     11.325  0.0000E+00  0.0000E+00  0.1120E+03  0.1120E+03
     11.380  0.0000E+00  0.0000E+00  0.1120E+03  0.1120E+03
     11.434  0.0000E+00  0.0000E+00  0.1120E+03  0.1120E+03
     11.488  0.0000E+00  0.0000E+00  0.1120E+03  0.1120E+03
     11.543  0.0000E+00  0.0000E+00  0.1120E+03  0.1120E+03
     11.597  0.0000E+00  0.0000E+00  0.1120E+03  0.1120E+03
     11.652  0.0000E+00  0.0000E+00  0.1120E+03  0.1120E+03
     11.706  0.0000E+00  0.0000E+00  0.1120E+03  0.1120E+03
     11.761  0.0000E+00  0.0000E+00  0.1120E+03  0.1120E+03
     11.815  0.0000E+00  0.0000E+00  0.1120E+03  0.1120E+03
     11.81519990     -4.52163553  301      7.74430260      1.00000000
     -4.522  0.0000E+00  0.0000E+00  0.0000E+00  0.0000E+00  0.0000E+00  0.0000E+00
     -4.467  0.0000E+00  0.0000E+00  0.0000E+00  0.0000E+00  0.0000E+00  0.0000E+00
     -4.413  0.0000E+00  0.0000E+00  0.0000E+00  0.0000E+00  0.0000E+00  0.0000E+00
     -4.358  0.0000E+00  0.0000E+00  0.0000E+00  0.0000E+00  0.0000E+00  0.0000E+00
     -4.304  0.0000E+00  0.0000E+00  0.0000E+00  0.0000E+00  0.0000E+00  0.0000E+00
     -4.249  0.0000E+00  0.0000E+00  0.0000E+00  0.0000E+00  0.0000E+00  0.0000E+00
     -4.195  0.0000E+00  0.0000E+00  0.0000E+00  0.0000E+00  0.0000E+00  0.0000E+00
     -4.140 -0.1109E-30 -0.6560E-31 -0.5916E-36 -0.2747E-36  0.0000E+00  0.0000E+00
     -4.086 -0.8070E-29 -0.4862E-29 -0.1020E-33 -0.2036E-34  0.0000E+00  0.0000E+00
     -4.032 -0.5129E-27 -0.3156E-27 -0.2096E-31 -0.1180E-31  0.0000E+00  0.0000E+00
     -3.977 -0.2798E-25 -0.1756E-25 -0.1414E-29 -0.8127E-30  0.0000E+00  0.0000E+00
     -3.923 -0.1315E-23 -0.8415E-24 -0.8303E-28 -0.4883E-28  0.0000E+00  0.0000E+00
     -3.868 -0.5317E-22 -0.3471E-22 -0.4218E-26 -0.2537E-26  0.0000E+00  0.0000E+00
     -3.814 -0.1852E-20 -0.1233E-20 -0.1852E-24 -0.1138E-24  0.0000E+00  0.0000E+00
     -3.759 -0.5551E-19 -0.3770E-19 -0.7022E-23 -0.4407E-23  0.0000E+00  0.0000E+00
     -3.705 -0.1356E-17 -0.9923E-18 -0.2293E-21 -0.1472E-21  0.0000E+00  0.0000E+00
     -3.650 -0.3092E-16 -0.2177E-16 -0.6475E-20 -0.4235E-20  0.0000E+00  0.0000E+00
     -3.596 -0.5881E-15 -0.4241E-15 -0.1519E-18 -0.1023E-18  0.0000E+00  0.0000E+00
     -3.541 -0.9654E-14 -0.7099E-14 -0.3198E-17 -0.2177E-17  0.0000E+00  0.0000E+00
     -3.487 -0.1364E-12 -0.1023E-12 -0.5742E-16 -0.3990E-16  0.0000E+00  0.0000E+00
     -3.433 -0.1658E-11 -0.1268E-11 -0.8884E-15 -0.6296E-15  0.0000E+00  0.0000E+00
     -3.378 -0.1736E-10 -0.1354E-10 -0.1182E-13 -0.8546E-14  0.0000E+00  0.0000E+00
     -3.324 -0.1565E-09 -0.1246E-09 -0.1354E-12 -0.9975E-13  0.0000E+00  0.0000E+00
     -3.269 -0.1215E-08 -0.9868E-09 -0.1332E-11 -0.1001E-11  0.0000E+00  0.0000E+00
     -3.215 -0.8136E-08 -0.6738E-08 -0.1127E-10 -0.8632E-11  0.0000E+00  0.0000E+00
     -3.160 -0.4696E-07 -0.3968E-07 -0.8193E-10 -0.6396E-10  0.0000E+00  0.0000E+00
     -3.106 -0.2338E-06 -0.2015E-06 -0.5116E-09 -0.4071E-09  0.0000E+00  0.0000E+00
     -3.051 -0.1004E-05 -0.8825E-06 -0.2743E-08 -0.2224E-08  0.0000E+00  0.0000E+00
     -2.997 -0.3714E-05 -0.3332E-05 -0.1261E-07 -0.1042E-07  0.0000E+00  0.0000E+00
     -2.942 -0.1181E-04 -0.1082E-04 -0.4964E-07 -0.4177E-07  0.0000E+00  0.0000E+00
     -2.888 -0.3214E-04 -0.3010E-04 -0.1668E-06 -0.1430E-06  0.0000E+00  0.0000E+00
     -2.833 -0.7400E-04 -0.7099E-04 -0.4757E-06 -0.4159E-06  0.0000E+00  0.0000E+00
     -2.779 -0.1410E-03 -0.1392E-03 -0.1140E-05 -0.1018E-05  0.0000E+00  0.0000E+00
     -2.725 -0.2101E-03 -0.2160E-03 -0.2252E-05 -0.2057E-05  0.0000E+00  0.0000E+00
     -2.670 -0.2025E-03 -0.2276E-03 -0.3501E-05 -0.3298E-05  0.0000E+00  0.0000E+00
     -2.616  0.3140E-04 -0.2457E-04 -0.3748E-05 -0.3730E-05  0.0000E+00  0.0000E+00
     -2.561  0.6723E-03  0.5860E-03 -0.9300E-06 -0.1409E-05  0.0000E+00  0.0000E+00
     -2.507  0.1819E-02  0.1730E-02  0.7123E-05  0.5866E-05  0.0000E+00  0.0000E+00
     -2.452  0.3360E-02  0.3324E-02  0.2115E-04  0.1907E-04  0.0000E+00  0.0000E+00
     -2.398  0.4954E-02  0.5034E-02  0.3988E-04  0.3710E-04  0.0000E+00  0.0000E+00
     -2.343  0.6231E-02  0.6460E-02  0.6248E-04  0.5871E-04  0.0000E+00  0.0000E+00
     -2.289  0.7117E-02  0.7480E-02  0.9331E-04  0.8700E-04  0.0000E+00  0.0000E+00
     -2.234  0.7974E-02  0.8447E-02  0.1431E-03  0.1316E-03  0.0000E+00  0.0000E+00
     -2.180  0.9300E-02  0.9916E-02  0.2209E-03  0.2020E-03  0.0000E+00  0.0000E+00
     -2.126  0.1115E-01  0.1202E-01  0.3189E-03  0.2937E-03  0.0000E+00  0.0000E+00
     -2.071  0.1283E-01  0.1407E-01  0.4075E-03  0.3807E-03  0.0000E+00  0.0000E+00
     -2.017  0.1338E-01  0.1499E-01  0.4531E-03  0.4294E-03  0.0000E+00  0.0000E+00
     -1.962  0.1250E-01  0.1428E-01  0.4509E-03  0.4305E-03  0.0000E+00  0.0000E+00
     -1.908  0.1105E-01  0.1277E-01  0.4410E-03  0.4193E-03  0.0000E+00  0.0000E+00
     -1.853  0.1055E-01  0.1206E-01  0.4845E-03  0.4582E-03  0.0000E+00  0.0000E+00
     -1.799  0.1193E-01  0.1325E-01  0.6138E-03  0.5881E-03  0.0000E+00  0.0000E+00
     -1.744  0.1480E-01  0.1598E-01  0.8015E-03  0.7910E-03  0.0000E+00  0.0000E+00
     -1.690  0.1772E-01  0.1878E-01  0.9775E-03  0.9978E-03  0.0000E+00  0.0000E+00
     -1.635  0.1932E-01  0.2023E-01  0.1081E-02  0.1136E-02  0.0000E+00  0.0000E+00
     -1.581  0.1922E-01  0.2000E-01  0.1107E-02  0.1182E-02  0.0000E+00  0.0000E+00
     -1.527  0.1829E-01  0.1899E-01  0.1112E-02  0.1183E-02  0.0000E+00  0.0000E+00
     -1.472  0.1788E-01  0.1855E-01  0.1173E-02  0.1225E-02  0.0000E+00  0.0000E+00
     -1.418  0.1868E-01  0.1928E-01  0.1314E-02  0.1357E-02  0.0000E+00  0.0000E+00
     -1.363  0.2003E-01  0.2047E-01  0.1470E-02  0.1534E-02  0.0000E+00  0.0000E+00
     -1.309  0.2048E-01  0.2068E-01  0.1532E-02  0.1643E-02  0.0000E+00  0.0000E+00
     -1.254  0.1928E-01  0.1930E-01  0.1457E-02  0.1613E-02  0.0000E+00  0.0000E+00
     -1.200  0.1749E-01  0.1737E-01  0.1350E-02  0.1518E-02  0.0000E+00  0.0000E+00
     -1.145  0.1719E-01  0.1691E-01  0.1396E-02  0.1542E-02  0.0000E+00  0.0000E+00
     -1.091  0.1958E-01  0.1896E-01  0.1693E-02  0.1817E-02  0.0000E+00  0.0000E+00
     -1.036  0.2375E-01  0.2260E-01  0.2154E-02  0.2291E-02  0.0000E+00  0.0000E+00
     -0.982  0.2757E-01  0.2587E-01  0.2582E-02  0.2769E-02  0.0000E+00  0.0000E+00
     -0.928  0.2948E-01  0.2754E-01  0.2841E-02  0.3080E-02  0.0000E+00  0.0000E+00
     -0.873  0.2950E-01  0.2783E-01  0.2944E-02  0.3204E-02  0.0000E+00  0.0000E+00
     -0.819  0.2862E-01  0.2761E-01  0.2991E-02  0.3239E-02  0.0000E+00  0.0000E+00
     -0.764  0.2748E-01  0.2717E-01  0.3030E-02  0.3259E-02  0.0000E+00  0.0000E+00
     -0.710  0.2590E-01  0.2596E-01  0.2995E-02  0.3224E-02  0.0000E+00  0.0000E+00
     -0.655  0.2356E-01  0.2361E-01  0.2803E-02  0.3050E-02  0.0000E+00  0.0000E+00
     -0.601  0.2101E-01  0.2090E-01  0.2497E-02  0.2754E-02  0.0000E+00  0.0000E+00
     -0.546  0.1982E-01  0.1958E-01  0.2278E-02  0.2522E-02  0.0000E+00  0.0000E+00
     -0.492  0.2137E-01  0.2097E-01  0.2374E-02  0.2597E-02  0.0000E+00  0.0000E+00
     -0.437  0.2565E-01  0.2480E-01  0.2863E-02  0.3086E-02  0.0000E+00  0.0000E+00
     -0.383  0.3108E-01  0.2937E-01  0.3608E-02  0.3866E-02  0.0000E+00  0.0000E+00
     -0.329  0.3560E-01  0.3295E-01  0.4354E-02  0.4660E-02  0.0000E+00  0.0000E+00
     -0.274  0.3802E-01  0.3481E-01  0.4884E-02  0.5220E-02  0.0000E+00  0.0000E+00
     -0.220  0.3835E-01  0.3529E-01  0.5127E-02  0.5462E-02  0.0000E+00  0.0000E+00
     -0.165  0.3742E-01  0.3499E-01  0.5152E-02  0.5481E-02  0.0000E+00  0.0000E+00
     -0.111  0.3608E-01  0.3430E-01  0.5084E-02  0.5437E-02  0.0000E+00  0.0000E+00
     -0.056  0.3489E-01  0.3351E-01  0.4998E-02  0.5405E-02  0.0000E+00  0.0000E+00
     -0.002  0.3413E-01  0.3301E-01  0.4893E-02  0.5342E-02  0.0000E+00  0.0000E+00
      0.053  0.3399E-01  0.3308E-01  0.4753E-02  0.5190E-02  0.0000E+00  0.0000E+00
      0.107  0.3458E-01  0.3365E-01  0.4640E-02  0.5017E-02  0.0000E+00  0.0000E+00
      0.162  0.3588E-01  0.3433E-01  0.4695E-02  0.5013E-02  0.0000E+00  0.0000E+00
      0.216  0.3751E-01  0.3485E-01  0.5024E-02  0.5324E-02  0.0000E+00  0.0000E+00
      0.271  0.3885E-01  0.3526E-01  0.5566E-02  0.5878E-02  0.0000E+00  0.0000E+00
      0.325  0.3910E-01  0.3557E-01  0.6086E-02  0.6380E-02  0.0000E+00  0.0000E+00
      0.379  0.3771E-01  0.3544E-01  0.6322E-02  0.6520E-02  0.0000E+00  0.0000E+00
      0.434  0.3483E-01  0.3441E-01  0.6199E-02  0.6229E-02  0.0000E+00  0.0000E+00
      0.488  0.3166E-01  0.3270E-01  0.5927E-02  0.5767E-02  0.0000E+00  0.0000E+00
      0.543  0.2996E-01  0.3150E-01  0.5866E-02  0.5561E-02  0.0000E+00  0.0000E+00
      0.597  0.3082E-01  0.3206E-01  0.6247E-02  0.5882E-02  0.0000E+00  0.0000E+00
      0.652  0.3377E-01  0.3451E-01  0.6990E-02  0.6647E-02  0.0000E+00  0.0000E+00
      0.706  0.3715E-01  0.3764E-01  0.7805E-02  0.7532E-02  0.0000E+00  0.0000E+00
      0.761  0.3950E-01  0.4004E-01  0.8457E-02  0.8258E-02  0.0000E+00  0.0000E+00
      0.815  0.4036E-01  0.4115E-01  0.8902E-02  0.8745E-02  0.0000E+00  0.0000E+00
      0.870  0.3988E-01  0.4114E-01  0.9163E-02  0.9014E-02  0.0000E+00  0.0000E+00
      0.924  0.3822E-01  0.4026E-01  0.9191E-02  0.9033E-02  0.0000E+00  0.0000E+00
      0.978  0.3562E-01  0.3869E-01  0.8934E-02  0.8750E-02  0.0000E+00  0.0000E+00
      1.033  0.3293E-01  0.3700E-01  0.8516E-02  0.8279E-02  0.0000E+00  0.0000E+00
      1.087  0.3138E-01  0.3611E-01  0.8230E-02  0.7911E-02  0.0000E+00  0.0000E+00
      1.142  0.3153E-01  0.3639E-01  0.8261E-02  0.7870E-02  0.0000E+00  0.0000E+00
      1.196  0.3263E-01  0.3711E-01  0.8499E-02  0.8087E-02  0.0000E+00  0.0000E+00
      1.251  0.3340E-01  0.3715E-01  0.8694E-02  0.8306E-02  0.0000E+00  0.0000E+00
      1.305  0.3337E-01  0.3637E-01  0.8776E-02  0.8404E-02  0.0000E+00  0.0000E+00
      1.360  0.3302E-01  0.3568E-01  0.8899E-02  0.8516E-02  0.0000E+00  0.0000E+00
      1.414  0.3275E-01  0.3579E-01  0.9176E-02  0.8789E-02  0.0000E+00  0.0000E+00
      1.469  0.3208E-01  0.3609E-01  0.9504E-02  0.9132E-02  0.0000E+00  0.0000E+00
      1.523  0.3046E-01  0.3555E-01  0.9753E-02  0.9339E-02  0.0000E+00  0.0000E+00
      1.577  0.2861E-01  0.3421E-01  0.1005E-01  0.9461E-02  0.0000E+00  0.0000E+00
      1.632  0.2846E-01  0.3363E-01  0.1075E-01  0.9933E-02  0.0000E+00  0.0000E+00
      1.686  0.3155E-01  0.3537E-01  0.1205E-01  0.1122E-01  0.0000E+00  0.0000E+00
      1.741  0.3731E-01  0.3933E-01  0.1364E-01  0.1328E-01  0.0000E+00  0.0000E+00
      1.795  0.4318E-01  0.4348E-01  0.1484E-01  0.1547E-01  0.0000E+00  0.0000E+00
      1.850  0.4644E-01  0.4545E-01  0.1509E-01  0.1686E-01  0.0000E+00  0.0000E+00
      1.904  0.4612E-01  0.4436E-01  0.1434E-01  0.1696E-01  0.0000E+00  0.0000E+00
      1.959  0.4332E-01  0.4138E-01  0.1311E-01  0.1602E-01  0.0000E+00  0.0000E+00
      2.013  0.4009E-01  0.3858E-01  0.1208E-01  0.1476E-01  0.0000E+00  0.0000E+00
      2.068  0.3804E-01  0.3746E-01  0.1172E-01  0.1393E-01  0.0000E+00  0.0000E+00
      2.122  0.3802E-01  0.3837E-01  0.1212E-01  0.1391E-01  0.0000E+00  0.0000E+00
      2.176  0.4017E-01  0.4086E-01  0.1303E-01  0.1466E-01  0.0000E+00  0.0000E+00
      2.231  0.4388E-01  0.4417E-01  0.1396E-01  0.1579E-01  0.0000E+00  0.0000E+00
      2.285  0.4772E-01  0.4721E-01  0.1437E-01  0.1667E-01  0.0000E+00  0.0000E+00
      2.340  0.4981E-01  0.4871E-01  0.1395E-01  0.1674E-01  0.0000E+00  0.0000E+00
      2.394  0.4890E-01  0.4772E-01  0.1284E-01  0.1586E-01  0.0000E+00  0.0000E+00
      2.449  0.4524E-01  0.4426E-01  0.1160E-01  0.1447E-01  0.0000E+00  0.0000E+00
      2.503  0.4058E-01  0.3933E-01  0.1090E-01  0.1335E-01  0.0000E+00  0.0000E+00
      2.558  0.3714E-01  0.3436E-01  0.1115E-01  0.1308E-01  0.0000E+00  0.0000E+00
      2.612  0.3632E-01  0.3062E-01  0.1236E-01  0.1385E-01  0.0000E+00  0.0000E+00
      2.667  0.3787E-01  0.2881E-01  0.1416E-01  0.1542E-01  0.0000E+00  0.0000E+00
      2.721  0.4009E-01  0.2895E-01  0.1606E-01  0.1734E-01  0.0000E+00  0.0000E+00
      2.775  0.4097E-01  0.3049E-01  0.1768E-01  0.1914E-01  0.0000E+00  0.0000E+00
      2.830  0.3950E-01  0.3253E-01  0.1885E-01  0.2043E-01  0.0000E+00  0.0000E+00
      2.884  0.3616E-01  0.3420E-01  0.1955E-01  0.2100E-01  0.0000E+00  0.0000E+00
      2.939  0.3245E-01  0.3477E-01  0.1984E-01  0.2093E-01  0.0000E+00  0.0000E+00