   36   36    1    2
  0.1314651E+02  0.8250148E-09  0.8250148E-09  0.6953274E-09  0.2000000E-15
  1.000000000000000E-004
  CAR 
 AlMn_pv                                 
    180     52    112
 
  0.0000000E+00  0.0000000E+00  0.0000000E+00  0.6666667E-02
    1       -2.521636     -2.514477   1.000000   1.000000
    2       -0.354298     -0.377248   1.000000   1.000000
    3       -0.347853     -0.344058   1.000000   1.000000
    4       -0.334247     -0.321185   1.000000   1.000000
    5       -0.319954     -0.279635   1.000000   1.000000
    6       -0.113388     -0.119149   1.000000   1.000000
    7        1.351022      1.377684   1.000000   1.000000
    8        1.371488      1.387951   1.000000   1.000000
    9        1.374055      1.401378   1.000000   1.000000
   10        1.389635      1.424571   1.000000   1.000000
   11        1.439770      1.431406   1.000000   1.000000
   12        1.531817      1.550853   1.000000   1.000000
   13        1.573782      1.585580   1.000000   1.000000
   14        1.596885      1.614660   1.000000   1.000000
   15        1.636734      1.652727   1.000000   1.000000
   16        2.704436      2.720782   1.000000   1.000000
   17        2.744048      2.792709   1.000000   1.000000
   18        2.787499      2.831463   1.000000   1.000000
   19        2.835359      2.904297   1.000000   1.000000
   20        3.464331      3.456759   1.000000   1.000000
   21        3.532881      3.546689   1.000000   1.000000
   22        3.538340      3.578314   1.000000   1.000000
   23        3.579931      3.669855   1.000000   1.000000
   24        4.075508      4.072800   1.000000   1.000000
   25        4.156434      4.279899   1.000000   1.000000
   26        4.276166      4.418319   1.000000   1.000000
   27        4.486870      4.514723   1.000000   1.000000
   28        4.507432      4.537642   1.000000   1.000000
   29        4.563276      4.563683   1.000000   1.000000
   30        4.596091      4.588488   1.000000   1.000000
   31        4.615702      4.653069   1.000000   1.000000
   32        4.629272      4.727212   1.000000   1.000000
   33        4.738660      4.737518   1.000000   1.000000
   34        4.740182      4.831361   1.000000   1.000000
   35        4.770175      4.916273   1.000000   1.000000
   36        4.811316      4.945103   1.000000   1.000000
   37        4.823124      5.018005   1.000000   1.000000
   38        4.953050      5.069176   1.000000   1.000000
   39        4.954894      5.084395   1.000000   1.000000
   40        5.141359      5.281563   1.000000   1.000000
   41        5.229841      5.344159   1.000000   1.000000
   42        5.263686      5.349708   1.000000   1.000000
   43        5.350981      5.355835   1.000000   1.000000
   44        5.382346      5.412258   1.000000   1.000000
   45        5.404726      5.425555   1.000000   1.000000
   46        5.416892      5.520060   1.000000   1.000000
   47        5.440892      5.590900   1.000000   1.000000
   48        5.472188      5.591388   1.000000   1.000000
   49        5.540239      5.607290   1.000000   1.000000
   50        5.546031      5.670674   1.000000   1.000000
   51        5.599570      5.702585   1.000000   1.000000
   52        5.611897      5.715225   1.000000   1.000000
   53        5.685078      5.724510   1.000000   1.000000
   54        5.716727      5.816432   1.000000   1.000000
   55        5.741012      5.900105   1.000000   1.000000
   56        5.803883      5.933307   1.000000   1.000000
   57        5.877791      6.147971   1.000000   1.000000
   58        5.913961      6.167826   1.000000   1.000000
   59        5.951925      6.330054   1.000000   1.000000
   60        6.006570      6.383346   1.000000   1.000000
   61        6.180412      6.419493   1.000000   1.000000
   62        6.234466      6.463069   1.000000   1.000000
   63        6.292007      6.473993   1.000000   1.000000
   64        6.349079      6.525617   1.000000   1.000000
   65        6.368721      6.541338   1.000000   1.000000
   66        6.392919      6.558606   1.000000   1.000000
   67        6.398147      6.585980   1.000000   1.000000
   68        6.435949      6.603123   1.000000   1.000000
   69        6.481548      6.628372   1.000000   1.000000
   70        6.522699      6.692629   1.000000   1.000000
   71        6.546158      6.694029   1.000000   1.000000
   72        6.619362      6.711345   1.000000   1.000000
   73        6.626954      6.745607   1.000000   1.000000
   74        6.710846      6.766435   1.000000   1.000000
   75        6.720629      6.847871   1.000000   1.000000
   76        6.772492      6.849702   1.000000   1.000000
   77        6.775590      6.888881   1.000000   1.000000
   78        6.811309      7.059549   1.000000   1.000007
   79        6.901433      7.218010   1.000000   1.000631
   80        6.954578      7.304952   1.000000   1.004028
   81        7.069143      7.314850   1.000010   1.004826
   82        7.142481      7.362048   1.000089   1.010532
   83        7.243384      7.431645   1.001134   1.024758
   84        7.274715      7.508413   1.002221   1.035124
   85        7.314305      7.623763   1.004781   0.921127
   86        7.321552      7.644915   1.005438   0.868474
   87        7.378593      7.751031   1.013340   0.471529
   88        7.407061      7.863525   1.019161   0.081640
   89        7.440878      7.940418   1.026875  -0.023010
   90        7.538125      7.999930   1.028036  -0.035049
   91        7.650823      8.015604   0.851610  -0.033234
   92        7.679826      8.041086   0.757628  -0.028361
   93        7.719955      8.152159   0.602345  -0.007258
   94        7.750920      8.158158   0.471823  -0.006419
   95        7.894596      8.226768   0.023482  -0.001752
   96        7.964067      8.298563  -0.032575  -0.000320
   97        8.019676      8.360535  -0.032580  -0.000061
   98        8.076133      8.394496  -0.020416  -0.000022
   99        8.152052      8.463750  -0.007041  -0.000010
  100        8.168939      8.477339  -0.005394  -0.000002
  101        8.334331      8.578170  -0.000205  -0.000000
  102        8.368772      8.683812  -0.000068  -0.000000
  103        8.458685      8.685159  -0.000006  -0.000000
  104        8.460100      8.807685  -0.000003  -0.000000
  105        8.487072      8.846143  -0.000001  -0.000000
  106        8.669367      8.865150  -0.000000  -0.000000
  107        8.797063      8.866546  -0.000000  -0.000000
  108        8.807411      8.882153  -0.000000  -0.000000
  109        8.825344      8.979565  -0.000000  -0.000000
  110        8.826915      8.982807  -0.000000  -0.000000
  111        8.854552      9.039084  -0.000000  -0.000000
  112        8.870132      9.084789  -0.000000  -0.000000
 
  0.2000000E+00  0.0000000E+00  0.0000000E+00  0.1333333E-01
    1       -2.431120     -2.423933   1.000000   1.000000
    2       -1.104834     -1.098169   1.000000   1.000000
    3       -0.266082     -0.274453   1.000000   1.000000
    4       -0.246954     -0.220953   1.000000   1.000000
    5       -0.047869     -0.053048   1.000000   1.000000
    6        0.563045      0.574229   1.000000   1.000000
    7        0.885382      0.891858   1.000000   1.000000
    8        0.926233      0.923546   1.000000   1.000000
    9        0.933782      0.960467   1.000000   1.000000
   10        1.416327      1.444649   1.000000   1.000000
   11        1.467640      1.492874   1.000000   1.000000
   12        1.483124      1.497900   1.000000   1.000000
   13        1.912087      1.940439   1.000000   1.000000
   14        2.281933      2.318851   1.000000   1.000000
   15        2.296162      2.340379   1.000000   1.000000
   16        2.330351      2.340672   1.000000   1.000000
   17        2.343657      2.363919   1.000000   1.000000
   18        2.809700      2.835784   1.000000   1.000000
   19        3.206714      3.243509   1.000000   1.000000
   20        3.244873      3.331328   1.000000   1.000000
   21        3.562013      3.573518   1.000000   1.000000
   22        3.627172      3.684364   1.000000   1.000000
   23        3.727867      3.756490   1.000000   1.000000
   24        4.053635      4.056628   1.000000   1.000000
   25        4.124096      4.229511   1.000000   1.000000
   26        4.226660      4.329596   1.000000   1.000000
   27        4.300772      4.349170   1.000000   1.000000
   28        4.427891      4.468997   1.000000   1.000000
   29        4.507541      4.542236   1.000000   1.000000
   30        4.533781      4.580868   1.000000   1.000000
   31        4.570609      4.611261   1.000000   1.000000
   32        4.582400      4.689166   1.000000   1.000000
   33        4.630279      4.696744   1.000000   1.000000
   34        4.678240      4.769745   1.000000   1.000000
   35        4.798238      4.936438   1.000000   1.000000
   36        4.876879      4.956544   1.000000   1.000000
   37        4.941546      5.042431   1.000000   1.000000
   38        4.991507      5.091502   1.000000   1.000000
   39        5.031456      5.131807   1.000000   1.000000
   40        5.052690      5.175400   1.000000   1.000000
   41        5.091969      5.196510   1.000000   1.000000
   42        5.240690      5.317289   1.000000   1.000000
   43        5.256141      5.361607   1.000000   1.000000
   44        5.324846      5.389232   1.000000   1.000000
   45        5.409965      5.446543   1.000000   1.000000
   46        5.428045      5.484214   1.000000   1.000000
   47        5.487754      5.555147   1.000000   1.000000
   48        5.500790      5.592627   1.000000   1.000000
   49        5.519017      5.600487   1.000000   1.000000
   50        5.585817      5.683944   1.000000   1.000000
   51        5.646946      5.697968   1.000000   1.000000
   52        5.657924      5.713835   1.000000   1.000000
   53        5.719092      5.815313   1.000000   1.000000
   54        5.752789      5.859125   1.000000   1.000000
   55        5.758182      5.979436   1.000000   1.000000
   56        5.852202      6.005060   1.000000   1.000000
   57        5.930911      6.163174   1.000000   1.000000
   58        5.947137      6.178756   1.000000   1.000000
   59        5.985581      6.306519   1.000000   1.000000
   60        5.999933      6.315488   1.000000   1.000000
   61        6.142854      6.337923   1.000000   1.000000
   62        6.224046      6.387672   1.000000   1.000000
   63        6.264057      6.447522   1.000000   1.000000
   64        6.298090      6.453137   1.000000   1.000000
   65        6.336523      6.528635   1.000000   1.000000
   66        6.340266      6.533304   1.000000   1.000000
   67        6.360208      6.563278   1.000000   1.000000
   68        6.408419      6.588231   1.000000   1.000000
   69        6.474089      6.627995   1.000000   1.000000
   70        6.482114      6.659604   1.000000   1.000000
   71        6.544274      6.707723   1.000000   1.000000
   72        6.614122      6.722822   1.000000   1.000000
   73        6.628767      6.796335   1.000000   1.000000
   74        6.657426      6.805532   1.000000   1.000000
   75        6.708690      6.851686   1.000000   1.000000
   76        6.741026      6.879680   1.000000   1.000000
   77        6.790523      6.959905   1.000000   1.000000
   78        6.818098      7.038041   1.000000   1.000004
   79        6.854750      7.150766   1.000000   1.000112
   80        6.911927      7.222806   1.000000   1.000707
   81        6.940362      7.330549   1.000000   1.006364
   82        7.065416      7.434123   1.000009   1.025335
   83        7.175085      7.480037   1.000215   1.034203
   84        7.224396      7.523330   1.000733   1.032872
   85        7.276430      7.531609   1.002299   1.030511
   86        7.334800      7.647387   1.006838   0.861556
   87        7.367178      7.774452   1.011360   0.373966
   88        7.457578      7.853755   1.030472   0.104969
   89        7.533954      7.938061   1.029699  -0.021593
   90        7.603517      7.940053   0.961192  -0.022778
   91        7.674739      8.033839   0.775538  -0.029905
   92        7.717713      8.039566   0.611346  -0.028710
   93        7.726741      8.146757   0.574133  -0.007685
   94        7.840750      8.195558   0.139710  -0.003210
   95        7.875683      8.217794   0.056123  -0.002051
   96        7.984179      8.305212  -0.035356  -0.000267
   97        8.058482      8.339220  -0.024690  -0.000108
   98        8.089596      8.348177  -0.017451  -0.000086
   99        8.176008      8.421226  -0.004647  -0.000009
  100        8.220479      8.474840  -0.001972  -0.000002
  101        8.240384      8.514620  -0.001317  -0.000000
  102        8.369274      8.548608  -0.000046  -0.000000
  103        8.464293      8.720738  -0.000022  -0.000000
  104        8.525136      8.765805  -0.000004  -0.000000
  105        8.536419      8.806916  -0.000001  -0.000000
  106        8.687542      9.021865  -0.000000  -0.000000
  107        8.777036      9.030487  -0.000000  -0.000000
  108        8.788422      9.074641  -0.000000  -0.000000
  109        8.903164      9.091410  -0.000000  -0.000000
  110        8.935637      9.094093  -0.000000  -0.000000
  111        8.976358      9.114204  -0.000000  -0.000000
  112        9.071317      9.187556  -0.000000  -0.000000
 
  0.4000000E+00  0.0000000E+00  0.0000000E+00  0.1333333E-01
    1       -2.161425     -2.153933   1.000000   1.000000
    2       -1.715545     -1.709116   1.000000   1.000000
    3       -0.020541     -0.028085   1.000000   1.000000
    4       -0.003429      0.023028   1.000000   1.000000
    5        0.146363      0.142963   1.000000   1.000000
    6        0.384466      0.377865   1.000000   1.000000
    7        0.396994      0.423140   1.000000   1.000000
    8        0.462551      0.463118   1.000000   1.000000
    9        1.576028      1.590995   1.000000   1.000000
   10        1.600088      1.627720   1.000000   1.000000
   11        1.658721      1.673796   1.000000   1.000000
   12        1.747304      1.778440   1.000000   1.000000
   13        1.902013      1.943101   1.000000   1.000000
   14        1.967595      1.975629   1.000000   1.000000
   15        2.205497      2.232750   1.000000   1.000000
   16        2.314636      2.363682   1.000000   1.000000
   17        2.673397      2.687022   1.000000   1.000000
   18        2.892747      2.937817   1.000000   1.000000
   19        3.025133      3.053788   1.000000   1.000000
   20        3.525382      3.558239   1.000000   1.000000
   21        3.659735      3.759021   1.000000   1.000000
   22        3.742357      3.795669   1.000000   1.000000
   23        3.775438      3.829133   1.000000   1.000000
   24        3.967263      3.986520   1.000000   1.000000
   25        4.020794      4.066594   1.000000   1.000000
   26        4.095912      4.125777   1.000000   1.000000
   27        4.147909      4.229377   1.000000   1.000000
   28        4.225475      4.325336   1.000000   1.000000
   29        4.276521      4.358687   1.000000   1.000000
   30        4.421711      4.541739   1.000000   1.000000
   31        4.501657      4.561960   1.000000   1.000000
   32        4.544721      4.581380   1.000000   1.000000
   33        4.630735      4.693067   1.000000   1.000000
   34        4.688467      4.723051   1.000000   1.000000
   35        4.813737      4.883739   1.000000   1.000000
   36        4.871460      4.960439   1.000000   1.000000
   37        4.961307      5.024125   1.000000   1.000000
   38        5.016656      5.132973   1.000000   1.000000
   39        5.064303      5.134763   1.000000   1.000000
   40        5.101400      5.217065   1.000000   1.000000
   41        5.139851      5.256450   1.000000   1.000000
   42        5.207304      5.275619   1.000000   1.000000
   43        5.269930      5.354133   1.000000   1.000000
   44        5.283220      5.420821   1.000000   1.000000
   45        5.412794      5.466124   1.000000   1.000000
   46        5.453468      5.485372   1.000000   1.000000
   47        5.497332      5.562486   1.000000   1.000000
   48        5.516544      5.564011   1.000000   1.000000
   49        5.547160      5.596384   1.000000   1.000000
   50        5.594324      5.676899   1.000000   1.000000
   51        5.647717      5.699003   1.000000   1.000000
   52        5.658840      5.703040   1.000000   1.000000
   53        5.697617      5.742970   1.000000   1.000000
   54        5.708868      5.875336   1.000000   1.000000
   55        5.760737      5.940856   1.000000   1.000000
   56        5.803184      6.100477   1.000000   1.000000
   57        5.980658      6.180714   1.000000   1.000000
   58        5.992761      6.193951   1.000000   1.000000
   59        6.080820      6.231266   1.000000   1.000000
   60        6.109557      6.243158   1.000000   1.000000
   61        6.136872      6.289731   1.000000   1.000000
   62        6.172414      6.336227   1.000000   1.000000
   63        6.210056      6.377238   1.000000   1.000000
   64        6.235882      6.398481   1.000000   1.000000
   65        6.257520      6.443272   1.000000   1.000000
   66        6.301830      6.474039   1.000000   1.000000
   67        6.315181      6.515593   1.000000   1.000000
   68        6.384424      6.563603   1.000000   1.000000
   69        6.400454      6.611319   1.000000   1.000000
   70        6.429491      6.646183   1.000000   1.000000
   71        6.467096      6.713806   1.000000   1.000000
   72        6.544514      6.752283   1.000000   1.000000
   73        6.577862      6.840082   1.000000   1.000000
   74        6.664845      6.889163   1.000000   1.000000
   75        6.724029      6.897596   1.000000   1.000000
   76        6.738255      6.953141   1.000000   1.000000
   77        6.761077      7.030933   1.000000   1.000003
   78        6.801896      7.055115   1.000000   1.000006
   79        6.853095      7.115748   1.000000   1.000041
   80        6.863180      7.268149   1.000000   1.001939
   81        6.926248      7.277205   1.000000   1.002340
   82        7.036085      7.337061   1.000003   1.007098
   83        7.131291      7.394095   1.000065   1.016386
   84        7.184959      7.566608   1.000278   1.009296
   85        7.187130      7.583239   1.000294   0.991416
   86        7.279585      7.656717   1.002455   0.834117
   87        7.403996      7.788652   1.018480   0.317355
   88        7.472125      7.858834   1.033094   0.092751
   89        7.533471      7.938692   1.029882  -0.021994
   90        7.665192      7.972745   0.807435  -0.034276
   91        7.733258      7.992170   0.546644  -0.035425
   92        7.779635      8.076299   0.353037  -0.020319
   93        7.783716      8.126774   0.336890  -0.010498
   94        7.836369      8.157429   0.152536  -0.006427
   95        7.939178      8.190196  -0.022254  -0.003557
   96        7.951949      8.243709  -0.028651  -0.001173
   97        8.000489      8.276569  -0.035002  -0.000546
   98        8.052104      8.342903  -0.025878  -0.000097
   99        8.174495      8.375998  -0.004799  -0.000037
  100        8.217724      8.412365  -0.002054  -0.000012
  101        8.259057      8.467101  -0.000845  -0.000002
  102        8.340121      8.522617  -0.000105  -0.000000
  103        8.380510      8.581091  -0.000033  -0.000000
  104        8.428419      8.620150  -0.000008  -0.000000
  105        8.498935      8.729152  -0.000001  -0.000000
  106        8.527464      8.745266  -0.000000  -0.000000
  107        8.625714      9.036863  -0.000000  -0.000000
  108        8.729970      9.144139  -0.000000  -0.000000
  109        8.914954      9.251071  -0.000000  -0.000000
  110        9.005491      9.311356  -0.000000  -0.000000
  111        9.133747      9.352079  -0.000000  -0.000000
  112        9.185588      9.387993  -0.000000  -0.000000
 
  0.0000000E+00  0.2000000E+00  0.0000000E+00  0.1333333E-01
    1       -2.431095     -2.423979   1.000000   1.000000
    2       -1.104979     -1.098345   1.000000   1.000000
    3       -0.267606     -0.255902   1.000000   1.000000
    4       -0.245232     -0.239814   1.000000   1.000000
    5       -0.048004     -0.053033   1.000000   1.000000
    6        0.563199      0.574658   1.000000   1.000000
    7        0.883524      0.892491   1.000000   1.000000
    8        0.921852      0.935896   1.000000   1.000000
    9        0.937648      0.947854   1.000000   1.000000
   10        1.435083      1.446669   1.000000   1.000000
   11        1.467385      1.486899   1.000000   1.000000
   12        1.468491      1.497512   1.000000   1.000000
   13        1.909878      1.945147   1.000000   1.000000
   14        2.297137      2.319832   1.000000   1.000000
   15        2.309383      2.340774   1.000000   1.000000
   16        2.316139      2.341064   1.000000   1.000000
   17        2.331092      2.362495   1.000000   1.000000
   18        2.810906      2.837103   1.000000   1.000000
   19        3.204535      3.264952   1.000000   1.000000
   20        3.246453      3.311781   1.000000   1.000000
   21        3.577674      3.602542   1.000000   1.000000
   22        3.607769      3.650683   1.000000   1.000000
   23        3.725816      3.751934   1.000000   1.000000
   24        4.051342      4.054617   1.000000   1.000000
   25        4.120491      4.215988   1.000000   1.000000
   26        4.246314      4.331515   1.000000   1.000000
   27        4.292686      4.404326   1.000000   1.000000
   28        4.444939      4.453634   1.000000   1.000000
   29        4.510969      4.519416   1.000000   1.000000
   30        4.517837      4.603527   1.000000   1.000000
   31        4.565428      4.618759   1.000000   1.000000
   32        4.575288      4.661333   1.000000   1.000000
   33        4.628376      4.702293   1.000000   1.000000
   34        4.678415      4.742272   1.000000   1.000000
   35        4.778818      4.913869   1.000000   1.000000
   36        4.876113      4.924440   1.000000   1.000000
   37        4.962522      5.066755   1.000000   1.000000
   38        4.990216      5.102972   1.000000   1.000000
   39        5.027926      5.129571   1.000000   1.000000
   40        5.044752      5.150109   1.000000   1.000000
   41        5.099034      5.230612   1.000000   1.000000
   42        5.232547      5.339258   1.000000   1.000000
   43        5.253586      5.377632   1.000000   1.000000
   44        5.352426      5.394696   1.000000   1.000000
   45        5.408023      5.427528   1.000000   1.000000
   46        5.415325      5.513896   1.000000   1.000000
   47        5.458862      5.525184   1.000000   1.000000
   48        5.498487      5.578695   1.000000   1.000000
   49        5.537436      5.605677   1.000000   1.000000
   50        5.565651      5.692395   1.000000   1.000000
   51        5.630871      5.698986   1.000000   1.000000
   52        5.641923      5.733130   1.000000   1.000000
   53        5.714629      5.844357   1.000000   1.000000
   54        5.766090      5.888715   1.000000   1.000000
   55        5.792338      5.920275   1.000000   1.000000
   56        5.840930      5.981100   1.000000   1.000000
   57        5.951965      6.143777   1.000000   1.000000
   58        5.954362      6.205598   1.000000   1.000000
   59        5.970076      6.310233   1.000000   1.000000
   60        6.004640      6.320688   1.000000   1.000000
   61        6.164853      6.352212   1.000000   1.000000
   62        6.219634      6.382152   1.000000   1.000000
   63        6.305390      6.430825   1.000000   1.000000
   64        6.312417      6.471989   1.000000   1.000000
   65        6.354736      6.530161   1.000000   1.000000
   66        6.388560      6.535775   1.000000   1.000000
   67        6.398145      6.552093   1.000000   1.000000
   68        6.419891      6.615043   1.000000   1.000000
   69        6.450277      6.679699   1.000000   1.000000
   70        6.501495      6.690119   1.000000   1.000000
   71        6.545794      6.701570   1.000000   1.000000
   72        6.588432      6.755877   1.000000   1.000000
   73        6.634872      6.775496   1.000000   1.000000
   74        6.657099      6.794813   1.000000   1.000000
   75        6.715634      6.826258   1.000000   1.000000
   76        6.717570      6.907378   1.000000   1.000000
   77        6.774582      6.921159   1.000000   1.000000
   78        6.801224      7.026637   1.000000   1.000002
   79        6.822972      7.138782   1.000000   1.000080
   80        6.909827      7.303529   1.000000   1.003918
   81        6.939238      7.304771   1.000000   1.004014
   82        7.076173      7.400875   1.000012   1.017808
   83        7.131983      7.409172   1.000066   1.019613
   84        7.228612      7.488369   1.000809   1.035025
   85        7.243281      7.531390   1.001132   1.030595
   86        7.348857      7.655176   1.008590   0.838872
   87        7.405318      7.720887   1.018759   0.598137
   88        7.417502      7.868843   1.021501   0.069981
   89        7.526882      7.940956   1.031962  -0.023308
   90        7.535271      8.004570   1.029192  -0.034644
   91        7.679325      8.039021   0.759557  -0.028825
   92        7.744374      8.039844   0.499763  -0.028632
   93        7.764825      8.129186   0.413493  -0.010128
   94        7.812218      8.170599   0.230012  -0.005117
   95        7.890161      8.189261   0.030346  -0.003627
   96        7.980479      8.256368  -0.035144  -0.000883
   97        8.030407      8.321107  -0.030613  -0.000176
   98        8.031197      8.325920  -0.030440  -0.000172
   99        8.180952      8.384770  -0.004238  -0.000032
  100        8.231230      8.462115  -0.001554  -0.000003
  101        8.233605      8.473948  -0.001469  -0.000002
  102        8.352005      8.624316  -0.000076  -0.000000
  103        8.390195      8.696614  -0.000043  -0.000000
  104        8.442344      8.813051  -0.000008  -0.000000
  105        8.509415      8.914247  -0.000001  -0.000000
  106        8.696576      8.964751  -0.000000  -0.000000
  107        8.770387      8.974000  -0.000000  -0.000000
  108        8.796566      9.017045  -0.000000  -0.000000
  109        8.862235      9.031285  -0.000000  -0.000000
  110        8.941712      9.089265  -0.000000  -0.000000
  111        8.947417      9.120992  -0.000000  -0.000000
  112        9.052261      9.138473  -0.000000  -0.000000
 
  0.2000000E+00  0.2000000E+00  0.0000000E+00  0.1333333E-01
    1       -2.340860     -2.333731   1.000000   1.000000
    2       -1.024228     -1.018732   1.000000   1.000000
    3       -1.014040     -1.005332   1.000000   1.000000
    4        0.017412      0.012931   1.000000   1.000000
    5        0.223896      0.234215   1.000000   1.000000
    6        0.637624      0.647477   1.000000   1.000000
    7        0.648190      0.661108   1.000000   1.000000
    8        0.934954      0.952726   1.000000   1.000000
    9        0.961267      0.959656   1.000000   1.000000
   10        1.561002      1.590666   1.000000   1.000000
   11        1.730547      1.740169   1.000000   1.000000
   12        1.751945      1.772477   1.000000   1.000000
   13        1.842172      1.860730   1.000000   1.000000
   14        1.967350      2.000527   1.000000   1.000000
   15        1.984242      2.015931   1.000000   1.000000
   16        2.791767      2.844586   1.000000   1.000000
   17        2.830471      2.880079   1.000000   1.000000
   18        2.856418      2.895898   1.000000   1.000000
   19        2.874300      2.904521   1.000000   1.000000
   20        2.907622      2.934506   1.000000   1.000000
   21        3.629614      3.704376   1.000000   1.000000
   22        3.764555      3.787709   1.000000   1.000000
   23        3.781115      3.815445   1.000000   1.000000
   24        3.811387      3.846733   1.000000   1.000000
   25        4.130950      4.194042   1.000000   1.000000
   26        4.288560      4.345993   1.000000   1.000000
   27        4.323819      4.388310   1.000000   1.000000
   28        4.339462      4.404114   1.000000   1.000000
   29        4.376646      4.431875   1.000000   1.000000
   30        4.408252      4.511244   1.000000   1.000000
   31        4.454786      4.518891   1.000000   1.000000
   32        4.513709      4.595360   1.000000   1.000000
   33        4.650713      4.717887   1.000000   1.000000
   34        4.699793      4.731663   1.000000   1.000000
   35        4.715628      4.811425   1.000000   1.000000
   36        4.833934      4.957780   1.000000   1.000000
   37        4.917738      4.976770   1.000000   1.000000
   38        4.932350      5.012783   1.000000   1.000000
   39        5.063031      5.127890   1.000000   1.000000
   40        5.094824      5.235056   1.000000   1.000000
   41        5.200478      5.289960   1.000000   1.000000
   42        5.238839      5.336818   1.000000   1.000000
   43        5.273790      5.364067   1.000000   1.000000
   44        5.284705      5.404609   1.000000   1.000000
   45        5.399074      5.435200   1.000000   1.000000
   46        5.406369      5.482526   1.000000   1.000000
   47        5.501309      5.548406   1.000000   1.000000
   48        5.513566      5.614781   1.000000   1.000000
   49        5.534862      5.643990   1.000000   1.000000
   50        5.632299      5.658643   1.000000   1.000000
   51        5.691922      5.718973   1.000000   1.000000
   52        5.726761      5.807522   1.000000   1.000000
   53        5.740660      5.818164   1.000000   1.000000
   54        5.774823      5.921321   1.000000   1.000000
   55        5.829797      5.968896   1.000000   1.000000
   56        5.891348      6.015189   1.000000   1.000000
   57        5.921110      6.171629   1.000000   1.000000
   58        5.956425      6.259961   1.000000   1.000000
   59        5.961987      6.272691   1.000000   1.000000
   60        6.001388      6.290943   1.000000   1.000000