       N       E                     dE             d eps       ncg     rms          ort
DAV:   1     0.135129563561E+04    0.13513E+04   -0.58820E+04  5824   0.143E+03
DAV:   2    -0.610374562602E+02   -0.14123E+04   -0.13794E+04  5824   0.438E+02
DAV:   3    -0.237780787945E+03   -0.17674E+03   -0.15867E+03  5824   0.168E+02
DAV:   4    -0.266324570413E+03   -0.28544E+02   -0.25383E+02  5824   0.736E+01
DAV:   5    -0.269427822258E+03   -0.31033E+01   -0.29513E+01  5824   0.218E+01
DAV:   6    -0.269681732429E+03   -0.25391E+00   -0.24697E+00  5824   0.565E+00
DAV:   7    -0.269709784059E+03   -0.28052E-01   -0.27647E-01  5824   0.166E+00
DAV:   8    -0.269712213924E+03   -0.24299E-02   -0.24044E-02  5824   0.432E-01
SDA:   9    -0.624716609009E+02    0.20724E+03   -0.24044E-02  5824   0.230E+04 0.000E+00
CGA:  10    -0.208299264556E+03   -0.14583E+03   -0.14653E+03  5824   0.123E+03 0.356E+03
CGA:  11    -0.217642385318E+03   -0.93431E+01   -0.92445E+01  5824   0.623E+02 0.248E+01
CGA:  12    -0.225413533031E+03   -0.77711E+01   -0.77707E+01  5824   0.942E+02-0.101E+00
CGA:  13    -0.232951504945E+03   -0.75380E+01   -0.75844E+01  5824   0.136E+02 0.599E+00
CGA:  14    -0.233980908410E+03   -0.10294E+01   -0.10402E+01  5824   0.515E+01-0.641E-01
CGA:  15    -0.234748163942E+03   -0.76726E+00   -0.76821E+00  5824   0.665E+01 0.169E-01
CGA:  16    -0.235314616749E+03   -0.56645E+00   -0.56837E+00  5824   0.193E+01-0.261E-02
CGA:  17    -0.235481290157E+03   -0.16667E+00   -0.16680E+00  5824   0.128E+01 0.555E-03
CGA:  18    -0.235654976571E+03   -0.17369E+00   -0.17375E+00  5824   0.131E+01-0.198E-03
CGA:  19    -0.235772379139E+03   -0.11740E+00   -0.11783E+00  5824   0.506E+00-0.293E-02
CGA:  20    -0.235813881058E+03   -0.41502E-01   -0.41630E-01  5824   0.341E+00-0.102E-02
CGA:  21    -0.235874704624E+03   -0.60824E-01   -0.60788E-01  5824   0.438E+00 0.906E-03
CGA:  22    -0.235918631891E+03   -0.43927E-01   -0.43938E-01  5824   0.166E+00-0.247E-03
CGA:  23    -0.235933759592E+03   -0.15128E-01   -0.15123E-01  5824   0.107E+00-0.174E-03
CGA:  24    -0.235949601215E+03   -0.15842E-01   -0.15841E-01  5824   0.155E+00-0.282E-03
CGA:  25    -0.235966827379E+03   -0.17226E-01   -0.17212E-01  5824   0.829E-01-0.377E-03
CGA:  26    -0.235978523127E+03   -0.11696E-01   -0.11695E-01  5824   0.757E-01-0.151E-03
CGA:  27    -0.235987746185E+03   -0.92231E-02   -0.92177E-02  5824   0.661E-01-0.598E-04
CGA:  28    -0.235993537345E+03   -0.57912E-02   -0.57892E-02  5824   0.247E-01 0.918E-04
CGA:  29    -0.235996933634E+03   -0.33963E-02   -0.33965E-02  5824   0.265E-01 0.527E-04
CGA:  30    -0.236000372619E+03   -0.34390E-02   -0.34394E-02  5824   0.241E-01 0.625E-04
CGA:  31    -0.236002976862E+03   -0.26042E-02   -0.26055E-02  5824   0.155E-01 0.562E-04
CGA:  32    -0.236005079716E+03   -0.21029E-02   -0.21031E-02  5824   0.134E-01 0.608E-04
CGA:  33    -0.236006816060E+03   -0.17363E-02   -0.17370E-02  5824   0.959E-02 0.699E-04
CGA:  34    -0.236007680011E+03   -0.86395E-03   -0.86623E-03  5824   0.580E-02 0.585E-04
CGA:  35    -0.236008445361E+03   -0.76535E-03   -0.76567E-03  5824   0.432E-02 0.506E-04
CGA:  36    -0.236009015914E+03   -0.57055E-03   -0.57075E-03  5824   0.350E-02 0.298E-04
CGA:  37    -0.236009494362E+03   -0.47845E-03   -0.47847E-03  5824   0.351E-02 0.170E-04
CGA:  38    -0.236009970694E+03   -0.47633E-03   -0.47637E-03  5824   0.265E-02 0.232E-04
CGA:  39    -0.236010213309E+03   -0.24261E-03   -0.24329E-03  5824   0.105E-02 0.128E-04
SDA:  40    -0.236010340538E+03   -0.12723E-03   -0.12730E-03  5824   0.107E-02 0.525E-05
CGA:  41    -0.236010418694E+03   -0.78156E-04   -0.77816E-04  5824   0.859E-03-0.573E-05
CGA:  42    -0.236010556066E+03   -0.13737E-03   -0.13789E-03  5824   0.627E-03-0.170E-04
CGA:  43    -0.236010647841E+03   -0.91776E-04   -0.91916E-04  5824   0.706E-03-0.811E-05
CGA:  44    -0.236010726245E+03   -0.78404E-04   -0.78288E-04  5824   0.342E-03-0.560E-05
CGA:  45    -0.236010767268E+03   -0.41023E-04   -0.40967E-04  5824   0.372E-03-0.496E-05
CGA:  46    -0.236010824584E+03   -0.57316E-04   -0.57526E-04  5824   0.236E-03-0.840E-05
CGA:  47    -0.236010861965E+03   -0.37381E-04   -0.37429E-04  5824   0.334E-03-0.171E-05
CGA:  48    -0.236010906395E+03   -0.44430E-04   -0.44430E-04  5824   0.200E-03 0.408E-06
CGA:  49    -0.236010923528E+03   -0.17132E-04   -0.17163E-04  5824   0.165E-03 0.879E-06
CGA:  50    -0.236010954108E+03   -0.30581E-04   -0.30536E-04  5824   0.125E-03 0.929E-06
CGA:  51    -0.236010964196E+03   -0.10088E-04   -0.10129E-04  5824   0.499E-04 0.955E-06
CGA:  52    -0.236010977056E+03   -0.12860E-04   -0.12608E-04  5824   0.887E-04 0.221E-05
CGA:  53    -0.236010984334E+03   -0.72773E-05   -0.73557E-05  5824   0.351E-04 0.132E-05
CGA:  54    -0.236010989902E+03   -0.55689E-05   -0.55514E-05  5824   0.531E-04 0.883E-06
CGA:  55    -0.236010998107E+03   -0.82045E-05   -0.81915E-05  5824   0.123E-04 0.977E-06
CGA:  56    -0.236010999315E+03   -0.12077E-05   -0.11980E-05  5824   0.138E-04-0.217E-06
CGA:  57    -0.236011002983E+03   -0.36685E-05   -0.38657E-05  5824   0.252E-04-0.134E-05
CGA:  58    -0.236011004697E+03   -0.17141E-05   -0.17045E-05  5824   0.852E-05-0.153E-06
CGA:  59    -0.236011005947E+03   -0.12498E-05   -0.12453E-05  5824   0.918E-05 0.633E-06
CGA:  60    -0.236011007011E+03   -0.10637E-05   -0.10727E-05  5824   0.755E-05 0.312E-06
CGA:  61    -0.236011008221E+03   -0.12105E-05   -0.12146E-05  5824   0.450E-05-0.220E-06
CGA:  62    -0.236011008597E+03   -0.37584E-06   -0.37103E-06  5824   0.266E-05-0.932E-07
CGA:  63    -0.236011009121E+03   -0.52386E-06   -0.52054E-06  5824   0.552E-05 0.670E-07
CGA:  64    -0.236011009685E+03   -0.56424E-06   -0.57136E-06  5824   0.194E-05 0.180E-06
CGA:  65    -0.236011009913E+03   -0.22814E-06   -0.22962E-06  5824   0.118E-05 0.530E-07
CGA:  66    -0.236011010039E+03   -0.12573E-06   -0.12526E-06  5824   0.533E-06-0.295E-07
CGA:  67    -0.236011010111E+03   -0.72348E-07   -0.71777E-07  5824   0.107E-05-0.836E-07
CGA:  68    -0.236011010394E+03   -0.28213E-06   -0.42253E-06  5824   0.422E-05-0.408E-06
CGA:  69    -0.236011010508E+03   -0.11393E-06   -0.11597E-06  5824   0.126E-05 0.440E-07
CGA:  70    -0.236011010531E+03   -0.23654E-07   -0.38224E-07  5824   0.174E-06 0.137E-06
   1 F= -.23601101E+03 E0= -.23600891E+03  d E =-.630391E-02  mag=     4.5246
