 vasp.5.4.4.18Apr17-6-g9f103f2a35 (build Dec 20 2018 12:05:58) complex          
  
 executed on             LinuxIFC date 2019.06.20  17:03:26
 running on   32 total cores
 distrk:  each k-point on    8 cores,    4 groups
 distr:  one band on NCORES_PER_BAND=   4 cores,    2 groups


--------------------------------------------------------------------------------------------------------


 INCAR:
 POTCAR:    PAW_PBE Al 04Jan2001                  
 POTCAR:    PAW_PBE Mn 06Sep2000                  

 ----------------------------------------------------------------------------- 
|                                                                             |
|           W    W    AA    RRRRR   N    N  II  N    N   GGGG   !!!           |
|           W    W   A  A   R    R  NN   N  II  NN   N  G    G  !!!           |
|           W    W  A    A  R    R  N N  N  II  N N  N  G       !!!           |
|           W WW W  AAAAAA  RRRRR   N  N N  II  N  N N  G  GGG   !            |
|           WW  WW  A    A  R   R   N   NN  II  N   NN  G    G                |
|           W    W  A    A  R    R  N    N  II  N    N   GGGG   !!!           |
|                                                                             |
|      You have enabled k-point parallelism (KPAR>1).                         |
|      This developmental code was originally  written by Paul Kent at ORNL,  |
|      and carefully double checked in Vienna.                                |
|      GW as well as linear response parallelism added by Martijn Marsman     |
|      and Georg Kresse.                                                      |
|      Carefully verify results versus KPAR=1.                                |
|      Report problems to Paul Kent and Vienna.                               |
|                                                                             |
 ----------------------------------------------------------------------------- 

 POTCAR:    PAW_PBE Al 04Jan2001                  
   VRHFIN =Al: s2p1                                                             
   LEXCH  = PE                                                                  
   EATOM  =    53.5387 eV,    3.9350 Ry                                         
                                                                                
   TITEL  = PAW_PBE Al 04Jan2001                                                
   LULTRA =        F    use ultrasoft PP ?                                      
   IUNSCR =        1    unscreen: 0-lin 1-nonlin 2-no                           
   RPACOR =    1.500    partial core radius                                     
   POMASS =   26.981; ZVAL   =    3.000    mass and valenz                      
   RCORE  =    1.900    outmost cutoff radius                                   
   RWIGS  =    2.650; RWIGS  =    1.402    wigner-seitz radius (au A)           
   ENMAX  =  240.300; ENMIN  =  180.225 eV                                      
   ICORE  =        2    local potential                                         
   LCOR   =        T    correct aug charges                                     
   LPAW   =        T    paw PP                                                  
   EAUG   =  291.052                                                            
   DEXC   =    0.000                                                            
   RMAX   =    1.939    core radius for proj-oper                               
   RAUG   =    1.300    factor for augmentation sphere                          
   RDEP   =    1.966    radius for radial grids                                 
   RDEPT  =    1.856    core radius for aug-charge                              
                                                                                
   Atomic configuration                                                         
    6 entries                                                                   
     n  l   j            E        occ.                                          
     1  0  0.50     -1511.1048   2.0000                                         
     2  0  0.50      -108.1629   2.0000                                         
     2  1  1.50       -69.6402   6.0000                                         
     3  0  0.50        -7.7528   2.0000                                         
     3  1  1.50        -2.7121   1.0000                                         
     3  2  2.50        -2.7212   0.0000                                         
   Description                                                                  
     l       E           TYP  RCUT    TYP  RCUT                                 
     0     -7.7528455     23  1.900                                             
     0     -3.3096929     23  1.900                                             
     1     -2.7120682     23  1.900                                             
     1     13.6058260     23  1.900                                             
     2     -2.7211652      7  1.900                                             
  local pseudopotential read in
  partial core-charges read in
  partial kinetic energy density read in
  atomic valenz-charges read in
  non local Contribution for L=           0  read in
    real space projection operators read in
  non local Contribution for L=           0  read in
    real space projection operators read in
  non local Contribution for L=           1  read in
    real space projection operators read in
  non local Contribution for L=           1  read in
    real space projection operators read in
    PAW grid and wavefunctions read in
 
   number of l-projection  operators is LMAX  =           4
   number of lm-projection operators is LMMAX =           8
 
 POTCAR:    PAW_PBE Mn 06Sep2000                  
   VRHFIN =Mn: d6 s1                                                            
   LEXCH  = PE                                                                  
   EATOM  =   416.7541 eV,   30.6306 Ry                                         
                                                                                
   TITEL  = PAW_PBE Mn 06Sep2000                                                
   LULTRA =        F    use ultrasoft PP ?                                      
   IUNSCR =        1    unscreen: 0-lin 1-nonlin 2-no                           
   RPACOR =    2.000    partial core radius                                     
   POMASS =   54.938; ZVAL   =    7.000    mass and valenz                      
   RCORE  =    2.300    outmost cutoff radius                                   
   RWIGS  =    2.500; RWIGS  =    1.323    wigner-seitz radius (au A)           
   ENMAX  =  269.864; ENMIN  =  202.398 eV                                      
   RCLOC  =    1.725    cutoff for local pot                                    
   LCOR   =        T    correct aug charges                                     
   LPAW   =        T    paw PP                                                  
   EAUG   =  500.711                                                            
   DEXC   =    0.000                                                            
   RMAX   =    2.343    core radius for proj-oper                               
   RAUG   =    1.300    factor for augmentation sphere                          
   RDEP   =    2.338    radius for radial grids                                 
   RDEPT  =    1.911    core radius for aug-charge                              
                                                                                
   Atomic configuration                                                         
    9 entries                                                                   
     n  l   j            E        occ.                                          
     1  0  0.50     -6424.8288   2.0000                                         
     2  0  0.50      -739.1154   2.0000                                         
     2  1  1.50      -625.3949   6.0000                                         
     3  0  0.50       -81.6100   2.0000                                         
     3  1  1.50       -50.4667   6.0000                                         
     3  2  2.50        -3.3745   6.0000                                         
     4  0  0.50        -4.1331   1.0000                                         
     4  1  0.50        -4.0817   0.0000                                         
     4  3  2.50        -1.3606   0.0000                                         
   Description                                                                  
     l       E           TYP  RCUT    TYP  RCUT                                 
     2     -3.3744664     23  2.300                                             
     2     -4.7350490     23  2.300                                             
     0     -4.1331408     23  2.300                                             
     0      7.6656614     23  2.300                                             
     1     -2.7211652     23  2.300                                             
     1     20.4087390     23  2.300                                             
  local pseudopotential read in
  partial core-charges read in
  partial kinetic energy density read in
  atomic valenz-charges read in
  non local Contribution for L=           2  read in
    real space projection operators read in
  non local Contribution for L=           2  read in
    real space projection operators read in
  non local Contribution for L=           0  read in
    real space projection operators read in
  non local Contribution for L=           0  read in
    real space projection operators read in
  non local Contribution for L=           1  read in
    real space projection operators read in
  non local Contribution for L=           1  read in
    real space projection operators read in
    PAW grid and wavefunctions read in
 
   number of l-projection  operators is LMAX  =           6
   number of lm-projection operators is LMMAX =          18
 

 ----------------------------------------------------------------------------- 
|                                                                             |
|  ADVICE TO THIS USER RUNNING 'VASP/VAMP'   (HEAR YOUR MASTER'S VOICE ...):  |
|                                                                             |
|      You have a (more or less) 'large supercell' and for larger cells       |
|      it might be more efficient to use real space projection opertators     |
|      So try LREAL= Auto  in the INCAR   file.                               |
|      Mind:          For very  accurate calculation you might also keep the  |
|      reciprocal projection scheme          (i.e. LREAL=.FALSE.)             |
|                                                                             |
 ----------------------------------------------------------------------------- 

  PAW_PBE Al 04Jan2001                  :
 energy of atom  1       EATOM=  -53.5387
 kinetic energy error for atom=    0.0005 (will be added to EATOM!!)
  PAW_PBE Mn 06Sep2000                  :
 energy of atom  2       EATOM= -416.7541
 kinetic energy error for atom=    0.0080 (will be added to EATOM!!)
 
 
 POSCAR: NewRef: 18, @ ['Mn', array([1.37502469, 
  positions in cartesian coordinates
  velocities in cartesian coordinates
  No initial velocities read in
 exchange correlation table for  LEXCH =        8
   RHO(1)=    0.500       N(1)  =     2000
   RHO(2)=  100.500       N(2)  =     4000
 


--------------------------------------------------------------------------------------------------------


 ion  position               nearest neighbor table
   1  0.000  0.000  0.000-  20 2.61  24 2.61  32 2.61  36 2.61  31 2.61  23 2.61  35 2.61  19 2.61
                             3 2.75   7 2.75   5 2.75  13 2.75
   2  0.000  0.000  0.500-  19 2.61  23 2.61  31 2.61  35 2.61  20 2.61  32 2.61  24 2.61  36 2.61
                             4 2.75   8 2.75   6 2.75  14 2.75
   3  0.000  0.333  0.000-  20 2.61  32 2.61  22 2.61  34 2.61  19 2.61  31 2.61  33 2.61  21 2.61
                             9 2.75   1 2.75   5 2.75  15 2.75
   4  0.000  0.333  0.500-  19 2.61  31 2.61  21 2.61  33 2.61  32 2.61  20 2.61  22 2.61  34 2.61
                            10 2.75   2 2.75   6 2.75  16 2.75
   5  0.000  0.667  0.000-  22 2.61  34 2.61  24 2.61  36 2.61  21 2.61  33 2.61  35 2.61  23 2.61
                             3 2.75  11 2.75   1 2.75  17 2.75
   6  0.000  0.667  0.500-  21 2.61  33 2.61  23 2.61  35 2.61  34 2.61  22 2.61  24 2.61  36 2.61
                             4 2.75  12 2.75   2 2.75  18 2.75
   7  0.333  0.000  0.000-  20 2.61  24 2.61  26 2.61  30 2.61  23 2.61  19 2.61  29 2.61  25 2.61
                            13 2.75   1 2.75   9 2.75  11 2.75
   8  0.333  0.000  0.500-  19 2.61  23 2.61  25 2.61  29 2.61  20 2.61  24 2.61  26 2.61  30 2.61
                            14 2.75   2 2.75  10 2.75  12 2.75
   9  0.333  0.333  0.000-  20 2.61  22 2.61  26 2.61  19 2.61  28 2.61  21 2.61  25 2.61  27 2.61
                             3 2.75   7 2.75  11 2.75  15 2.75
  10  0.333  0.333  0.500-  19 2.61  21 2.61  25 2.61  20 2.61  27 2.61  26 2.61  22 2.61  28 2.61
                             4 2.75   8 2.75  12 2.75  16 2.75
  11  0.333  0.667  0.000-  22 2.61  24 2.61  28 2.61  21 2.61  30 2.61  23 2.61  27 2.61  29 2.61
                            17 2.75   5 2.75   9 2.75   7 2.75
  12  0.333  0.667  0.500-  21 2.61  23 2.61  27 2.61  22 2.61  29 2.61  28 2.61  24 2.61  30 2.61
                            18 2.75   6 2.75  10 2.75   8 2.75
  13  0.667  0.000  0.000-  26 2.61  30 2.61  32 2.61  36 2.61  29 2.61  25 2.61  35 2.61  31 2.61
                             7 2.75  15 2.75   1 2.75  17 2.75
  14  0.667  0.000  0.500-  25 2.61  29 2.61  31 2.61  35 2.61  26 2.61  30 2.61  32 2.61  36 2.61
                             8 2.75  16 2.75   2 2.75  18 2.75
  15  0.667  0.333  0.000-  26 2.61  28 2.61  32 2.61  25 2.61  34 2.61  27 2.61  31 2.61  33 2.61
                            17 2.75   9 2.75  13 2.75   3 2.75
  16  0.667  0.333  0.500-  25 2.61  27 2.61  31 2.61  26 2.61  33 2.61  32 2.61  28 2.61  34 2.61
                            18 2.75  10 2.75  14 2.75   4 2.75
  17  0.667  0.667  0.000-  28 2.61  30 2.61  34 2.61  27 2.61  36 2.61  29 2.61  33 2.61  35 2.61
                            11 2.75  15 2.75  13 2.75   5 2.75
  18  0.667  0.667  0.500-  27 2.61  29 2.61  33 2.61  28 2.61  35 2.61  34 2.61  30 2.61  36 2.61
                            12 2.75  16 2.75  14 2.75   6 2.75
  19  0.167  0.167  0.250-  10 2.61   8 2.61   4 2.61   9 2.61   2 2.61   7 2.61   3 2.61   1 2.61
                            21 2.75  25 2.75  23 2.75  31 2.75
  20  0.167  0.167  0.750-   9 2.61   7 2.61   3 2.61  10 2.61   1 2.61   4 2.61   8 2.61   2 2.61
                            22 2.75  26 2.75  24 2.75  32 2.75
  21  0.167  0.500  0.250-  12 2.61  10 2.61   6 2.61  11 2.61   4 2.61   9 2.61   5 2.61   3 2.61
                            19 2.75  23 2.75  27 2.75  33 2.75
  22  0.167  0.500  0.750-  11 2.61   9 2.61   5 2.61  12 2.61   3 2.61   6 2.61  10 2.61   4 2.61
                            20 2.75  24 2.75  28 2.75  34 2.75
  23  0.167  0.833  0.250-   8 2.61  12 2.61   2 2.61   6 2.61  11 2.61   7 2.61   5 2.61   1 2.61
                            21 2.75  29 2.75  19 2.75  35 2.75
  24  0.167  0.833  0.750-   7 2.61  11 2.61   1 2.61   5 2.61   8 2.61  12 2.61   2 2.61   6 2.61
                            22 2.75  30 2.75  20 2.75  36 2.75
  25  0.500  0.167  0.250-  16 2.61  14 2.61  10 2.61  15 2.61   8 2.61  13 2.61   9 2.61   7 2.61
                            19 2.75  27 2.75  31 2.75  29 2.75
  26  0.500  0.167  0.750-  15 2.61  13 2.61   9 2.61  16 2.61   7 2.61  10 2.61  14 2.61   8 2.61
                            20 2.75  28 2.75  32 2.75  30 2.75
  27  0.500  0.500  0.250-  18 2.61  16 2.61  12 2.61  17 2.61  10 2.61  15 2.61  11 2.61   9 2.61
                            21 2.75  25 2.75  29 2.75  33 2.75
  28  0.500  0.500  0.750-  17 2.61  15 2.61  11 2.61  18 2.61   9 2.61  12 2.61  16 2.61  10 2.61
                            22 2.75  26 2.75  30 2.75  34 2.75
  29  0.500  0.833  0.250-  14 2.61  18 2.61   8 2.61  12 2.61  17 2.61  13 2.61  11 2.61   7 2.61
                            23 2.75  27 2.75  35 2.75  25 2.75
  30  0.500  0.833  0.750-  13 2.61  17 2.61   7 2.61  11 2.61  14 2.61  18 2.61   8 2.61  12 2.61
                            24 2.75  28 2.75  36 2.75  26 2.75
  31  0.833  0.167  0.250-   4 2.61  16 2.61  14 2.61   2 2.61  15 2.61   3 2.61  13 2.61   1 2.61
                            25 2.75  33 2.75  19 2.75  35 2.75
  32  0.833  0.167  0.750-   3 2.61  15 2.61  13 2.61   1 2.61   4 2.61  16 2.61   2 2.61  14 2.61
                            26 2.75  34 2.75  20 2.75  36 2.75
  33  0.833  0.500  0.250-   6 2.61  18 2.61  16 2.61   4 2.61  17 2.61   5 2.61  15 2.61   3 2.61
                            27 2.75  31 2.75  35 2.75  21 2.75
  34  0.833  0.500  0.750-   5 2.61  17 2.61  15 2.61   3 2.61   6 2.61  18 2.61   4 2.61  16 2.61
                            28 2.75  32 2.75  36 2.75  22 2.75
  35  0.833  0.833  0.250-   2 2.61   6 2.61  14 2.61  18 2.61  13 2.61   5 2.61  17 2.61   1 2.61
                            29 2.75  33 2.75  31 2.75  23 2.75
  36  0.833  0.833  0.750-   1 2.61   5 2.61  13 2.61  17 2.61   2 2.61  14 2.61   6 2.61  18 2.61
                            30 2.75  34 2.75  32 2.75  24 2.75
 
  LATTYP: Found a simple tetragonal cell.
 ALAT       =     8.2501481662
 C/A-ratio  =     0.8428059861
  
  Lattice vectors:
  
 A1 = (   8.2501481662,   0.0000000000,   0.0000000000)
 A2 = (   0.0000000000,   8.2501481662,   0.0000000000)
 A3 = (   0.0000000000,   0.0000000000,   6.9532742610)


Analysis of symmetry for initial positions (statically):
=====================================================================
 Subroutine PRICEL returns following result:
 
  LATTYP: Found a simple tetragonal cell.
 ALAT       =     2.7500493888
 C/A-ratio  =     1.2642089792
  
  Lattice vectors:
  
 A1 = (   2.7500493888,   0.0000000000,   0.0000000000)
 A2 = (   0.0000000000,   2.7500493888,   0.0000000000)
 A3 = (   0.0000000000,   0.0000000000,   3.4766371305)
 
  18 primitive cells build up your supercell.
 

 Routine SETGRP: Setting up the symmetry group for a 
 simple tetragonal supercell.


 Subroutine GETGRP returns: Found 16 space group operations
 (whereof 16 operations were pure point group operations)
 out of a pool of 16 trial point group operations.


The static configuration has the point symmetry D_4h.


Analysis of symmetry for dynamics (positions and initial velocities):
=====================================================================
 Subroutine PRICEL returns following result:
 
  LATTYP: Found a simple tetragonal cell.
 ALAT       =     2.7500493888
 C/A-ratio  =     1.2642089792
  
  Lattice vectors:
  
 A1 = (   2.7500493888,   0.0000000000,   0.0000000000)
 A2 = (   0.0000000000,   2.7500493888,   0.0000000000)
 A3 = (   0.0000000000,   0.0000000000,   3.4766371305)
 
  18 primitive cells build up your supercell.
 

 Routine SETGRP: Setting up the symmetry group for a 
 simple tetragonal supercell.


 Subroutine GETGRP returns: Found 16 space group operations
 (whereof 16 operations were pure point group operations)
 out of a pool of 16 trial point group operations.


The dynamic configuration has the point symmetry D_4h.


Analysis of structural, dynamic, and magnetic symmetry:
=====================================================================
 Subroutine PRICEL returns:
 Original cell was already a primitive cell.
 

 Routine SETGRP: Setting up the symmetry group for a 
 simple tetragonal supercell.


 Subroutine GETGRP returns: Found  2 space group operations
 (whereof  1 operations were pure point group operations)
 out of a pool of 16 trial point group operations.


The magnetic configuration has the point symmetry C_1 .
 The point group associated with its full space group is C_1h.


 Subroutine INISYM returns: Found  2 space group operations
 (whereof  1 operations are pure point group operations),
 and found     1 'primitive' translations

 
 
 KPOINTS: automatic KPOINTS                       

Automatic generation of k-mesh.
 generate k-points for:    5    5    6
Space group operators:
 irot       det(A)        alpha          n_x          n_y          n_z        tau_x        tau_y        tau_z
    1     1.000000     0.000001     1.000000     0.000000     0.000000     0.000000     0.000000     0.000000
    2    -1.000000   179.999999     0.000000     0.000000     1.000000     0.000000     0.000000     0.500000
 
 Subroutine IBZKPT returns following result:
 ===========================================
 
 Found     52 irreducible k-points:
 
 Following reciprocal coordinates:
            Coordinates               Weight
  0.000000  0.000000  0.000000      1.000000
  0.200000  0.000000  0.000000      2.000000
  0.400000  0.000000  0.000000      2.000000
  0.000000  0.200000  0.000000      2.000000
  0.200000  0.200000  0.000000      2.000000
  0.400000  0.200000  0.000000      2.000000
 -0.400000  0.200000  0.000000      2.000000
 -0.200000  0.200000  0.000000      2.000000
  0.000000  0.400000  0.000000      2.000000
  0.200000  0.400000  0.000000      2.000000
  0.400000  0.400000  0.000000      2.000000
 -0.400000  0.400000  0.000000      2.000000
 -0.200000  0.400000  0.000000      2.000000
  0.000000  0.000000  0.166667      2.000000
  0.200000  0.000000  0.166667      4.000000
  0.400000  0.000000  0.166667      4.000000
  0.000000  0.200000  0.166667      4.000000
  0.200000  0.200000  0.166667      4.000000
  0.400000  0.200000  0.166667      4.000000
 -0.400000  0.200000  0.166667      4.000000
 -0.200000  0.200000  0.166667      4.000000
  0.000000  0.400000  0.166667      4.000000
  0.200000  0.400000  0.166667      4.000000
  0.400000  0.400000  0.166667      4.000000
 -0.400000  0.400000  0.166667      4.000000
 -0.200000  0.400000  0.166667      4.000000
  0.000000  0.000000  0.333333      2.000000
  0.200000  0.000000  0.333333      4.000000
  0.400000  0.000000  0.333333      4.000000
  0.000000  0.200000  0.333333      4.000000
  0.200000  0.200000  0.333333      4.000000
  0.400000  0.200000  0.333333      4.000000
 -0.400000  0.200000  0.333333      4.000000
 -0.200000  0.200000  0.333333      4.000000
  0.000000  0.400000  0.333333      4.000000
  0.200000  0.400000  0.333333      4.000000
  0.400000  0.400000  0.333333      4.000000
 -0.400000  0.400000  0.333333      4.000000
 -0.200000  0.400000  0.333333      4.000000
  0.000000  0.000000  0.500000      1.000000
  0.200000  0.000000  0.500000      2.000000
  0.400000  0.000000  0.500000      2.000000
  0.000000  0.200000  0.500000      2.000000
  0.200000  0.200000  0.500000      2.000000
  0.400000  0.200000  0.500000      2.000000
 -0.400000  0.200000  0.500000      2.000000
 -0.200000  0.200000  0.500000      2.000000
  0.000000  0.400000  0.500000      2.000000
  0.200000  0.400000  0.500000      2.000000
  0.400000  0.400000  0.500000      2.000000
 -0.400000  0.400000  0.500000      2.000000
 -0.200000  0.400000  0.500000      2.000000
 
 Following cartesian coordinates:
            Coordinates               Weight
  0.000000  0.000000  0.000000      1.000000
  0.024242  0.000000  0.000000      2.000000
  0.048484  0.000000  0.000000      2.000000
  0.000000  0.024242  0.000000      2.000000
  0.024242  0.024242  0.000000      2.000000
  0.048484  0.024242  0.000000      2.000000
 -0.048484  0.024242  0.000000      2.000000
 -0.024242  0.024242  0.000000      2.000000
  0.000000  0.048484  0.000000      2.000000
  0.024242  0.048484  0.000000      2.000000
  0.048484  0.048484  0.000000      2.000000
 -0.048484  0.048484  0.000000      2.000000
 -0.024242  0.048484  0.000000      2.000000
  0.000000  0.000000  0.023970      2.000000
  0.024242  0.000000  0.023970      4.000000
  0.048484  0.000000  0.023970      4.000000
  0.000000  0.024242  0.023970      4.000000
  0.024242  0.024242  0.023970      4.000000
  0.048484  0.024242  0.023970      4.000000
 -0.048484  0.024242  0.023970      4.000000
 -0.024242  0.024242  0.023970      4.000000
  0.000000  0.048484  0.023970      4.000000
  0.024242  0.048484  0.023970      4.000000
  0.048484  0.048484  0.023970      4.000000
 -0.048484  0.048484  0.023970      4.000000
 -0.024242  0.048484  0.023970      4.000000
  0.000000  0.000000  0.047939      2.000000
  0.024242  0.000000  0.047939      4.000000
  0.048484  0.000000  0.047939      4.000000
  0.000000  0.024242  0.047939      4.000000
  0.024242  0.024242  0.047939      4.000000
  0.048484  0.024242  0.047939      4.000000
 -0.048484  0.024242  0.047939      4.000000
 -0.024242  0.024242  0.047939      4.000000
  0.000000  0.048484  0.047939      4.000000
  0.024242  0.048484  0.047939      4.000000
  0.048484  0.048484  0.047939      4.000000
 -0.048484  0.048484  0.047939      4.000000
 -0.024242  0.048484  0.047939      4.000000
  0.000000  0.000000  0.071909      1.000000
  0.024242  0.000000  0.071909      2.000000
  0.048484  0.000000  0.071909      2.000000
  0.000000  0.024242  0.071909      2.000000
  0.024242  0.024242  0.071909      2.000000
  0.048484  0.024242  0.071909      2.000000
 -0.048484  0.024242  0.071909      2.000000
 -0.024242  0.024242  0.071909      2.000000
  0.000000  0.048484  0.071909      2.000000
  0.024242  0.048484  0.071909      2.000000
  0.048484  0.048484  0.071909      2.000000
 -0.048484  0.048484  0.071909      2.000000
 -0.024242  0.048484  0.071909      2.000000
 


--------------------------------------------------------------------------------------------------------




 Dimension of arrays:
   k-points           NKPTS =     52   k-points in BZ     NKDIM =     52   number of bands    NBANDS=    112
   number of dos      NEDOS =    301   number of ions     NIONS =     36
   non local maximal  LDIM  =      6   non local SUM 2l+1 LMDIM =     18
   total plane-waves  NPLWV = 139968
   max r-space proj   IRMAX =      1   max aug-charges    IRDMAX=  92271
   dimension x,y,z NGX =    54 NGY =   54 NGZ =   48
   dimension x,y,z NGXF=   108 NGYF=  108 NGZF=   96
   support grid    NGXF=   216 NGYF=  216 NGZF=  192
   ions per type =              18  18
   NGX,Y,Z   is equivalent  to a cutoff of  10.88, 10.88, 11.48 a.u.
   NGXF,Y,Z  is equivalent  to a cutoff of  21.76, 21.76, 22.95 a.u.

 SYSTEM =  AlMn_pv                                 
 POSCAR =  NewRef: 18, @ ['Mn', array([1.37502469, 

 Startparameter for this run:
   NWRITE =      2    write-flag & timer
   PREC   = accura    normal or accurate (medium, high low for compatibility)
   ISTART =      0    job   : 0-new  1-cont  2-samecut
   ICHARG =      2    charge: 1-file 2-atom 10-const
   ISPIN  =      2    spin polarized calculation?
   LNONCOLLINEAR =      F non collinear calculations
   LSORBIT =      F    spin-orbit coupling
   INIWAV =      1    electr: 0-lowe 1-rand  2-diag
   LASPH  =      F    aspherical Exc in radial PAW
   METAGGA=      F    non-selfconsistent MetaGGA calc.

 Electronic Relaxation 1
   ENCUT  =  404.8 eV  29.75 Ry    5.45 a.u.  13.53 13.53 11.41*2*pi/ulx,y,z
   ENINI  =  404.8     initial cutoff
   ENAUG  =  500.7 eV  augmentation charge cutoff
   NELM   =    100;   NELMIN=  4; NELMDL= -8     # of ELM steps 
   EDIFF  = 0.1E-06   stopping-criterion for ELM
   LREAL  =      F    real-space projection
   NLSPLINE    = F    spline interpolate recip. space projectors
   LCOMPAT=      F    compatible to vasp.4.4
   GGA_COMPAT  = T    GGA compatible to vasp.4.4-vasp.4.6
   LMAXPAW     = -100 max onsite density
   LMAXMIX     =    2 max onsite mixed and CHGCAR
   VOSKOWN=      0    Vosko Wilk Nusair interpolation
   ROPT   =    0.00000   0.00000
 Ionic relaxation
   EDIFFG = 0.1E-05   stopping-criterion for IOM
   NSW    =      0    number of steps for IOM
   NBLOCK =      1;   KBLOCK =      1    inner block; outer block 
   IBRION =     -1    ionic relax: 0-MD 1-quasi-New 2-CG
   NFREE  =      0    steps in history (QN), initial steepest desc. (CG)
   ISIF   =      2    stress and relaxation
   IWAVPR =     10    prediction:  0-non 1-charg 2-wave 3-comb
   ISYM   =      2    0-nonsym 1-usesym 2-fastsym
   LCORR  =      T    Harris-Foulkes like correction to forces

   POTIM  = 0.2000    time-step for ionic-motion
   TEIN   =    0.0    initial temperature
   TEBEG  =    0.0;   TEEND  =   0.0 temperature during run
   SMASS  =  -3.00    Nose mass-parameter (am)
   estimated Nose-frequenzy (Omega)   =  0.10E-29 period in steps =****** mass=  -0.156E-26a.u.
   SCALEE = 1.0000    scale energy and forces
   NPACO  =    256;   APACO  = 16.0  distance and # of slots for P.C.
   PSTRESS=    0.0 pullay stress

  Mass of Ions in am
   POMASS =  26.98 54.94
  Ionic Valenz
   ZVAL   =   3.00  7.00
  Atomic Wigner-Seitz radii
   RWIGS  =  -1.00 -1.00
  virtual crystal weights 
   VCA    =   1.00  1.00
   NELECT =     180.0000    total number of electrons
   NUPDOWN=      -1.0000    fix difference up-down

 DOS related values:
   EMIN   =  10.00;   EMAX   =-10.00  energy-range for DOS
   EFERMI =   0.00
   ISMEAR =     1;   SIGMA  =   0.20  broadening in eV -4-tet -1-fermi 0-gaus

 Electronic relaxation 2 (details)
   IALGO  =     58    algorithm
   LDIAG  =      T    sub-space diagonalisation (order eigenvalues)
   LSUBROT=      F    optimize rotation matrix (better conditioning)
   TURBO    =      0    0=normal 1=particle mesh
   IRESTART =      0    0=no restart 2=restart with 2 vectors
   NREBOOT  =      0    no. of reboots
   NMIN     =      0    reboot dimension
   EREF     =   0.00    reference energy to select bands
   IMIX   =      4    mixing-type and parameters
     AMIX     =   0.40;   BMIX     =  1.00
     AMIX_MAG =   1.60;   BMIX_MAG =  1.00
     AMIN     =   0.10
     WC   =   100.;   INIMIX=   1;  MIXPRE=   1;  MAXMIX= -45

 Intra band minimization:
   WEIMIN = 0.0000     energy-eigenvalue tresh-hold
   EBREAK =  0.22E-09  absolut break condition
   DEPER  =   0.30     relativ break condition  

   TIME   =   0.40     timestep for ELM

  volume/ion in A,a.u.               =      13.15        88.72
  Fermi-wavevector in a.u.,A,eV,Ry     =   1.186118  2.241439 19.141722  1.406877
  Thomas-Fermi vector in A             =   2.322298
 
 Write flags
   LWAVE        =      F    write WAVECAR
   LDOWNSAMPLE  =      F    k-point downsampling of WAVECAR
   LCHARG       =      F    write CHGCAR
   LVTOT        =      F    write LOCPOT, total local potential
   LVHAR        =      F    write LOCPOT, Hartree potential only
   LELF         =      F    write electronic localiz. function (ELF)
   LORBIT       =     10    0 simple, 1 ext, 2 COOP (PROOUT), +10 PAW based schemes


 Dipole corrections
   LMONO  =      F    monopole corrections only (constant potential shift)
   LDIPOL =      F    correct potential (dipole corrections)
   IDIPOL =      0    1-x, 2-y, 3-z, 4-all directions 
   EPSILON=  1.0000000 bulk dielectric constant

 Exchange correlation treatment:
   GGA     =    --    GGA type
   LEXCH   =     8    internal setting for exchange type
   VOSKOWN=      0    Vosko Wilk Nusair interpolation
   LHFCALC =     F    Hartree Fock is set to
   LHFONE  =     F    Hartree Fock one center treatment
   AEXX    =    0.0000 exact exchange contribution

 Linear response parameters
   LEPSILON=     F    determine dielectric tensor
   LRPA    =     F    only Hartree local field effects (RPA)
   LNABLA  =     F    use nabla operator in PAW spheres
   LVEL    =     F    velocity operator in full k-point grid
   LINTERFAST=   F  fast interpolation
   KINTER  =     0    interpolate to denser k-point grid
   CSHIFT  =0.1000    complex shift for real part using Kramers Kronig
   OMEGAMAX=  -1.0    maximum frequency
   DEG_THRESHOLD= 0.2000000E-02 threshold for treating states as degnerate
   RTIME   =   -0.100 relaxation time in fs
  (WPLASMAI=    0.000 imaginary part of plasma frequency in eV, 0.658/RTIME)
   DFIELD  = 0.0000000 0.0000000 0.0000000 field for delta impulse in time
 
 Orbital magnetization related:
   ORBITALMAG=     F  switch on orbital magnetization
   LCHIMAG   =     F  perturbation theory with respect to B field
   DQ        =  0.001000  dq finite difference perturbation B field
   LLRAUG    =     F  two centre corrections for induced B field



--------------------------------------------------------------------------------------------------------


 Static calculation
 charge density and potential will be updated during run
 spin polarized calculation
 Conjugate gradient for all bands (Freysoldt, et al. PRB 79, 241103 (2009))
 preconditioned conjugated gradient                                        
 perform sub-space diagonalisation
    before iterative eigenvector-optimisation
 modified Broyden-mixing scheme, WC =      100.0
 initial mixing is a Kerker type mixing with AMIX =  0.4000 and BMIX =      1.0000
 Hartree-type preconditioning will be used
 using additional bands           22
 reciprocal scheme for non local part
 use partial core corrections
 no Harris-corrections to forces 
 use gradient corrections 
 use of overlap-Matrix (Vanderbilt PP)
 Methfessel and Paxton  Order N= 1 SIGMA  =   0.20


--------------------------------------------------------------------------------------------------------


  energy-cutoff  :      404.80
  volume of cell :      473.27
      direct lattice vectors                 reciprocal lattice vectors
     8.250148166  0.000000000  0.000000000     0.121209944  0.000000000  0.000000000
     0.000000000  8.250148166  0.000000000     0.000000000  0.121209944  0.000000000
     0.000000000  0.000000000  6.953274261     0.000000000  0.000000000  0.143817137

  length of vectors
     8.250148166  8.250148166  6.953274261     0.121209944  0.121209944  0.143817137


 
 k-points in units of 2pi/SCALE and weight: automatic KPOINTS                       
   0.00000000  0.00000000  0.00000000       0.007
   0.02424199  0.00000000  0.00000000       0.013
   0.04848398  0.00000000  0.00000000       0.013
   0.00000000  0.02424199  0.00000000       0.013
   0.02424199  0.02424199  0.00000000       0.013
   0.04848398  0.02424199  0.00000000       0.013
  -0.04848398  0.02424199  0.00000000       0.013
  -0.02424199  0.02424199  0.00000000       0.013
   0.00000000  0.04848398  0.00000000       0.013
   0.02424199  0.04848398  0.00000000       0.013
   0.04848398  0.04848398  0.00000000       0.013
  -0.04848398  0.04848398  0.00000000       0.013
  -0.02424199  0.04848398  0.00000000       0.013
   0.00000000  0.00000000  0.02396952       0.013
   0.02424199  0.00000000  0.02396952       0.027
   0.04848398  0.00000000  0.02396952       0.027
   0.00000000  0.02424199  0.02396952       0.027
   0.02424199  0.02424199  0.02396952       0.027
   0.04848398  0.02424199  0.02396952       0.027
  -0.04848398  0.02424199  0.02396952       0.027
  -0.02424199  0.02424199  0.02396952       0.027
   0.00000000  0.04848398  0.02396952       0.027
   0.02424199  0.04848398  0.02396952       0.027
   0.04848398  0.04848398  0.02396952       0.027
  -0.04848398  0.04848398  0.02396952       0.027
  -0.02424199  0.04848398  0.02396952       0.027
   0.00000000  0.00000000  0.04793905       0.013
   0.02424199  0.00000000  0.04793905       0.027
   0.04848398  0.00000000  0.04793905       0.027
   0.00000000  0.02424199  0.04793905       0.027
   0.02424199  0.02424199  0.04793905       0.027
   0.04848398  0.02424199  0.04793905       0.027
  -0.04848398  0.02424199  0.04793905       0.027
  -0.02424199  0.02424199  0.04793905       0.027
   0.00000000  0.04848398  0.04793905       0.027
   0.02424199  0.04848398  0.04793905       0.027
   0.04848398  0.04848398  0.04793905       0.027
  -0.04848398  0.04848398  0.04793905       0.027
  -0.02424199  0.04848398  0.04793905       0.027
   0.00000000  0.00000000  0.07190857       0.007
   0.02424199  0.00000000  0.07190857       0.013
   0.04848398  0.00000000  0.07190857       0.013
   0.00000000  0.02424199  0.07190857       0.013
   0.02424199  0.02424199  0.07190857       0.013
   0.04848398  0.02424199  0.07190857       0.013
  -0.04848398  0.02424199  0.07190857       0.013
  -0.02424199  0.02424199  0.07190857       0.013
   0.00000000  0.04848398  0.07190857       0.013
   0.02424199  0.04848398  0.07190857       0.013
   0.04848398  0.04848398  0.07190857       0.013
  -0.04848398  0.04848398  0.07190857       0.013
  -0.02424199  0.04848398  0.07190857       0.013
 
 k-points in reciprocal lattice and weights: automatic KPOINTS                       
   0.00000000  0.00000000  0.00000000       0.007
   0.20000000  0.00000000  0.00000000       0.013
   0.40000000  0.00000000  0.00000000       0.013
   0.00000000  0.20000000  0.00000000       0.013
   0.20000000  0.20000000  0.00000000       0.013
   0.40000000  0.20000000  0.00000000       0.013
  -0.40000000  0.20000000  0.00000000       0.013
  -0.20000000  0.20000000  0.00000000       0.013
   0.00000000  0.40000000  0.00000000       0.013
   0.20000000  0.40000000  0.00000000       0.013
   0.40000000  0.40000000  0.00000000       0.013
  -0.40000000  0.40000000  0.00000000       0.013
  -0.20000000  0.40000000  0.00000000       0.013
   0.00000000  0.00000000  0.16666667       0.013
   0.20000000  0.00000000  0.16666667       0.027
   0.40000000  0.00000000  0.16666667       0.027
   0.00000000  0.20000000  0.16666667       0.027
   0.20000000  0.20000000  0.16666667       0.027
   0.40000000  0.20000000  0.16666667       0.027
  -0.40000000  0.20000000  0.16666667       0.027
  -0.20000000  0.20000000  0.16666667       0.027
   0.00000000  0.40000000  0.16666667       0.027
   0.20000000  0.40000000  0.16666667       0.027
   0.40000000  0.40000000  0.16666667       0.027
  -0.40000000  0.40000000  0.16666667       0.027
  -0.20000000  0.40000000  0.16666667       0.027
   0.00000000  0.00000000  0.33333333       0.013
   0.20000000  0.00000000  0.33333333       0.027
   0.40000000  0.00000000  0.33333333       0.027
   0.00000000  0.20000000  0.33333333       0.027
   0.20000000  0.20000000  0.33333333       0.027
   0.40000000  0.20000000  0.33333333       0.027
  -0.40000000  0.20000000  0.33333333       0.027
  -0.20000000  0.20000000  0.33333333       0.027
   0.00000000  0.40000000  0.33333333       0.027
   0.20000000  0.40000000  0.33333333       0.027
   0.40000000  0.40000000  0.33333333       0.027
  -0.40000000  0.40000000  0.33333333       0.027
  -0.20000000  0.40000000  0.33333333       0.027
   0.00000000  0.00000000  0.50000000       0.007
   0.20000000  0.00000000  0.50000000       0.013
   0.40000000  0.00000000  0.50000000       0.013
   0.00000000  0.20000000  0.50000000       0.013
   0.20000000  0.20000000  0.50000000       0.013
   0.40000000  0.20000000  0.50000000       0.013
  -0.40000000  0.20000000  0.50000000       0.013
  -0.20000000  0.20000000  0.50000000       0.013
   0.00000000  0.40000000  0.50000000       0.013
   0.20000000  0.40000000  0.50000000       0.013
   0.40000000  0.40000000  0.50000000       0.013
  -0.40000000  0.40000000  0.50000000       0.013
  -0.20000000  0.40000000  0.50000000       0.013
 
 position of ions in fractional coordinates (direct lattice) 
   0.00000000  0.00000000  0.00000000
   0.00000000  0.00000000  0.50000000
   0.00000000  0.33333333  0.00000000
   0.00000000  0.33333333  0.50000000
   0.00000000  0.66666667  0.00000000
   0.00000000  0.66666667  0.50000000
   0.33333333  0.00000000  0.00000000
   0.33333333  0.00000000  0.50000000
   0.33333333  0.33333333  0.00000000
   0.33333333  0.33333333  0.50000000
   0.33333333  0.66666667  0.00000000
   0.33333333  0.66666667  0.50000000
   0.66666667  0.00000000  0.00000000
   0.66666667  0.00000000  0.50000000
   0.66666667  0.33333333  0.00000000
   0.66666667  0.33333333  0.50000000
   0.66666667  0.66666667  0.00000000
   0.66666667  0.66666667  0.50000000
   0.16666667  0.16666667  0.25000000
   0.16666667  0.16666667  0.75000000
   0.16666667  0.50000000  0.25000000
   0.16666667  0.50000000  0.75000000
   0.16666667  0.83333333  0.25000000
   0.16666667  0.83333333  0.75000000
   0.50000000  0.16666667  0.25000000
   0.50000000  0.16666667  0.75000000
   0.50000000  0.50000000  0.25000000
   0.50000000  0.50000000  0.75000000
   0.50000000  0.83333333  0.25000000
   0.50000000  0.83333333  0.75000000
   0.83333333  0.16666667  0.25000000
   0.83333333  0.16666667  0.75000000
   0.83333333  0.50000000  0.25000000
   0.83333333  0.50000000  0.75000000
   0.83333333  0.83333333  0.25000000
   0.83333333  0.83333333  0.75000000
 
 position of ions in cartesian coordinates  (Angst):
   0.00000000  0.00000000  0.00000000
   0.00000000  0.00000000  3.47663713
   0.00000000  2.75004939  0.00000000
   0.00000000  2.75004939  3.47663713
   0.00000000  5.50009878  0.00000000
   0.00000000  5.50009878  3.47663713
   2.75004939  0.00000000  0.00000000
   2.75004939  0.00000000  3.47663713
   2.75004939  2.75004939  0.00000000
   2.75004939  2.75004939  3.47663713
   2.75004939  5.50009878  0.00000000
   2.75004939  5.50009878  3.47663713
   5.50009878  0.00000000  0.00000000
   5.50009878  0.00000000  3.47663713
   5.50009878  2.75004939  0.00000000
   5.50009878  2.75004939  3.47663713
   5.50009878  5.50009878  0.00000000
   5.50009878  5.50009878  3.47663713
   1.37502469  1.37502469  1.73831857
   1.37502469  1.37502469  5.21495570
   1.37502469  4.12507408  1.73831857
   1.37502469  4.12507408  5.21495570
   1.37502469  6.87512347  1.73831857
   1.37502469  6.87512347  5.21495570
   4.12507408  1.37502469  1.73831857
   4.12507408  1.37502469  5.21495570
   4.12507408  4.12507408  1.73831857
   4.12507408  4.12507408  5.21495570
   4.12507408  6.87512347  1.73831857
   4.12507408  6.87512347  5.21495570
   6.87512347  1.37502469  1.73831857
   6.87512347  1.37502469  5.21495570
   6.87512347  4.12507408  1.73831857
   6.87512347  4.12507408  5.21495570
   6.87512347  6.87512347  1.73831857
   6.87512347  6.87512347  5.21495570
 


--------------------------------------------------------------------------------------------------------


 k-point  1 :   0.0000 0.0000 0.0000  plane waves:    8799
 k-point  2 :   0.2000 0.0000 0.0000  plane waves:    8753
 k-point  3 :   0.4000 0.0000 0.0000  plane waves:    8757
 k-point  4 :   0.0000 0.2000 0.0000  plane waves:    8753
 k-point  5 :   0.2000 0.2000 0.0000  plane waves:    8767
 k-point  6 :   0.4000 0.2000 0.0000  plane waves:    8761
 k-point  7 :  -0.4000 0.2000 0.0000  plane waves:    8761
 k-point  8 :  -0.2000 0.2000 0.0000  plane waves:    8767
 k-point  9 :   0.0000 0.4000 0.0000  plane waves:    8757
 k-point 10 :   0.2000 0.4000 0.0000  plane waves:    8761
 k-point 11 :   0.4000 0.4000 0.0000  plane waves:    8731
 k-point 12 :  -0.4000 0.4000 0.0000  plane waves:    8731
 k-point 13 :  -0.2000 0.4000 0.0000  plane waves:    8761
 k-point 14 :   0.0000 0.0000 0.1667  plane waves:    8763
 k-point 15 :   0.2000 0.0000 0.1667  plane waves:    8771
 k-point 16 :   0.4000 0.0000 0.1667  plane waves:    8747
 k-point 17 :   0.0000 0.2000 0.1667  plane waves:    8771
 k-point 18 :   0.2000 0.2000 0.1667  plane waves:    8764
 k-point 19 :   0.4000 0.2000 0.1667  plane waves:    8768
 k-point 20 :  -0.4000 0.2000 0.1667  plane waves:    8768
 k-point 21 :  -0.2000 0.2000 0.1667  plane waves:    8764
 k-point 22 :   0.0000 0.4000 0.1667  plane waves:    8747
 k-point 23 :   0.2000 0.4000 0.1667  plane waves:    8768
 k-point 24 :   0.4000 0.4000 0.1667  plane waves:    8740
 k-point 25 :  -0.4000 0.4000 0.1667  plane waves:    8740
 k-point 26 :  -0.2000 0.4000 0.1667  plane waves:    8768
 k-point 27 :   0.0000 0.0000 0.3333  plane waves:    8743
 k-point 28 :   0.2000 0.0000 0.3333  plane waves:    8736
 k-point 29 :   0.4000 0.0000 0.3333  plane waves:    8753
 k-point 30 :   0.0000 0.2000 0.3333  plane waves:    8736
 k-point 31 :   0.2000 0.2000 0.3333  plane waves:    8753
 k-point 32 :   0.4000 0.2000 0.3333  plane waves:    8743
 k-point 33 :  -0.4000 0.2000 0.3333  plane waves:    8743
 k-point 34 :  -0.2000 0.2000 0.3333  plane waves:    8753
 k-point 35 :   0.0000 0.4000 0.3333  plane waves:    8753
 k-point 36 :   0.2000 0.4000 0.3333  plane waves:    8743
 k-point 37 :   0.4000 0.4000 0.3333  plane waves:    8755
 k-point 38 :  -0.4000 0.4000 0.3333  plane waves:    8755
 k-point 39 :  -0.2000 0.4000 0.3333  plane waves:    8743
 k-point 40 :   0.0000 0.0000 0.5000  plane waves:    8742
 k-point 41 :   0.2000 0.0000 0.5000  plane waves:    8756
 k-point 42 :   0.4000 0.0000 0.5000  plane waves:    8744
 k-point 43 :   0.0000 0.2000 0.5000  plane waves:    8756
 k-point 44 :   0.2000 0.2000 0.5000  plane waves:    8762
 k-point 45 :   0.4000 0.2000 0.5000  plane waves:    8732
 k-point 46 :  -0.4000 0.2000 0.5000  plane waves:    8732
 k-point 47 :  -0.2000 0.2000 0.5000  plane waves:    8762
 k-point 48 :   0.0000 0.4000 0.5000  plane waves:    8744
 k-point 49 :   0.2000 0.4000 0.5000  plane waves:    8732
 k-point 50 :   0.4000 0.4000 0.5000  plane waves:    8736
 k-point 51 :  -0.4000 0.4000 0.5000  plane waves:    8736
 k-point 52 :  -0.2000 0.4000 0.5000  plane waves:    8732

 maximum and minimum number of plane-waves per node :      2210     2164

 maximum number of plane-waves:      8799
 maximum index in each direction: 
   IXMAX=   13   IYMAX=   13   IZMAX=   11
   IXMIN=  -13   IYMIN=  -13   IZMIN=  -11


 parallel 3D FFT for wavefunctions:
    minimum data exchange during FFTs selected (reduces bandwidth)
 parallel 3D FFT for charge:
    minimum data exchange during FFTs selected (reduces bandwidth)


 total amount of memory used by VASP MPI-rank0   751840. kBytes
=======================================================================

   base      :      30000. kBytes
   nonl-proj :      34307. kBytes
   fftplans  :      21726. kBytes
   grid      :      14732. kBytes
   one-center:        279. kBytes
   wavefun   :     650796. kBytes
 
     INWAV:  cpu time    0.0001: real time    0.0001
 Broyden mixing: mesh for mixing (old mesh)
   NGX = 27   NGY = 27   NGZ = 23
  (NGX  =108   NGY  =108   NGZ  = 96)
  gives a total of  16767 points

 initial charge density was supplied:
 charge density of overlapping atoms calculated
 number of electron     180.0000000 magnetization       6.0000000
 keeping initial charge density in first step


--------------------------------------------------------------------------------------------------------


 Maximum index for augmentation-charges        11261 (set IRDMAX)


--------------------------------------------------------------------------------------------------------


 First call to EWALD:  gamma=   0.227
 Maximum number of real-space cells 3x 3x 3
 Maximum number of reciprocal cells 3x 3x 3

    FEWALD:  cpu time    0.0023: real time    0.0023


--------------------------------------- Iteration      1(   1)  ---------------------------------------


    POTLOK:  cpu time    0.2504: real time    0.2528
    SETDIJ:  cpu time    0.3425: real time    0.3431
    TRIAL :  cpu time   18.3586: real time   18.5019
    CORREC:  cpu time    0.0068: real time    0.0069
    --------------------------------------------
      LOOP:  cpu time   19.1787: real time   19.3315

 eigenvalue-minimisations  : 23296
 total energy-change (2. order) : 0.1351296E+04  (-0.5881958E+04)
 number of electron     180.0000000 magnetization       6.0000000
 augmentation part      180.0000000 magnetization       6.0000000

 Free energy of the ion-electron system (eV)
  ---------------------------------------------------
  alpha Z        PSCENC =       532.25742704
  Ewald energy   TEWEN  =     -8601.05107233
  -Hartree energ DENC   =     -1903.73857242
  -exchange      EXHF   =         0.00000000
  -V(xc)+E(xc)   XCENC  =      -664.68842116
  PAW double counting   =      8494.55058411    -7650.81563588
  entropy T*S    EENTRO =         0.00122236
  eigenvalues    EBANDS =      2679.66409543
  atomic energy  EATOM  =      8465.11600846
  ---------------------------------------------------
  free energy    TOTEN  =      1351.29563561 eV

  energy without entropy =     1351.29441326  energy(sigma->0) =     1351.29522816


--------------------------------------------------------------------------------------------------------




--------------------------------------- Iteration      1(   2)  ---------------------------------------


    TRIAL :  cpu time   18.4030: real time   18.5661
    CORREC:  cpu time    0.0083: real time    0.0085
    --------------------------------------------
      LOOP:  cpu time   18.4148: real time   18.5781

 eigenvalue-minimisations  : 23296
 total energy-change (2. order) :-0.1412333E+04  (-0.1379403E+04)
 number of electron     180.0000000 magnetization       6.0000000
 augmentation part      180.0000000 magnetization       6.0000000

 Free energy of the ion-electron system (eV)
  ---------------------------------------------------
  alpha Z        PSCENC =       532.25742704
  Ewald energy   TEWEN  =     -8601.05107233
  -Hartree energ DENC   =     -1903.73857242
  -exchange      EXHF   =         0.00000000
  -V(xc)+E(xc)   XCENC  =      -664.68842116
  PAW double counting   =      8494.55058411    -7650.81563588
  entropy T*S    EENTRO =         0.00245534
  eigenvalues    EBANDS =      1267.32977058
  atomic energy  EATOM  =      8465.11600846
  ---------------------------------------------------
  free energy    TOTEN  =       -61.03745626 eV

  energy without entropy =      -61.03991160  energy(sigma->0) =      -61.03827471


--------------------------------------------------------------------------------------------------------




--------------------------------------- Iteration      1(   3)  ---------------------------------------


    TRIAL :  cpu time   26.1546: real time   26.4793
    CORREC:  cpu time    0.0097: real time    0.0106
    --------------------------------------------
      LOOP:  cpu time   26.1673: real time   26.4931

 eigenvalue-minimisations  : 35376
 total energy-change (2. order) :-0.1767433E+03  (-0.1586700E+03)
 number of electron     180.0000000 magnetization       6.0000000
 augmentation part      180.0000000 magnetization       6.0000000

 Free energy of the ion-electron system (eV)
  ---------------------------------------------------
  alpha Z        PSCENC =       532.25742704
  Ewald energy   TEWEN  =     -8601.05107233
  -Hartree energ DENC   =     -1903.73857242
  -exchange      EXHF   =         0.00000000
  -V(xc)+E(xc)   XCENC  =      -664.68842116
  PAW double counting   =      8494.55058411    -7650.81563588
  entropy T*S    EENTRO =         0.00140099
  eigenvalues    EBANDS =      1090.58749324
  atomic energy  EATOM  =      8465.11600846
  ---------------------------------------------------
  free energy    TOTEN  =      -237.78078795 eV

  energy without entropy =     -237.78218894  energy(sigma->0) =     -237.78125494


--------------------------------------------------------------------------------------------------------




--------------------------------------- Iteration      1(   4)  ---------------------------------------


    TRIAL :  cpu time   26.9228: real time   27.0903
    CORREC:  cpu time    0.0106: real time    0.0106
    --------------------------------------------
      LOOP:  cpu time   26.9342: real time   27.1052

 eigenvalue-minimisations  : 38032
 total energy-change (2. order) :-0.2854378E+02  (-0.2538285E+02)
 number of electron     180.0000000 magnetization       6.0000000
 augmentation part      180.0000000 magnetization       6.0000000

 Free energy of the ion-electron system (eV)
  ---------------------------------------------------
  alpha Z        PSCENC =       532.25742704
  Ewald energy   TEWEN  =     -8601.05107233
  -Hartree energ DENC   =     -1903.73857242
  -exchange      EXHF   =         0.00000000
  -V(xc)+E(xc)   XCENC  =      -664.68842116
  PAW double counting   =      8494.55058411    -7650.81563588
  entropy T*S    EENTRO =         0.01951164
  eigenvalues    EBANDS =      1062.02560013
  atomic energy  EATOM  =      8465.11600846
  ---------------------------------------------------
  free energy    TOTEN  =      -266.32457041 eV

  energy without entropy =     -266.34408205  energy(sigma->0) =     -266.33107429


--------------------------------------------------------------------------------------------------------




--------------------------------------- Iteration      1(   5)  ---------------------------------------


    TRIAL :  cpu time   28.3327: real time   28.6679
    CORREC:  cpu time    0.0106: real time    0.0107
    --------------------------------------------
      LOOP:  cpu time   28.3448: real time   28.6822

 eigenvalue-minimisations  : 38952
 total energy-change (2. order) :-0.3103252E+01  (-0.2951349E+01)
 number of electron     180.0000000 magnetization       6.0000000
 augmentation part      180.0000000 magnetization       6.0000000

 Free energy of the ion-electron system (eV)
  ---------------------------------------------------
  alpha Z        PSCENC =       532.25742704
  Ewald energy   TEWEN  =     -8601.05107233
  -Hartree energ DENC   =     -1903.73857242
  -exchange      EXHF   =         0.00000000
  -V(xc)+E(xc)   XCENC  =      -664.68842116
  PAW double counting   =      8494.55058411    -7650.81563588
  entropy T*S    EENTRO =         0.02348690
  eigenvalues    EBANDS =      1058.91837301
  atomic energy  EATOM  =      8465.11600846
  ---------------------------------------------------
  free energy    TOTEN  =      -269.42782226 eV

  energy without entropy =     -269.45130916  energy(sigma->0) =     -269.43565123


--------------------------------------------------------------------------------------------------------




--------------------------------------- Iteration      1(   6)  ---------------------------------------


    TRIAL :  cpu time   27.3618: real time   27.5382
    CORREC:  cpu time    0.0302: real time    0.0311
    --------------------------------------------
      LOOP:  cpu time   27.3930: real time   27.5729

 eigenvalue-minimisations  : 38632
 total energy-change (2. order) :-0.2539102E+00  (-0.2469658E+00)
 number of electron     180.0000000 magnetization       6.0000000
 augmentation part      180.0000000 magnetization       6.0000000

 Free energy of the ion-electron system (eV)
  ---------------------------------------------------
  alpha Z        PSCENC =       532.25742704
  Ewald energy   TEWEN  =     -8601.05107233
  -Hartree energ DENC   =     -1903.73857242
  -exchange      EXHF   =         0.00000000
  -V(xc)+E(xc)   XCENC  =      -664.68842116
  PAW double counting   =      8494.55058411    -7650.81563588
  entropy T*S    EENTRO =         0.02489781
  eigenvalues    EBANDS =      1058.66305193
  atomic energy  EATOM  =      8465.11600846
  ---------------------------------------------------
  free energy    TOTEN  =      -269.68173243 eV

  energy without entropy =     -269.70663024  energy(sigma->0) =     -269.69003170


--------------------------------------------------------------------------------------------------------




--------------------------------------- Iteration      1(   7)  ---------------------------------------


    TRIAL :  cpu time   28.7105: real time   29.0100
    CORREC:  cpu time    0.0108: real time    0.0109
    --------------------------------------------
      LOOP:  cpu time   28.7223: real time   29.0241

 eigenvalue-minimisations  : 39640
 total energy-change (2. order) :-0.2805163E-01  (-0.2764723E-01)
 number of electron     180.0000000 magnetization       6.0000000
 augmentation part      180.0000000 magnetization       6.0000000

 Free energy of the ion-electron system (eV)
  ---------------------------------------------------
  alpha Z        PSCENC =       532.25742704
  Ewald energy   TEWEN  =     -8601.05107233
  -Hartree energ DENC   =     -1903.73857242
  -exchange      EXHF   =         0.00000000
  -V(xc)+E(xc)   XCENC  =      -664.68842116
  PAW double counting   =      8494.55058411    -7650.81563588
  entropy T*S    EENTRO =         0.02542886
  eigenvalues    EBANDS =      1058.63446926
  atomic energy  EATOM  =      8465.11600846
  ---------------------------------------------------
  free energy    TOTEN  =      -269.70978406 eV

  energy without entropy =     -269.73521292  energy(sigma->0) =     -269.71826034


--------------------------------------------------------------------------------------------------------




--------------------------------------- Iteration      1(   8)  ---------------------------------------


    TRIAL :  cpu time   26.8735: real time   27.1265
    CORREC:  cpu time    0.0105: real time    0.0114
    CHARGE:  cpu time    1.0991: real time    1.0995
    --------------------------------------------
      LOOP:  cpu time   27.9845: real time   28.2421

 eigenvalue-minimisations  : 37840
 total energy-change (2. order) :-0.2429865E-02  (-0.2404445E-02)
 number of electron     179.9999997 magnetization       3.5946836
 augmentation part       42.5363320 magnetization       2.1549595

 Free energy of the ion-electron system (eV)
  ---------------------------------------------------
  alpha Z        PSCENC =       532.25742704
  Ewald energy   TEWEN  =     -8601.05107233
  -Hartree energ DENC   =     -1903.73857242
  -exchange      EXHF   =         0.00000000
  -V(xc)+E(xc)   XCENC  =      -664.68842116
  PAW double counting   =      8494.55058411    -7650.81563588
  entropy T*S    EENTRO =         0.02561429
  eigenvalues    EBANDS =      1058.63185396
  atomic energy  EATOM  =      8465.11600846
  ---------------------------------------------------
  free energy    TOTEN  =      -269.71221392 eV

  energy without entropy =     -269.73782821  energy(sigma->0) =     -269.72075202


--------------------------------------------------------------------------------------------------------




--------------------------------------- Iteration      1(   9)  ---------------------------------------


    POTLOK:  cpu time    0.2515: real time    0.2515
    SETDIJ:  cpu time    0.3198: real time    0.3200
    TRIAL :  cpu time    9.0181: real time    9.1722
    CORREC:  cpu time    3.3722: real time    3.4343
    CHARGE:  cpu time    1.0892: real time    1.0979
    --------------------------------------------
      LOOP:  cpu time   14.1016: real time   14.3287

 eigenvalue-minimisations  :     0
 total energy-change (2. order) : 0.2072406E+03  (-0.1465290E+03)
 number of electron     179.9999997 magnetization       3.8380201
 augmentation part       54.5105434 magnetization       2.5969304

 Free energy of the ion-electron system (eV)
  ---------------------------------------------------
  alpha Z        PSCENC =       532.25742704
  Ewald energy   TEWEN  =     -8601.05107233
  -Hartree energ DENC   =      -838.52601790
  -exchange      EXHF   =         0.00000000
  -V(xc)+E(xc)   XCENC  =      -694.75253933
  PAW double counting   =     12752.29759576   -11805.24367817
  entropy T*S    EENTRO =         0.00016628
  eigenvalues    EBANDS =       127.40500129
  atomic energy  EATOM  =      8465.11600846
  ---------------------------------------------------
  free energy    TOTEN  =       -62.47166090 eV

  energy without entropy =      -62.47182718  energy(sigma->0) =      -62.47171633


--------------------------------------------------------------------------------------------------------




--------------------------------------- Iteration      1(  10)  ---------------------------------------


    POTLOK:  cpu time    0.2483: real time    0.2484
    SETDIJ:  cpu time    1.2248: real time    1.2497
    TRIAL :  cpu time    9.8116: real time    9.9056
    CORREC:  cpu time    3.3754: real time    3.3899
    CHARGE:  cpu time    1.0985: real time    1.0993
    --------------------------------------------
      LOOP:  cpu time   15.7622: real time   15.8986

 eigenvalue-minimisations  :     0
 total energy-change (2. order) :-0.1458276E+03  (-0.9244494E+01)
 number of electron     179.9999996 magnetization       3.9298447
 augmentation part       57.5801726 magnetization       2.7193410

 Free energy of the ion-electron system (eV)
  ---------------------------------------------------
  alpha Z        PSCENC =       532.25742704
  Ewald energy   TEWEN  =     -8601.05107233
  -Hartree energ DENC   =     -1378.54716822
  -exchange      EXHF   =         0.00000000
  -V(xc)+E(xc)   XCENC  =      -676.28797204
  PAW double counting   =     13674.55707804   -12845.28472107
  entropy T*S    EENTRO =        -0.00605213
  eigenvalues    EBANDS =       620.94098929
  atomic energy  EATOM  =      8465.11600846
  ---------------------------------------------------
  free energy    TOTEN  =      -208.29926456 eV

  energy without entropy =     -208.29321243  energy(sigma->0) =     -208.29724718


--------------------------------------------------------------------------------------------------------




--------------------------------------- Iteration      1(  11)  ---------------------------------------


    POTLOK:  cpu time    0.2480: real time    0.2481
    SETDIJ:  cpu time    0.3127: real time    0.3239
    TRIAL :  cpu time    9.1112: real time    9.2174
    CORREC:  cpu time    3.3892: real time    3.4030
    CHARGE:  cpu time    1.0969: real time    1.0977
    --------------------------------------------
      LOOP:  cpu time   14.1784: real time   14.3119

 eigenvalue-minimisations  :     0
 total energy-change (2. order) :-0.9343121E+01  (-0.7770663E+01)
 number of electron     179.9999996 magnetization       4.1121229
 augmentation part       59.1670911 magnetization       2.9046400

 Free energy of the ion-electron system (eV)
  ---------------------------------------------------
  alpha Z        PSCENC =       532.25742704
  Ewald energy   TEWEN  =     -8601.05107233
  -Hartree energ DENC   =     -1555.17309242
  -exchange      EXHF   =         0.00000000
  -V(xc)+E(xc)   XCENC  =      -669.99505820
  PAW double counting   =     14397.60188895   -13599.60069836
  entropy T*S    EENTRO =        -0.01146543
  eigenvalues    EBANDS =       813.20826368
  atomic energy  EATOM  =      8465.11600846
  ---------------------------------------------------
  free energy    TOTEN  =      -217.64238532 eV

  energy without entropy =     -217.63091989  energy(sigma->0) =     -217.63856351


--------------------------------------------------------------------------------------------------------




--------------------------------------- Iteration      1(  12)  ---------------------------------------


    POTLOK:  cpu time    0.2479: real time    0.2480
    SETDIJ:  cpu time    0.3750: real time    0.3751
    TRIAL :  cpu time    8.9918: real time    9.0980
    CORREC:  cpu time    3.3607: real time    3.3853
    CHARGE:  cpu time    1.0876: real time    1.1023
    --------------------------------------------
      LOOP:  cpu time   14.0642: real time   14.2109

 eigenvalue-minimisations  :     0
 total energy-change (2. order) :-0.7771148E+01  (-0.7584411E+01)
 number of electron     179.9999996 magnetization       4.2821277
 augmentation part       58.3257723 magnetization       3.0251828

 Free energy of the ion-electron system (eV)
  ---------------------------------------------------
  alpha Z        PSCENC =       532.25742704
  Ewald energy   TEWEN  =     -8601.05107233
  -Hartree energ DENC   =     -1691.04831119
  -exchange      EXHF   =         0.00000000
  -V(xc)+E(xc)   XCENC  =      -665.41201208
  PAW double counting   =     14508.11966203   -13715.93367693
  entropy T*S    EENTRO =        -0.00968021
  eigenvalues    EBANDS =       942.54990739
  atomic energy  EATOM  =      8465.11600846
  ---------------------------------------------------
  free energy    TOTEN  =      -225.41353303 eV

  energy without entropy =     -225.40385282  energy(sigma->0) =     -225.41030630


--------------------------------------------------------------------------------------------------------




--------------------------------------- Iteration      1(  13)  ---------------------------------------


    POTLOK:  cpu time    0.2477: real time    0.2478
    SETDIJ:  cpu time    0.3206: real time    0.3210
    TRIAL :  cpu time    9.1092: real time    9.1970
    CORREC:  cpu time    3.3634: real time    3.3798
    CHARGE:  cpu time    1.0730: real time    1.1198
    --------------------------------------------
      LOOP:  cpu time   14.1152: real time   14.2676

 eigenvalue-minimisations  :     0
 total energy-change (2. order) :-0.7537972E+01  (-0.1040159E+01)
 number of electron     179.9999997 magnetization       4.2632374
 augmentation part       57.4029961 magnetization       2.9989584

 Free energy of the ion-electron system (eV)
  ---------------------------------------------------
  alpha Z        PSCENC =       532.25742704
  Ewald energy   TEWEN  =     -8601.05107233
  -Hartree energ DENC   =     -1705.85968882
  -exchange      EXHF   =         0.00000000
  -V(xc)+E(xc)   XCENC  =      -665.33701731
  PAW double counting   =     14209.91484539   -13391.02012608
  entropy T*S    EENTRO =        -0.00845566
  eigenvalues    EBANDS =       923.03779891
  atomic energy  EATOM  =      8465.11600846
  ---------------------------------------------------
  free energy    TOTEN  =      -232.95150495 eV

  energy without entropy =     -232.94304928  energy(sigma->0) =     -232.94868639


--------------------------------------------------------------------------------------------------------




--------------------------------------- Iteration      1(  14)  ---------------------------------------


    POTLOK:  cpu time    0.2473: real time    0.2485
    SETDIJ:  cpu time    0.3193: real time    0.3198
    TRIAL :  cpu time   10.6885: real time   10.8106
    CORREC:  cpu time    3.3875: real time    3.4088
    CHARGE:  cpu time    1.0905: real time    1.0960
    --------------------------------------------
      LOOP:  cpu time   15.7350: real time   15.8864

 eigenvalue-minimisations  :     0
 total energy-change (2. order) :-0.1029403E+01  (-0.7682084E+00)
 number of electron     179.9999997 magnetization       4.3148500
 augmentation part       57.2169703 magnetization       2.9994953

 Free energy of the ion-electron system (eV)
  ---------------------------------------------------
  alpha Z        PSCENC =       532.25742704
  Ewald energy   TEWEN  =     -8601.05107233
  -Hartree energ DENC   =     -1659.28351219
  -exchange      EXHF   =         0.00000000
  -V(xc)+E(xc)   XCENC  =      -667.03760628
  PAW double counting   =     13909.22851497   -13076.61934669
  entropy T*S    EENTRO =        -0.00828978
  eigenvalues    EBANDS =       863.41713428
  atomic energy  EATOM  =      8465.11600846
  ---------------------------------------------------
  free energy    TOTEN  =      -233.98090841 eV

  energy without entropy =     -233.97261863  energy(sigma->0) =     -233.97814515


--------------------------------------------------------------------------------------------------------




--------------------------------------- Iteration      1(  15)  ---------------------------------------


    POTLOK:  cpu time    0.2493: real time    0.2494
    SETDIJ:  cpu time    0.3185: real time    0.3187
    TRIAL :  cpu time    9.1255: real time    9.2291
    CORREC:  cpu time    3.4081: real time    3.4272
    CHARGE:  cpu time    1.0956: real time    1.0958
    --------------------------------------------
      LOOP:  cpu time   14.2003: real time   14.3242

 eigenvalue-minimisations  :     0
 total energy-change (2. order) :-0.7672555E+00  (-0.5683748E+00)
 number of electron     179.9999996 magnetization       4.2820932
 augmentation part       57.7186144 magnetization       2.9971956

 Free energy of the ion-electron system (eV)
  ---------------------------------------------------
  alpha Z        PSCENC =       532.25742704
  Ewald energy   TEWEN  =     -8601.05107233
  -Hartree energ DENC   =     -1639.84346438
  -exchange      EXHF   =         0.00000000
  -V(xc)+E(xc)   XCENC  =      -667.65338853
  PAW double counting   =     13412.89182710   -12575.08714087
  entropy T*S    EENTRO =        -0.00605942
  eigenvalues    EBANDS =       838.62992935
  atomic energy  EATOM  =      8465.11600846
  ---------------------------------------------------
  free energy    TOTEN  =      -234.74816394 eV

  energy without entropy =     -234.74210452  energy(sigma->0) =     -234.74614413


--------------------------------------------------------------------------------------------------------




--------------------------------------- Iteration      1(  16)  ---------------------------------------


    POTLOK:  cpu time    0.2480: real time    0.2482
    SETDIJ:  cpu time    0.3235: real time    0.3235
    TRIAL :  cpu time    9.0516: real time    9.1334
    CORREC:  cpu time    3.3676: real time    3.4092
    CHARGE:  cpu time    1.0717: real time    1.1015
    --------------------------------------------
      LOOP:  cpu time   14.0661: real time   14.2207

 eigenvalue-minimisations  :     0
 total energy-change (2. order) :-0.5664528E+00  (-0.1667977E+00)
 number of electron     179.9999996 magnetization       4.3239565
 augmentation part       58.0786678 magnetization       3.0352339

 Free energy of the ion-electron system (eV)
  ---------------------------------------------------
  alpha Z        PSCENC =       532.25742704
  Ewald energy   TEWEN  =     -8601.05107233
  -Hartree energ DENC   =     -1656.03813254
  -exchange      EXHF   =         0.00000000
  -V(xc)+E(xc)   XCENC  =      -666.93578711
  PAW double counting   =     13088.84592307   -12254.47193034
  entropy T*S    EENTRO =        -0.00664880
  eigenvalues    EBANDS =       856.96900643
  atomic energy  EATOM  =      8465.11600846
  ---------------------------------------------------
  free energy    TOTEN  =      -235.31461675 eV

  energy without entropy =     -235.30796795  energy(sigma->0) =     -235.31240048


--------------------------------------------------------------------------------------------------------




--------------------------------------- Iteration      1(  17)  ---------------------------------------


    POTLOK:  cpu time    0.2485: real time    0.2486
    SETDIJ:  cpu time    0.3208: real time    0.3208
    TRIAL :  cpu time    9.0812: real time    9.1514
    CORREC:  cpu time    3.4094: real time    3.4293
    CHARGE:  cpu time    1.0975: real time    1.0978
    --------------------------------------------
      LOOP:  cpu time   14.1586: real time   14.2506

 eigenvalue-minimisations  :     0
 total energy-change (2. order) :-0.1666734E+00  (-0.1737460E+00)
 number of electron     179.9999996 magnetization       4.3283672
 augmentation part       58.2540061 magnetization       3.0705088

 Free energy of the ion-electron system (eV)
  ---------------------------------------------------
  alpha Z        PSCENC =       532.25742704
  Ewald energy   TEWEN  =     -8601.05107233
  -Hartree energ DENC   =     -1671.68104094
  -exchange      EXHF   =         0.00000000
  -V(xc)+E(xc)   XCENC  =      -666.26435266
  PAW double counting   =     13028.31692386   -12197.66253302
  entropy T*S    EENTRO =        -0.00546240
  eigenvalues    EBANDS =       875.49399824
  atomic energy  EATOM  =      8465.11600846
  ---------------------------------------------------
  free energy    TOTEN  =      -235.48129016 eV

  energy without entropy =     -235.47582775  energy(sigma->0) =     -235.47946936


--------------------------------------------------------------------------------------------------------




--------------------------------------- Iteration      1(  18)  ---------------------------------------


    POTLOK:  cpu time    0.2479: real time    0.2512
    SETDIJ:  cpu time    0.2877: real time    0.3610
    TRIAL :  cpu time   10.1116: real time   10.1826
    CORREC:  cpu time    4.4856: real time    4.5155
    CHARGE:  cpu time    1.0956: real time    1.0957
    --------------------------------------------
      LOOP:  cpu time   16.2312: real time   16.4095

 eigenvalue-minimisations  :     0
 total energy-change (2. order) :-0.1736864E+00  (-0.1178334E+00)
 number of electron     179.9999996 magnetization       4.3386522
 augmentation part       58.0710449 magnetization       3.0945978

 Free energy of the ion-electron system (eV)
  ---------------------------------------------------
  alpha Z        PSCENC =       532.25742704
  Ewald energy   TEWEN  =     -8601.05107233
  -Hartree energ DENC   =     -1678.09469545
  -exchange      EXHF   =         0.00000000
  -V(xc)+E(xc)   XCENC  =      -665.83906043
  PAW double counting   =     12990.07869715   -12161.48617273
  entropy T*S    EENTRO =        -0.00600949
  eigenvalues    EBANDS =       883.36935413
  atomic energy  EATOM  =      8465.11600846
  ---------------------------------------------------
  free energy    TOTEN  =      -235.65497657 eV

  energy without entropy =     -235.64896708  energy(sigma->0) =     -235.65297341


--------------------------------------------------------------------------------------------------------




--------------------------------------- Iteration      1(  19)  ---------------------------------------


    POTLOK:  cpu time    0.2484: real time    0.2483
    SETDIJ:  cpu time    0.3172: real time    0.3240
    TRIAL :  cpu time    9.0889: real time    9.1856
    CORREC:  cpu time    3.4013: real time    3.4091
    CHARGE:  cpu time    1.1333: real time    1.1396
    --------------------------------------------
      LOOP:  cpu time   14.1963: real time   14.3142

 eigenvalue-minimisations  :     0
 total energy-change (2. order) :-0.1174026E+00  (-0.4163018E-01)
 number of electron     179.9999996 magnetization       4.3467674
 augmentation part       57.9108371 magnetization       3.1032073

 Free energy of the ion-electron system (eV)
  ---------------------------------------------------
  alpha Z        PSCENC =       532.25742704
  Ewald energy   TEWEN  =     -8601.05107233
  -Hartree energ DENC   =     -1667.32241201
  -exchange      EXHF   =         0.00000000
  -V(xc)+E(xc)   XCENC  =      -666.06873149
  PAW double counting   =     12964.02900656   -12133.65774933
  entropy T*S    EENTRO =        -0.00617163
  eigenvalues    EBANDS =       870.93115346
  atomic energy  EATOM  =      8465.11600846
  ---------------------------------------------------
  free energy    TOTEN  =      -235.77237914 eV

  energy without entropy =     -235.76620751  energy(sigma->0) =     -235.77032193


--------------------------------------------------------------------------------------------------------




--------------------------------------- Iteration      1(  20)  ---------------------------------------


    POTLOK:  cpu time    0.2479: real time    0.2480
    SETDIJ:  cpu time    0.3238: real time    0.3238
    TRIAL :  cpu time    9.0511: real time    9.1131
    CORREC:  cpu time    3.3777: real time    3.4171
    CHARGE:  cpu time    1.0791: real time    1.0819
    --------------------------------------------
      LOOP:  cpu time   14.0823: real time   14.4686

 eigenvalue-minimisations  :     0
 total energy-change (2. order) :-0.4150192E-01  (-0.6078789E-01)
 number of electron     179.9999996 magnetization       4.3494545
 augmentation part       57.7745500 magnetization       3.1144112

 Free energy of the ion-electron system (eV)
  ---------------------------------------------------
  alpha Z        PSCENC =       532.25742704
  Ewald energy   TEWEN  =     -8601.05107233
  -Hartree energ DENC   =     -1659.44833013
  -exchange      EXHF   =         0.00000000
  -V(xc)+E(xc)   XCENC  =      -666.29235348
  PAW double counting   =     12954.76915730   -12122.80500822
  entropy T*S    EENTRO =        -0.00660082
  eigenvalues    EBANDS =       861.64646194
  atomic energy  EATOM  =      8465.11600846
  ---------------------------------------------------
  free energy    TOTEN  =      -235.81388106 eV

  energy without entropy =     -235.80728024  energy(sigma->0) =     -235.81168079


--------------------------------------------------------------------------------------------------------




--------------------------------------- Iteration      1(  21)  ---------------------------------------


    POTLOK:  cpu time    0.2481: real time    0.2482
    SETDIJ:  cpu time    0.3281: real time    0.3496
    TRIAL :  cpu time    9.0598: real time    9.1365
    CORREC:  cpu time    3.4344: real time    3.4539
    CHARGE:  cpu time    1.0969: real time    1.0972
    --------------------------------------------
      LOOP:  cpu time   14.1687: real time   14.2881

 eigenvalue-minimisations  :     0
 total energy-change (2. order) :-0.6082357E-01  (-0.4393827E-01)
 number of electron     179.9999996 magnetization       4.3679367
 augmentation part       57.8585444 magnetization       3.1356687

 Free energy of the ion-electron system (eV)
  ---------------------------------------------------
  alpha Z        PSCENC =       532.25742704
  Ewald energy   TEWEN  =     -8601.05107233
  -Hartree energ DENC   =     -1654.89209253
  -exchange      EXHF   =         0.00000000
  -V(xc)+E(xc)   XCENC  =      -666.35834987
  PAW double counting   =     12960.56092509   -12127.54062209
  entropy T*S    EENTRO =        -0.00696770
  eigenvalues    EBANDS =       856.03967244
  atomic energy  EATOM  =      8465.11600846
  ---------------------------------------------------
  free energy    TOTEN  =      -235.87470462 eV

  energy without entropy =     -235.86773693  energy(sigma->0) =     -235.87238206


--------------------------------------------------------------------------------------------------------




--------------------------------------- Iteration      1(  22)  ---------------------------------------


    POTLOK:  cpu time    0.2480: real time    0.2480
    SETDIJ:  cpu time    0.3195: real time    0.3196
    TRIAL :  cpu time    9.9828: real time   10.1175
    CORREC:  cpu time    4.1498: real time    4.2088
    CHARGE:  cpu time    1.0950: real time    1.0980
    --------------------------------------------
      LOOP:  cpu time   15.7965: real time   15.9960

 eigenvalue-minimisations  :     0
 total energy-change (2. order) :-0.4392727E-01  (-0.1512318E-01)
 number of electron     179.9999996 magnetization       4.3771132
 augmentation part       57.9479045 magnetization       3.1474627

 Free energy of the ion-electron system (eV)
  ---------------------------------------------------
  alpha Z        PSCENC =       532.25742704
  Ewald energy   TEWEN  =     -8601.05107233
  -Hartree energ DENC   =     -1661.60224250
  -exchange      EXHF   =         0.00000000
  -V(xc)+E(xc)   XCENC  =      -666.04855451
  PAW double counting   =     12984.75920080   -12153.01949554
  entropy T*S    EENTRO =        -0.00711083
  eigenvalues    EBANDS =       863.67706440
  atomic energy  EATOM  =      8465.11600846
  ---------------------------------------------------
  free energy    TOTEN  =      -235.91863189 eV

  energy without entropy =     -235.91152106  energy(sigma->0) =     -235.91626161


--------------------------------------------------------------------------------------------------------




--------------------------------------- Iteration      1(  23)  ---------------------------------------


    POTLOK:  cpu time    0.2490: real time    0.2490
    SETDIJ:  cpu time    0.3235: real time    0.3237
    TRIAL :  cpu time    9.1113: real time    9.1631
    CORREC:  cpu time    3.4197: real time    3.4309
    CHARGE:  cpu time    1.0976: real time    1.0977
    --------------------------------------------
[...]
  8.436  14.376  -0.000  -0.000   0.000  -0.000  -0.000   0.000
 14.376  24.498  -0.000  -0.000   0.000  -0.000  -0.000   0.000
 -0.000  -0.000   1.996   0.000   0.000   5.747   0.000   0.000
 -0.000  -0.000   0.000   1.995   0.000   0.000   5.746   0.000
  0.000   0.000   0.000   0.000   1.996   0.000   0.000   5.747
 -0.000  -0.000   5.747   0.000   0.000  16.469   0.001   0.000
 -0.000  -0.000   0.000   5.746   0.000   0.001  16.464   0.001
  0.000   0.000   0.000   0.000   5.747   0.000   0.001  16.469
 total augmentation occupancy for first ion, spin component:           1
  4.380  -1.253   0.000   0.000  -0.001  -0.000  -0.000   0.000
 -1.253   0.378   0.000  -0.000   0.000  -0.000   0.000  -0.000
  0.000   0.000   1.417  -0.001   0.009  -0.101   0.000  -0.000
  0.000  -0.000  -0.001   1.512  -0.000   0.000  -0.102   0.000
 -0.001   0.000   0.009  -0.000   1.416  -0.000   0.000  -0.101
 -0.000  -0.000  -0.101   0.000  -0.000   0.008   0.000   0.000
 -0.000   0.000   0.000  -0.102   0.000   0.000   0.007  -0.000
  0.000  -0.000  -0.000   0.000  -0.101   0.000  -0.000   0.008
 total augmentation occupancy for first ion, spin component:           2
  0.095  -0.030   0.001   0.001   0.000  -0.000  -0.000   0.000
 -0.030   0.009   0.001  -0.002   0.000  -0.000   0.000  -0.000
  0.001   0.001   0.031  -0.054  -0.036  -0.002   0.001   0.001
  0.001  -0.002  -0.054   0.073  -0.051   0.001  -0.003   0.001
  0.000   0.000  -0.036  -0.051   0.035   0.001   0.001  -0.002
 -0.000  -0.000  -0.002   0.001   0.001   0.000   0.000   0.000
 -0.000   0.000   0.001  -0.003   0.001   0.000   0.000   0.000
  0.000  -0.000   0.001   0.001  -0.002   0.000   0.000   0.000


------------------------ aborting loop because EDIFF is reached ----------------------------------------


 


 total charge     
 
# of ion       s       p       d       tot
------------------------------------------
    1        0.405   0.430   0.000   0.835
    2        0.405   0.429   0.000   0.834
    3        0.405   0.426   0.000   0.832
    4        0.405   0.427   0.000   0.832
    5        0.406   0.426   0.000   0.831
    6        0.406   0.425   0.000   0.831
    7        0.405   0.427   0.000   0.832
    8        0.405   0.427   0.000   0.832
    9        0.405   0.428   0.000   0.833
   10        0.405   0.428   0.000   0.833
   11        0.404   0.429   0.000   0.833
   12        0.404   0.429   0.000   0.833
   13        0.405   0.428   0.000   0.833
   14        0.405   0.428   0.000   0.833
   15        0.405   0.430   0.000   0.835
   16        0.405   0.430   0.000   0.835
   17        0.406   0.425   0.000   0.831
   18        0.406   0.424   0.000   0.830
   19        0.333   0.355   5.135   5.823
   20        0.330   0.356   5.132   5.818
   21        0.337   0.356   5.124   5.817
   22        0.334   0.353   5.136   5.823
   23        0.338   0.357   5.118   5.813
   24        0.339   0.355   5.119   5.812
   25        0.334   0.358   5.124   5.816
   26        0.331   0.353   5.142   5.826
   27        0.332   0.354   5.146   5.832
   28        0.333   0.358   5.122   5.813
   29        0.337   0.360   5.115   5.812
   30        0.339   0.350   5.128   5.816
   31        0.338   0.362   5.104   5.804
   32        0.334   0.354   5.130   5.819
   33        0.334   0.358   5.129   5.821
   34        0.332   0.348   5.148   5.828
   35        0.332   0.357   5.128   5.817
   36        0.333   0.355   5.136   5.824
--------------------------------------------------
tot         13.313  14.095  92.316 119.724
 


 magnetization (x)
 
# of ion       s       p       d       tot
------------------------------------------
    1        0.006   0.014   0.000   0.020
    2        0.006   0.015   0.000   0.021
    3       -0.003  -0.008   0.000  -0.011
    4       -0.003  -0.009   0.000  -0.012
    5       -0.005  -0.011   0.000  -0.015
    6       -0.005  -0.010   0.000  -0.015
    7        0.000   0.002   0.000   0.002
    8        0.001   0.002   0.000   0.003
    9       -0.005  -0.008   0.000  -0.013
   10       -0.005  -0.008   0.000  -0.014
   11       -0.006  -0.010   0.000  -0.017
   12       -0.006  -0.010   0.000  -0.017
   13        0.001   0.001   0.000   0.001
   14        0.001   0.001   0.000   0.002
   15       -0.003  -0.002   0.000  -0.004
   16       -0.003  -0.002   0.000  -0.005
   17       -0.008  -0.016   0.000  -0.023
   18       -0.008  -0.015   0.000  -0.023
   19        0.024   0.016   2.304   2.344
   20       -0.006  -0.010  -2.209  -2.225
   21        0.027   0.017   2.394   2.438
   22        0.025   0.016   2.258   2.299
   23       -0.038  -0.020  -2.506  -2.564
   24       -0.039  -0.021  -2.526  -2.586
   25        0.021   0.022   2.324   2.367
   26       -0.014  -0.021  -2.082  -2.118
   27       -0.036  -0.033  -2.045  -2.114
   28        0.005   0.026   2.269   2.300
   29        0.036   0.029   2.391   2.456
   30        0.032   0.011   2.554   2.597
   31       -0.035  -0.030  -2.531  -2.596
   32       -0.025  -0.010  -2.361  -2.396
   33        0.030   0.036   2.148   2.214
   34        0.017  -0.003   2.318   2.332
   35       -0.017  -0.019  -2.289  -2.325
   36        0.019   0.019   2.191   2.230
--------------------------------------------------
tot         -0.019  -0.051   4.600   4.531
 
    FORLOC:  cpu time    0.0292: real time    0.0292
    FORNL :  cpu time   13.8271: real time   13.9763
    STRESS:  cpu time   18.1408: real time   18.2627
    FORCOR:  cpu time    0.2693: real time    0.2718
    OFIELD:  cpu time    0.0016: real time    0.0016

  FORCE on cell =-STRESS in cart. coord.  units (eV):
  Direction    XX          YY          ZZ          XY          YZ          ZX
  --------------------------------------------------------------------------------------
  Alpha Z   532.25743   532.25743   532.25743
  Ewald   -2702.40749 -2702.40749 -3196.26924    -0.00000    -0.00000    -0.00000
  Hartree   719.96332   719.28247   226.28054     0.51506    -0.00000    -0.00000
  E(xc)    -760.37498  -760.12796  -760.49635    -0.22257    -0.00000    -0.00000
  Local     249.48251   251.54623  1260.13632    -1.76389    -0.00000     0.00000
  n-local  -109.30184  -108.41335  -119.19447    -0.36137    -0.08377    -0.08821
  augment   521.41323   520.55237   515.61512     0.67852     0.00001     0.00001
  Kinetic  1554.43866  1554.10610  1543.49557     1.87606     0.24240    -0.01329
  Fock        0.00000     0.00000     0.00000     0.00000     0.00000     0.00000
  -------------------------------------------------------------------------------------
  Total       5.47083     6.79579     1.82492     0.72180     0.00000     0.00000
  in kB      18.52041    23.00582     6.17790     2.44352     0.00000     0.00000
  external pressure =       15.90 kB  Pullay stress =        0.00 kB


 VOLUME and BASIS-vectors are now :
 -----------------------------------------------------------------------------
  energy-cutoff  :      404.80
  volume of cell :      473.27
      direct lattice vectors                 reciprocal lattice vectors
     8.250148166  0.000000000  0.000000000     0.121209944  0.000000000  0.000000000
     0.000000000  8.250148166  0.000000000     0.000000000  0.121209944  0.000000000
     0.000000000  0.000000000  6.953274261     0.000000000  0.000000000  0.143817137

  length of vectors
     8.250148166  8.250148166  6.953274261     0.121209944  0.121209944  0.143817137


 FORCES acting on ions:
    Electron-Ion                     Ewald-Force                    Non-Local-Force
 -----------------------------------------------------------------------------------------------
   -.355E-01 0.115E-01 0.331E-02   -.239E-08 -.239E-08 0.411E-08   0.217E-01 -.175E-01 0.573E-03
   -.355E-01 0.115E-01 -.331E-02   -.239E-08 -.239E-08 0.411E-08   0.217E-01 -.175E-01 -.573E-03
   -.507E-01 0.558E-01 0.242E-01   -.239E-08 -.802E-09 0.411E-08   0.452E-02 0.481E-01 -.267E-02
   -.507E-01 0.558E-01 -.242E-01   -.239E-08 -.802E-09 0.411E-08   0.452E-02 0.481E-01 0.267E-02
   -.158E-01 -.982E-01 0.695E-01   -.239E-08 0.631E-08 0.411E-08   -.227E-01 -.563E-01 -.455E-01
   -.158E-01 -.982E-01 -.695E-01   -.239E-08 0.631E-08 0.411E-08   -.227E-01 -.563E-01 0.455E-01
   0.223E-01 0.161E+00 0.222E-01   -.802E-09 -.239E-08 0.411E-08   -.154E-01 -.623E-01 -.192E-01
   0.223E-01 0.161E+00 -.222E-01   -.802E-09 -.239E-08 0.411E-08   -.154E-01 -.623E-01 0.192E-01
   -.159E+00 -.122E+00 -.134E-01   -.802E-09 -.802E-09 0.411E-08   0.532E-01 0.700E-01 0.601E-01
   -.159E+00 -.122E+00 0.134E-01   -.802E-09 -.802E-09 0.411E-08   0.532E-01 0.700E-01 -.601E-01
   0.131E-01 0.160E-01 -.712E-01   -.802E-09 0.631E-08 0.411E-08   0.382E-01 -.571E-01 0.165E-01
   0.131E-01 0.160E-01 0.712E-01   -.802E-09 0.631E-08 0.411E-08   0.382E-01 -.571E-01 -.165E-01
   -.202E-01 -.253E-01 -.155E-01   0.631E-08 -.239E-08 0.411E-08   0.423E-02 0.177E-01 0.372E-02
   -.202E-01 -.253E-01 0.155E-01   0.631E-08 -.239E-08 0.411E-08   0.423E-02 0.177E-01 -.372E-02
   0.211E+00 0.909E-01 -.114E+00   0.631E-08 -.802E-09 0.411E-08   -.627E-01 0.120E-01 0.632E-01
   0.211E+00 0.909E-01 0.114E+00   0.631E-08 -.802E-09 0.411E-08   -.627E-01 0.120E-01 -.632E-01
   0.472E-01 -.553E-01 -.161E+00   0.631E-08 0.631E-08 0.411E-08   -.418E-01 -.531E-02 0.147E-01
   0.472E-01 -.553E-01 0.161E+00   0.631E-08 0.631E-08 0.411E-08   -.418E-01 -.531E-02 -.147E-01
   0.390E+00 0.282E+00 -.209E-08   -.169E-07 -.169E-07 -.411E-08   -.248E+00 -.884E-01 0.000E+00
   0.155E+00 -.258E+00 -.495E-08   -.169E-07 -.169E-07 -.411E-08   -.763E-01 0.194E+00 0.000E+00
   -.494E+00 -.370E+00 -.139E-08   -.169E-07 0.802E-09 -.411E-08   0.332E+00 0.265E+00 0.000E+00
   -.142E+00 0.232E-01 -.552E-08   -.169E-07 0.802E-09 -.411E-08   0.823E-01 0.114E+00 0.000E+00
   -.436E+00 0.444E-01 0.172E-08   -.169E-07 0.130E-07 -.411E-08   0.231E+00 -.139E+00 0.000E+00
   0.178E+00 0.600E+00 -.763E-08   -.169E-07 0.130E-07 -.411E-08   -.140E+00 -.346E+00 0.000E+00
   -.432E+00 -.477E+00 -.534E-08   0.802E-09 -.169E-07 -.411E-08   0.320E+00 0.308E+00 0.000E+00
   -.269E+00 -.416E+00 0.114E-08   0.802E-09 -.169E-07 -.411E-08   0.183E+00 0.350E+00 0.000E+00
   -.458E-01 0.131E+00 -.455E-08   0.802E-09 0.802E-09 -.411E-08   0.143E+00 -.106E-01 0.000E+00
   -.237E-01 0.445E+00 0.204E-09   0.802E-09 0.802E-09 -.411E-08   0.509E-01 -.285E+00 0.000E+00
   -.112E+00 0.440E+00 -.146E-08   0.802E-09 0.130E-07 -.411E-08   0.369E-01 -.103E+00 0.000E+00
   0.405E+00 -.472E+00 -.170E-08   0.802E-09 0.130E-07 -.411E-08   -.220E+00 0.808E-01 0.000E+00
   0.399E-01 -.502E+00 -.457E-09   0.130E-07 -.169E-07 -.411E-08   -.887E-01 0.285E+00 0.000E+00
   0.143E+00 0.169E+00 -.330E-08   0.130E-07 -.169E-07 -.411E-08   -.127E+00 -.105E+00 0.000E+00
   0.552E+00 0.152E-01 0.157E-09   0.130E-07 0.802E-09 -.411E-08   -.256E+00 -.777E-01 0.000E+00
   0.169E+00 0.249E+00 -.416E-08   0.130E-07 0.802E-09 -.411E-08   -.210E+00 -.164E+00 0.000E+00
   0.174E+00 0.288E+00 0.296E-08   0.130E-07 0.130E-07 -.411E-08   -.919E-01 -.216E+00 0.000E+00
   -.249E+00 -.215E+00 -.642E-08   0.130E-07 0.130E-07 -.411E-08   0.879E-01 -.169E-01 0.000E+00
 -----------------------------------------------------------------------------------------------
   0.321E-01 0.561E-01 -.801E-07   -.197E-14 0.275E-13 0.265E-14   -.321E-01 -.561E-01 0.000E+00
 
 
 POSITION                                       TOTAL-FORCE (eV/Angst)
 -----------------------------------------------------------------------------------
      0.00000      0.00000      0.00000        -0.016051     -0.004840      0.004237
      0.00000      0.00000      3.47664        -0.016051     -0.004840     -0.004237
      0.00000      2.75005      0.00000        -0.047026      0.099578      0.022667
      0.00000      2.75005      3.47664        -0.047026      0.099578     -0.022667
      0.00000      5.50010      0.00000        -0.036955     -0.150107      0.028781
      0.00000      5.50010      3.47664        -0.036955     -0.150107     -0.028781
      2.75005      0.00000      0.00000         0.008359      0.104742      0.004964
      2.75005      0.00000      3.47664         0.008359      0.104742     -0.004964
      2.75005      2.75005      0.00000        -0.109387     -0.057926      0.041758
      2.75005      2.75005      3.47664        -0.109387     -0.057926     -0.041758
      2.75005      5.50010      0.00000         0.048921     -0.036579     -0.055547
      2.75005      5.50010      3.47664         0.048921     -0.036579      0.055547
      5.50010      0.00000      0.00000        -0.016622     -0.008997     -0.011555
      5.50010      0.00000      3.47664        -0.016622     -0.008997      0.011555
      5.50010      2.75005      0.00000         0.153704      0.102784     -0.054961
      5.50010      2.75005      3.47664         0.153704      0.102784      0.054961
      5.50010      5.50010      0.00000         0.008970     -0.060530     -0.146388
      5.50010      5.50010      3.47664         0.008970     -0.060530      0.146388
      1.37502      1.37502      1.73832         0.139702      0.193875      0.000000
      1.37502      1.37502      5.21496         0.080173     -0.063171      0.000000
      1.37502      4.12507      1.73832        -0.172113     -0.105279      0.000000
      1.37502      4.12507      5.21496        -0.061806      0.142387      0.000000
      1.37502      6.87512      1.73832        -0.214393     -0.095484      0.000000
      1.37502      6.87512      5.21496         0.044173      0.266550      0.000000
      4.12507      1.37502      1.73832        -0.106728     -0.171164      0.000000
      4.12507      1.37502      5.21496        -0.089639     -0.077904      0.000000
      4.12507      4.12507      1.73832         0.098297      0.125576      0.000000
      4.12507      4.12507      5.21496         0.027598      0.165443      0.000000
      4.12507      6.87512      1.73832        -0.078342      0.341850      0.000000
      4.12507      6.87512      5.21496         0.187838     -0.406344      0.000000
      6.87512      1.37502      1.73832        -0.049607     -0.227937      0.000000
      6.87512      1.37502      5.21496         0.018473      0.070645      0.000000
      6.87512      4.12507      1.73832         0.305701     -0.063040      0.000000
      6.87512      4.12507      5.21496        -0.037693      0.086177      0.000000
      6.87512      6.87512      1.73832         0.077619      0.074023      0.000000
      6.87512      6.87512      5.21496        -0.157079     -0.232456      0.000000
 -----------------------------------------------------------------------------------
    total drift:                                0.000010      0.000065     -0.000000


--------------------------------------------------------------------------------------------------------



  FREE ENERGIE OF THE ION-ELECTRON SYSTEM (eV)
  ---------------------------------------------------
  free  energy   TOTEN  =      -236.01101053 eV

  energy  without entropy=     -236.00470662  energy(sigma->0) =     -236.00890923
 


--------------------------------------------------------------------------------------------------------


    POTLOK:  cpu time    0.5998: real time    0.6001


--------------------------------------------------------------------------------------------------------


     LOOP+:  cpu time 1139.9350: real time 1151.5307
    4ORBIT:  cpu time    0.0000: real time    0.0000
 


 total charge     
 
# of ion       s       p       d       tot
------------------------------------------
    1        0.405   0.430   0.000   0.835
    2        0.405   0.429   0.000   0.834
    3        0.405   0.426   0.000   0.832
    4        0.405   0.427   0.000   0.832
    5        0.406   0.426   0.000   0.831
    6        0.406   0.425   0.000   0.831
    7        0.405   0.427   0.000   0.832
    8        0.405   0.427   0.000   0.832
    9        0.405   0.428   0.000   0.833
   10        0.405   0.428   0.000   0.833
   11        0.404   0.429   0.000   0.833
   12        0.404   0.429   0.000   0.833
   13        0.405   0.428   0.000   0.833
   14        0.405   0.428   0.000   0.833
   15        0.405   0.430   0.000   0.835
   16        0.405   0.430   0.000   0.835
   17        0.406   0.425   0.000   0.831
   18        0.406   0.424   0.000   0.830
   19        0.333   0.355   5.135   5.823
   20        0.330   0.356   5.132   5.818
   21        0.337   0.356   5.124   5.817
   22        0.334   0.353   5.136   5.823
   23        0.338   0.357   5.118   5.813
   24        0.339   0.355   5.119   5.812
   25        0.334   0.358   5.124   5.816
   26        0.331   0.353   5.142   5.826
   27        0.332   0.354   5.146   5.832
   28        0.333   0.358   5.122   5.813
   29        0.337   0.360   5.115   5.812
   30        0.339   0.350   5.128   5.816
   31        0.338   0.362   5.104   5.804
   32        0.334   0.354   5.130   5.819
   33        0.334   0.358   5.129   5.821
   34        0.332   0.348   5.148   5.828
   35        0.332   0.357   5.128   5.817
   36        0.333   0.355   5.136   5.824
--------------------------------------------------
tot         13.313  14.095  92.316 119.724
 


 magnetization (x)
 
# of ion       s       p       d       tot
------------------------------------------
    1        0.006   0.014   0.000   0.020
    2        0.006   0.015   0.000   0.021
    3       -0.003  -0.008   0.000  -0.011
    4       -0.003  -0.009   0.000  -0.012
    5       -0.005  -0.011   0.000  -0.015
    6       -0.005  -0.010   0.000  -0.015
    7        0.000   0.002   0.000   0.002
    8        0.001   0.002   0.000   0.003
    9       -0.005  -0.008   0.000  -0.013
   10       -0.005  -0.008   0.000  -0.014
   11       -0.006  -0.010   0.000  -0.017
   12       -0.006  -0.010   0.000  -0.017
   13        0.001   0.001   0.000   0.001
   14        0.001   0.001   0.000   0.002
   15       -0.003  -0.002   0.000  -0.004
   16       -0.003  -0.002   0.000  -0.005
   17       -0.008  -0.016   0.000  -0.023
   18       -0.008  -0.015   0.000  -0.023
   19        0.024   0.016   2.304   2.344
   20       -0.006  -0.010  -2.209  -2.225
   21        0.027   0.017   2.394   2.438
   22        0.025   0.016   2.258   2.299
   23       -0.038  -0.020  -2.506  -2.564
   24       -0.039  -0.021  -2.526  -2.586
   25        0.021   0.022   2.324   2.367
   26       -0.014  -0.021  -2.082  -2.118
   27       -0.036  -0.033  -2.045  -2.114
   28        0.005   0.026   2.269   2.300
   29        0.036   0.029   2.391   2.456
   30        0.032   0.011   2.554   2.597
   31       -0.035  -0.030  -2.531  -2.596
   32       -0.025  -0.010  -2.361  -2.396
   33        0.030   0.036   2.148   2.214
   34        0.017  -0.003   2.318   2.332
   35       -0.017  -0.019  -2.289  -2.325
   36        0.019   0.019   2.191   2.230
--------------------------------------------------
tot         -0.019  -0.051   4.600   4.531
 

 total amount of memory used by VASP MPI-rank0   751840. kBytes
=======================================================================

   base      :      30000. kBytes
   nonl-proj :      34307. kBytes
   fftplans  :      21726. kBytes
   grid      :      14732. kBytes
   one-center:        279. kBytes
   wavefun   :     650796. kBytes
 
  
  
 General timing and accounting informations for this job:
 ========================================================
  
                  Total CPU time used (sec):     1165.808
                            User time (sec):     1144.044
                          System time (sec):       21.764
                         Elapsed time (sec):     1180.928
  
                   Maximum memory used (kb):      889332.
                   Average memory used (kb):           0.
  
                          Minor page faults:       403466
                          Major page faults:           20
                 Voluntary context switches:         3434
