 vasp.5.4.4.18Apr17-6-g9f103f2a35 (build Dec 20 2018 12:05:58) complex          
  
 executed on             LinuxIFC date 2019.06.20  23:34:48
 running on   32 total cores
 distrk:  each k-point on    8 cores,    4 groups
 distr:  one band on NCORES_PER_BAND=   4 cores,    2 groups


--------------------------------------------------------------------------------------------------------


 INCAR:
 POTCAR:    PAW_PBE Al 04Jan2001                  
 POTCAR:    PAW_PBE Mn 06Sep2000                  

 ----------------------------------------------------------------------------- 
|                                                                             |
|           W    W    AA    RRRRR   N    N  II  N    N   GGGG   !!!           |
|           W    W   A  A   R    R  NN   N  II  NN   N  G    G  !!!           |
|           W    W  A    A  R    R  N N  N  II  N N  N  G       !!!           |
|           W WW W  AAAAAA  RRRRR   N  N N  II  N  N N  G  GGG   !            |
|           WW  WW  A    A  R   R   N   NN  II  N   NN  G    G                |
|           W    W  A    A  R    R  N    N  II  N    N   GGGG   !!!           |
|                                                                             |
|      You have enabled k-point parallelism (KPAR>1).                         |
|      This developmental code was originally  written by Paul Kent at ORNL,  |
|      and carefully double checked in Vienna.                                |
|      GW as well as linear response parallelism added by Martijn Marsman     |
|      and Georg Kresse.                                                      |
|      Carefully verify results versus KPAR=1.                                |
|      Report problems to Paul Kent and Vienna.                               |
|                                                                             |
 ----------------------------------------------------------------------------- 

 POTCAR:    PAW_PBE Al 04Jan2001                  
   VRHFIN =Al: s2p1                                                             
   LEXCH  = PE                                                                  
   EATOM  =    53.5387 eV,    3.9350 Ry                                         
                                                                                
   TITEL  = PAW_PBE Al 04Jan2001                                                
   LULTRA =        F    use ultrasoft PP ?                                      
   IUNSCR =        1    unscreen: 0-lin 1-nonlin 2-no                           
   RPACOR =    1.500    partial core radius                                     
   POMASS =   26.981; ZVAL   =    3.000    mass and valenz                      
   RCORE  =    1.900    outmost cutoff radius                                   
   RWIGS  =    2.650; RWIGS  =    1.402    wigner-seitz radius (au A)           
   ENMAX  =  240.300; ENMIN  =  180.225 eV                                      
   ICORE  =        2    local potential                                         
   LCOR   =        T    correct aug charges                                     
   LPAW   =        T    paw PP                                                  
   EAUG   =  291.052                                                            
   DEXC   =    0.000                                                            
   RMAX   =    1.939    core radius for proj-oper                               
   RAUG   =    1.300    factor for augmentation sphere                          
   RDEP   =    1.966    radius for radial grids                                 
   RDEPT  =    1.856    core radius for aug-charge                              
                                                                                
   Atomic configuration                                                         
    6 entries                                                                   
     n  l   j            E        occ.                                          
     1  0  0.50     -1511.1048   2.0000                                         
     2  0  0.50      -108.1629   2.0000                                         
     2  1  1.50       -69.6402   6.0000                                         
     3  0  0.50        -7.7528   2.0000                                         
     3  1  1.50        -2.7121   1.0000                                         
     3  2  2.50        -2.7212   0.0000                                         
   Description                                                                  
     l       E           TYP  RCUT    TYP  RCUT                                 
     0     -7.7528455     23  1.900                                             
     0     -3.3096929     23  1.900                                             
     1     -2.7120682     23  1.900                                             
     1     13.6058260     23  1.900                                             
     2     -2.7211652      7  1.900                                             
  local pseudopotential read in
  partial core-charges read in
  partial kinetic energy density read in
  atomic valenz-charges read in
  non local Contribution for L=           0  read in
    real space projection operators read in
  non local Contribution for L=           0  read in
    real space projection operators read in
  non local Contribution for L=           1  read in
    real space projection operators read in
  non local Contribution for L=           1  read in
    real space projection operators read in
    PAW grid and wavefunctions read in
 
   number of l-projection  operators is LMAX  =           4
   number of lm-projection operators is LMMAX =           8
 
 POTCAR:    PAW_PBE Mn 06Sep2000                  
   VRHFIN =Mn: d6 s1                                                            
   LEXCH  = PE                                                                  
   EATOM  =   416.7541 eV,   30.6306 Ry                                         
                                                                                
   TITEL  = PAW_PBE Mn 06Sep2000                                                
   LULTRA =        F    use ultrasoft PP ?                                      
   IUNSCR =        1    unscreen: 0-lin 1-nonlin 2-no                           
   RPACOR =    2.000    partial core radius                                     
   POMASS =   54.938; ZVAL   =    7.000    mass and valenz                      
   RCORE  =    2.300    outmost cutoff radius                                   
   RWIGS  =    2.500; RWIGS  =    1.323    wigner-seitz radius (au A)           
   ENMAX  =  269.864; ENMIN  =  202.398 eV                                      
   RCLOC  =    1.725    cutoff for local pot                                    
   LCOR   =        T    correct aug charges                                     
   LPAW   =        T    paw PP                                                  
   EAUG   =  500.711                                                            
   DEXC   =    0.000                                                            
   RMAX   =    2.343    core radius for proj-oper                               
   RAUG   =    1.300    factor for augmentation sphere                          
   RDEP   =    2.338    radius for radial grids                                 
   RDEPT  =    1.911    core radius for aug-charge                              
                                                                                
   Atomic configuration                                                         
    9 entries                                                                   
     n  l   j            E        occ.                                          
     1  0  0.50     -6424.8288   2.0000                                         
     2  0  0.50      -739.1154   2.0000                                         
     2  1  1.50      -625.3949   6.0000                                         
     3  0  0.50       -81.6100   2.0000                                         
     3  1  1.50       -50.4667   6.0000                                         
     3  2  2.50        -3.3745   6.0000                                         
     4  0  0.50        -4.1331   1.0000                                         
     4  1  0.50        -4.0817   0.0000                                         
     4  3  2.50        -1.3606   0.0000                                         
   Description                                                                  
     l       E           TYP  RCUT    TYP  RCUT                                 
     2     -3.3744664     23  2.300                                             
     2     -4.7350490     23  2.300                                             
     0     -4.1331408     23  2.300                                             
     0      7.6656614     23  2.300                                             
     1     -2.7211652     23  2.300                                             
     1     20.4087390     23  2.300                                             
  local pseudopotential read in
  partial core-charges read in
  partial kinetic energy density read in
  atomic valenz-charges read in
  non local Contribution for L=           2  read in
    real space projection operators read in
  non local Contribution for L=           2  read in
    real space projection operators read in
  non local Contribution for L=           0  read in
    real space projection operators read in
  non local Contribution for L=           0  read in
    real space projection operators read in
  non local Contribution for L=           1  read in
    real space projection operators read in
  non local Contribution for L=           1  read in
    real space projection operators read in
    PAW grid and wavefunctions read in
 
   number of l-projection  operators is LMAX  =           6
   number of lm-projection operators is LMMAX =          18
 

 ----------------------------------------------------------------------------- 
|                                                                             |
|  ADVICE TO THIS USER RUNNING 'VASP/VAMP'   (HEAR YOUR MASTER'S VOICE ...):  |
|                                                                             |
|      You have a (more or less) 'large supercell' and for larger cells       |
|      it might be more efficient to use real space projection opertators     |
|      So try LREAL= Auto  in the INCAR   file.                               |
|      Mind:          For very  accurate calculation you might also keep the  |
|      reciprocal projection scheme          (i.e. LREAL=.FALSE.)             |
|                                                                             |
 ----------------------------------------------------------------------------- 

  PAW_PBE Al 04Jan2001                  :
 energy of atom  1       EATOM=  -53.5387
 kinetic energy error for atom=    0.0005 (will be added to EATOM!!)
  PAW_PBE Mn 06Sep2000                  :
 energy of atom  2       EATOM= -416.7541
 kinetic energy error for atom=    0.0080 (will be added to EATOM!!)
 
 
 POSCAR: NewRef: 27, @ ['Mn', array([1.37502469, 
  positions in cartesian coordinates
  velocities in cartesian coordinates
  No initial velocities read in
 exchange correlation table for  LEXCH =        8
   RHO(1)=    0.500       N(1)  =     2000
   RHO(2)=  100.500       N(2)  =     4000
 


--------------------------------------------------------------------------------------------------------


 ion  position               nearest neighbor table
   1  0.000  0.000  0.000-  28 2.61  30 2.61  34 2.61  36 2.61  46 2.61  48 2.61  52 2.61  54 2.61
                             4 2.75  10 2.75   7 2.75  19 2.75
   2  0.000  0.000  0.333-  28 2.61  34 2.61  46 2.61  52 2.61  29 2.61  47 2.61  35 2.61  53 2.61
                             5 2.75  11 2.75   8 2.75  20 2.75
   3  0.000  0.000  0.667-  29 2.61  35 2.61  47 2.61  53 2.61  30 2.61  48 2.61  36 2.61  54 2.61
                             6 2.75  12 2.75   9 2.75  21 2.75
   4  0.000  0.333  0.000-  28 2.61  30 2.61  46 2.61  48 2.61  31 2.61  33 2.61  49 2.61  51 2.61
                            13 2.75   1 2.75   7 2.75  22 2.75
   5  0.000  0.333  0.333-  28 2.61  46 2.61  31 2.61  49 2.61  47 2.61  29 2.61  32 2.61  50 2.61
                            14 2.75   2 2.75   8 2.75  23 2.75
   6  0.000  0.333  0.667-  29 2.61  47 2.61  32 2.61  50 2.61  48 2.61  30 2.61  33 2.61  51 2.61
                            15 2.75   3 2.75   9 2.75  24 2.75
   7  0.000  0.667  0.000-  31 2.61  33 2.61  49 2.61  51 2.61  34 2.61  36 2.61  52 2.61  54 2.61
                             4 2.75  16 2.75   1 2.75  25 2.75
   8  0.000  0.667  0.333-  31 2.61  49 2.61  34 2.61  52 2.61  50 2.61  32 2.61  35 2.61  53 2.61
                             5 2.75  17 2.75   2 2.75  26 2.75
   9  0.000  0.667  0.667-  32 2.61  50 2.61  35 2.61  53 2.61  51 2.61  33 2.61  36 2.61  54 2.61
                             6 2.75  18 2.75   3 2.75  27 2.75
  10  0.333  0.000  0.000-  28 2.61  30 2.61  34 2.61  36 2.61  37 2.61  39 2.61  43 2.61  45 2.61
                            19 2.75   1 2.75  13 2.75  16 2.75
  11  0.333  0.000  0.333-  28 2.61  34 2.61  37 2.61  43 2.61  29 2.61  35 2.61  38 2.61  44 2.61
                            20 2.75   2 2.75  14 2.75  17 2.75
  12  0.333  0.000  0.667-  29 2.61  35 2.61  38 2.61  44 2.61  30 2.61  36 2.61  39 2.61  45 2.61
                            21 2.75   3 2.75  15 2.75  18 2.75
  13  0.333  0.333  0.000-  28 2.61  30 2.61  31 2.61  33 2.61  37 2.61  39 2.61  40 2.61  42 2.61
                             4 2.75  10 2.75  16 2.75  22 2.75
  14  0.333  0.333  0.333-  28 2.61  31 2.61  37 2.61  29 2.61  40 2.61  38 2.61  32 2.61  41 2.61
                             5 2.75  11 2.75  17 2.75  23 2.75
  15  0.333  0.333  0.667-  29 2.61  32 2.61  38 2.61  30 2.61  41 2.61  39 2.61  33 2.61  42 2.61
                             6 2.75  12 2.75  18 2.75  24 2.75
  16  0.333  0.667  0.000-  31 2.61  33 2.61  34 2.61  36 2.61  40 2.61  42 2.61  43 2.61  45 2.61
                            25 2.75   7 2.75  13 2.75  10 2.75
  17  0.333  0.667  0.333-  31 2.61  34 2.61  40 2.61  32 2.61  43 2.61  41 2.61  35 2.61  44 2.61
                            26 2.75   8 2.75  14 2.75  11 2.75
  18  0.333  0.667  0.667-  32 2.61  35 2.61  41 2.61  33 2.61  44 2.61  42 2.61  36 2.61  45 2.61
                            27 2.75   9 2.75  15 2.75  12 2.75
  19  0.667  0.000  0.000-  37 2.61  39 2.61  43 2.61  45 2.61  46 2.61  48 2.61  52 2.61  54 2.61
                            10 2.75  22 2.75   1 2.75  25 2.75
  20  0.667  0.000  0.333-  37 2.61  43 2.61  46 2.61  52 2.61  38 2.61  44 2.61  47 2.61  53 2.61
                            11 2.75  23 2.75   2 2.75  26 2.75
  21  0.667  0.000  0.667-  38 2.61  44 2.61  47 2.61  53 2.61  39 2.61  45 2.61  48 2.61  54 2.61
                            12 2.75  24 2.75   3 2.75  27 2.75
  22  0.667  0.333  0.000-  37 2.61  39 2.61  40 2.61  42 2.61  46 2.61  48 2.61  49 2.61  51 2.61
                            25 2.75  13 2.75  19 2.75   4 2.75
  23  0.667  0.333  0.333-  37 2.61  40 2.61  46 2.61  38 2.61  49 2.61  47 2.61  41 2.61  50 2.61
                            26 2.75  14 2.75  20 2.75   5 2.75
  24  0.667  0.333  0.667-  38 2.61  41 2.61  47 2.61  39 2.61  50 2.61  48 2.61  42 2.61  51 2.61
                            27 2.75  15 2.75  21 2.75   6 2.75
  25  0.667  0.667  0.000-  40 2.61  42 2.61  43 2.61  45 2.61  49 2.61  51 2.61  52 2.61  54 2.61
                            16 2.75  22 2.75  19 2.75   7 2.75
  26  0.667  0.667  0.333-  40 2.61  43 2.61  49 2.61  41 2.61  52 2.61  50 2.61  44 2.61  53 2.61
                            17 2.75  23 2.75  20 2.75   8 2.75
  27  0.667  0.667  0.667-  41 2.61  44 2.61  50 2.61  42 2.61  53 2.61  51 2.61  45 2.61  54 2.61
                            18 2.75  24 2.75  21 2.75   9 2.75
  28  0.167  0.167  0.167-  14 2.61  11 2.61   5 2.61  13 2.61   2 2.61  10 2.61   4 2.61   1 2.61
                            31 2.75  37 2.75  34 2.75  46 2.75
  29  0.167  0.167  0.500-  15 2.61  12 2.61   6 2.61  14 2.61   3 2.61  11 2.61   5 2.61   2 2.61
                            32 2.75  38 2.75  35 2.75  47 2.75
  30  0.167  0.167  0.833-  13 2.61  15 2.61  10 2.61  12 2.61   4 2.61   6 2.61   1 2.61   3 2.61
                            33 2.75  39 2.75  36 2.75  48 2.75
  31  0.167  0.500  0.167-  17 2.61  14 2.61   8 2.61  16 2.61   5 2.61  13 2.61   7 2.61   4 2.61
                            28 2.75  34 2.75  40 2.75  49 2.75
  32  0.167  0.500  0.500-  18 2.61  15 2.61   9 2.61  17 2.61   6 2.61  14 2.61   8 2.61   5 2.61
                            29 2.75  35 2.75  41 2.75  50 2.75
  33  0.167  0.500  0.833-  16 2.61  18 2.61  13 2.61  15 2.61   7 2.61   9 2.61   4 2.61   6 2.61
                            30 2.75  36 2.75  42 2.75  51 2.75
  34  0.167  0.833  0.167-  11 2.61  17 2.61   2 2.61   8 2.61  16 2.61  10 2.61   7 2.61   1 2.61
                            31 2.75  43 2.75  28 2.75  52 2.75
  35  0.167  0.833  0.500-  12 2.61  18 2.61   3 2.61   9 2.61  17 2.61  11 2.61   8 2.61   2 2.61
                            32 2.75  44 2.75  29 2.75  53 2.75
  36  0.167  0.833  0.833-  10 2.61  12 2.61  16 2.61  18 2.61   1 2.61   3 2.61   7 2.61   9 2.61
                            33 2.75  45 2.75  30 2.75  54 2.75
  37  0.500  0.167  0.167-  23 2.61  20 2.61  14 2.61  22 2.61  11 2.61  19 2.61  13 2.61  10 2.61
                            28 2.75  40 2.75  46 2.75  43 2.75
  38  0.500  0.167  0.500-  24 2.61  21 2.61  15 2.61  23 2.61  12 2.61  20 2.61  14 2.61  11 2.61
                            29 2.75  41 2.75  47 2.75  44 2.75
  39  0.500  0.167  0.833-  22 2.61  24 2.61  19 2.61  21 2.61  13 2.61  15 2.61  10 2.61  12 2.61
                            30 2.75  42 2.75  48 2.75  45 2.75
  40  0.500  0.500  0.167-  26 2.61  23 2.61  17 2.61  25 2.61  14 2.61  22 2.61  16 2.61  13 2.61
                            31 2.75  37 2.75  43 2.75  49 2.75
  41  0.500  0.500  0.500-  27 2.61  24 2.61  18 2.61  26 2.61  15 2.61  23 2.61  17 2.61  14 2.61
                            32 2.75  38 2.75  44 2.75  50 2.75
  42  0.500  0.500  0.833-  25 2.61  27 2.61  22 2.61  24 2.61  16 2.61  18 2.61  13 2.61  15 2.61
                            33 2.75  39 2.75  45 2.75  51 2.75
  43  0.500  0.833  0.167-  20 2.61  26 2.61  11 2.61  17 2.61  25 2.61  19 2.61  16 2.61  10 2.61
                            34 2.75  40 2.75  52 2.75  37 2.75
  44  0.500  0.833  0.500-  21 2.61  27 2.61  12 2.61  18 2.61  26 2.61  20 2.61  17 2.61  11 2.61
                            35 2.75  41 2.75  53 2.75  38 2.75
  45  0.500  0.833  0.833-  19 2.61  21 2.61  25 2.61  27 2.61  10 2.61  12 2.61  16 2.61  18 2.61
                            36 2.75  42 2.75  54 2.75  39 2.75
  46  0.833  0.167  0.167-   5 2.61  23 2.61  20 2.61   2 2.61  22 2.61   4 2.61  19 2.61   1 2.61
                            37 2.75  49 2.75  28 2.75  52 2.75
  47  0.833  0.167  0.500-   6 2.61  24 2.61  21 2.61   3 2.61  23 2.61   5 2.61  20 2.61   2 2.61
                            38 2.75  50 2.75  29 2.75  53 2.75
  48  0.833  0.167  0.833-   4 2.61   6 2.61  22 2.61  24 2.61  19 2.61  21 2.61   1 2.61   3 2.61
                            39 2.75  51 2.75  30 2.75  54 2.75
  49  0.833  0.500  0.167-   8 2.61  26 2.61  23 2.61   5 2.61  25 2.61   7 2.61  22 2.61   4 2.61
                            40 2.75  46 2.75  52 2.75  31 2.75
  50  0.833  0.500  0.500-   9 2.61  27 2.61  24 2.61   6 2.61  26 2.61   8 2.61  23 2.61   5 2.61
                            41 2.75  47 2.75  53 2.75  32 2.75
  51  0.833  0.500  0.833-   7 2.61   9 2.61  25 2.61  27 2.61  22 2.61  24 2.61   4 2.61   6 2.61
                            42 2.75  48 2.75  54 2.75  33 2.75
  52  0.833  0.833  0.167-   2 2.61   8 2.61  20 2.61  26 2.61  19 2.61   7 2.61  25 2.61   1 2.61
                            43 2.75  49 2.75  46 2.75  34 2.75
  53  0.833  0.833  0.500-   3 2.61   9 2.61  21 2.61  27 2.61  20 2.61   8 2.61  26 2.61   2 2.61
                            44 2.75  50 2.75  47 2.75  35 2.75
  54  0.833  0.833  0.833-   1 2.61   3 2.61   7 2.61   9 2.61  19 2.61  21 2.61  25 2.61  27 2.61
                            45 2.75  51 2.75  48 2.75  36 2.75
 
  LATTYP: Found a simple tetragonal cell.
 ALAT       =     8.2501481662
 C/A-ratio  =     1.2642089792
  
  Lattice vectors:
  
 A1 = (   8.2501481662,   0.0000000000,   0.0000000000)
 A2 = (   0.0000000000,   8.2501481662,   0.0000000000)
 A3 = (   0.0000000000,   0.0000000000,  10.4299113916)


Analysis of symmetry for initial positions (statically):
=====================================================================
 Subroutine PRICEL returns following result:
 
  LATTYP: Found a simple tetragonal cell.
 ALAT       =     2.7500493888
 C/A-ratio  =     1.2642089792
  
  Lattice vectors:
  
 A1 = (   2.7500493888,   0.0000000000,   0.0000000000)
 A2 = (   0.0000000000,   2.7500493888,   0.0000000000)
 A3 = (   0.0000000000,   0.0000000000,   3.4766371306)
 
  27 primitive cells build up your supercell.
 

 Routine SETGRP: Setting up the symmetry group for a 
 simple tetragonal supercell.


 Subroutine GETGRP returns: Found 16 space group operations
 (whereof 16 operations were pure point group operations)
 out of a pool of 16 trial point group operations.


The static configuration has the point symmetry D_4h.


Analysis of symmetry for dynamics (positions and initial velocities):
=====================================================================
 Subroutine PRICEL returns following result:
 
  LATTYP: Found a simple tetragonal cell.
 ALAT       =     2.7500493888
 C/A-ratio  =     1.2642089792
  
  Lattice vectors:
  
 A1 = (   2.7500493888,   0.0000000000,   0.0000000000)
 A2 = (   0.0000000000,   2.7500493888,   0.0000000000)
 A3 = (   0.0000000000,   0.0000000000,   3.4766371306)
 
  27 primitive cells build up your supercell.
 

 Routine SETGRP: Setting up the symmetry group for a 
 simple tetragonal supercell.


 Subroutine GETGRP returns: Found 16 space group operations
 (whereof 16 operations were pure point group operations)
 out of a pool of 16 trial point group operations.


The dynamic configuration has the point symmetry D_4h.


Analysis of structural, dynamic, and magnetic symmetry:
=====================================================================
 Subroutine PRICEL returns:
 Original cell was already a primitive cell.
 

 Routine SETGRP: Setting up the symmetry group for a 
 simple tetragonal supercell.


 Subroutine GETGRP returns: Found  8 space group operations
 (whereof  2 operations were pure point group operations)
 out of a pool of 16 trial point group operations.


The magnetic configuration has the point symmetry C_1h.
 The point group associated with its full space group is C_4v.


 Subroutine INISYM returns: Found  8 space group operations
 (whereof  2 operations are pure point group operations),
 and found     1 'primitive' translations

 
 
 KPOINTS: automatic KPOINTS                       

Automatic generation of k-mesh.
 generate k-points for:    5    5    4
Space group operators:
 irot       det(A)        alpha          n_x          n_y          n_z        tau_x        tau_y        tau_z
    1     1.000000     0.000001     1.000000     0.000000     0.000000     0.000000     0.000000     0.000000
    2    -1.000000   180.000000     0.707107     0.707107     0.000000     0.000000     0.000000     0.000000
    3     1.000000    90.000000     0.000000     0.000000    -1.000000     0.000000     0.666667     0.000000
    4     1.000000   180.000000     0.000000     0.000000     1.000000     0.333333     0.666667     0.000000
    5     1.000000    90.000000     0.000000     0.000000     1.000000     0.333333     0.000000     0.000000
    6    -1.000000   180.000000     0.000000     1.000000     0.000000     0.000000     0.666667     0.000000
    7    -1.000000   180.000000     1.000000     0.000000     0.000000     0.333333     0.000000     0.000000
    8    -1.000000   180.000000     0.707107    -0.707107     0.000000     0.333333     0.666667     0.000000
 
 Subroutine IBZKPT returns following result:
 ===========================================
 
 Found     18 irreducible k-points:
 
 Following reciprocal coordinates:
            Coordinates               Weight
  0.000000  0.000000  0.000000      1.000000
  0.200000  0.000000  0.000000      4.000000
  0.400000  0.000000  0.000000      4.000000
  0.200000  0.200000  0.000000      4.000000
  0.400000  0.200000  0.000000      8.000000
  0.400000  0.400000  0.000000      4.000000
  0.000000  0.000000  0.250000      2.000000
  0.200000  0.000000  0.250000      8.000000
  0.400000  0.000000  0.250000      8.000000
  0.200000  0.200000  0.250000      8.000000
  0.400000  0.200000  0.250000     16.000000
  0.400000  0.400000  0.250000      8.000000
  0.000000  0.000000  0.500000      1.000000
  0.200000  0.000000  0.500000      4.000000
  0.400000  0.000000  0.500000      4.000000
  0.200000  0.200000  0.500000      4.000000
  0.400000  0.200000  0.500000      8.000000
  0.400000  0.400000  0.500000      4.000000
 
 Following cartesian coordinates:
            Coordinates               Weight
  0.000000  0.000000  0.000000      1.000000
  0.024242  0.000000  0.000000      4.000000
  0.048484  0.000000  0.000000      4.000000
  0.024242  0.024242  0.000000      4.000000
  0.048484  0.024242  0.000000      8.000000
  0.048484  0.048484  0.000000      4.000000
  0.000000  0.000000  0.023970      2.000000
  0.024242  0.000000  0.023970      8.000000
  0.048484  0.000000  0.023970      8.000000
  0.024242  0.024242  0.023970      8.000000
  0.048484  0.024242  0.023970     16.000000
  0.048484  0.048484  0.023970      8.000000
  0.000000  0.000000  0.047939      1.000000
  0.024242  0.000000  0.047939      4.000000
  0.048484  0.000000  0.047939      4.000000
  0.024242  0.024242  0.047939      4.000000
  0.048484  0.024242  0.047939      8.000000
  0.048484  0.048484  0.047939      4.000000
 


--------------------------------------------------------------------------------------------------------




 Dimension of arrays:
   k-points           NKPTS =     18   k-points in BZ     NKDIM =     18   number of bands    NBANDS=    174
   number of dos      NEDOS =    301   number of ions     NIONS =     54
   non local maximal  LDIM  =      6   non local SUM 2l+1 LMDIM =     18
   total plane-waves  NPLWV = 204120
   max r-space proj   IRMAX =      1   max aug-charges    IRDMAX=  89713
   dimension x,y,z NGX =    54 NGY =   54 NGZ =   70
   dimension x,y,z NGXF=   108 NGYF=  108 NGZF=  140
   support grid    NGXF=   216 NGYF=  216 NGZF=  280
   ions per type =              27  27
   NGX,Y,Z   is equivalent  to a cutoff of  10.88, 10.88, 11.16 a.u.
   NGXF,Y,Z  is equivalent  to a cutoff of  21.76, 21.76, 22.32 a.u.

 SYSTEM =  AlMn_pv                                 
 POSCAR =  NewRef: 27, @ ['Mn', array([1.37502469, 

 Startparameter for this run:
   NWRITE =      2    write-flag & timer
   PREC   = accura    normal or accurate (medium, high low for compatibility)
   ISTART =      0    job   : 0-new  1-cont  2-samecut
   ICHARG =      2    charge: 1-file 2-atom 10-const
   ISPIN  =      2    spin polarized calculation?
   LNONCOLLINEAR =      F non collinear calculations
   LSORBIT =      F    spin-orbit coupling
   INIWAV =      1    electr: 0-lowe 1-rand  2-diag
   LASPH  =      F    aspherical Exc in radial PAW
   METAGGA=      F    non-selfconsistent MetaGGA calc.

 Electronic Relaxation 1
   ENCUT  =  404.8 eV  29.75 Ry    5.45 a.u.  13.53 13.53 17.11*2*pi/ulx,y,z
   ENINI  =  404.8     initial cutoff
   ENAUG  =  500.7 eV  augmentation charge cutoff
   NELM   =    100;   NELMIN=  4; NELMDL= -8     # of ELM steps 
   EDIFF  = 0.1E-06   stopping-criterion for ELM
   LREAL  =      F    real-space projection
   NLSPLINE    = F    spline interpolate recip. space projectors
   LCOMPAT=      F    compatible to vasp.4.4
   GGA_COMPAT  = T    GGA compatible to vasp.4.4-vasp.4.6
   LMAXPAW     = -100 max onsite density
   LMAXMIX     =    2 max onsite mixed and CHGCAR
   VOSKOWN=      0    Vosko Wilk Nusair interpolation
   ROPT   =    0.00000   0.00000
 Ionic relaxation
   EDIFFG = 0.1E-05   stopping-criterion for IOM
   NSW    =      0    number of steps for IOM
   NBLOCK =      1;   KBLOCK =      1    inner block; outer block 
   IBRION =     -1    ionic relax: 0-MD 1-quasi-New 2-CG
   NFREE  =      0    steps in history (QN), initial steepest desc. (CG)
   ISIF   =      2    stress and relaxation
   IWAVPR =     10    prediction:  0-non 1-charg 2-wave 3-comb
   ISYM   =      2    0-nonsym 1-usesym 2-fastsym
   LCORR  =      T    Harris-Foulkes like correction to forces

   POTIM  = 0.2000    time-step for ionic-motion
   TEIN   =    0.0    initial temperature
   TEBEG  =    0.0;   TEEND  =   0.0 temperature during run
   SMASS  =  -3.00    Nose mass-parameter (am)
   estimated Nose-frequenzy (Omega)   =  0.10E-29 period in steps =****** mass=  -0.156E-26a.u.
   SCALEE = 1.0000    scale energy and forces
   NPACO  =    256;   APACO  = 16.0  distance and # of slots for P.C.
   PSTRESS=    0.0 pullay stress

  Mass of Ions in am
   POMASS =  26.98 54.94
  Ionic Valenz
   ZVAL   =   3.00  7.00
  Atomic Wigner-Seitz radii
   RWIGS  =  -1.00 -1.00
  virtual crystal weights 
   VCA    =   1.00  1.00
   NELECT =     270.0000    total number of electrons
   NUPDOWN=      -1.0000    fix difference up-down

 DOS related values:
   EMIN   =  10.00;   EMAX   =-10.00  energy-range for DOS
   EFERMI =   0.00
   ISMEAR =     1;   SIGMA  =   0.20  broadening in eV -4-tet -1-fermi 0-gaus

 Electronic relaxation 2 (details)
   IALGO  =     58    algorithm
   LDIAG  =      T    sub-space diagonalisation (order eigenvalues)
   LSUBROT=      F    optimize rotation matrix (better conditioning)
   TURBO    =      0    0=normal 1=particle mesh
   IRESTART =      0    0=no restart 2=restart with 2 vectors
   NREBOOT  =      0    no. of reboots
   NMIN     =      0    reboot dimension
   EREF     =   0.00    reference energy to select bands
   IMIX   =      4    mixing-type and parameters
     AMIX     =   0.40;   BMIX     =  1.00
     AMIX_MAG =   1.60;   BMIX_MAG =  1.00
     AMIN     =   0.10
     WC   =   100.;   INIMIX=   1;  MIXPRE=   1;  MAXMIX= -45

 Intra band minimization:
   WEIMIN = 0.0000     energy-eigenvalue tresh-hold
   EBREAK =  0.14E-09  absolut break condition
   DEPER  =   0.30     relativ break condition  

   TIME   =   0.40     timestep for ELM

  volume/ion in A,a.u.               =      13.15        88.72
  Fermi-wavevector in a.u.,A,eV,Ry     =   1.186118  2.241439 19.141722  1.406877
  Thomas-Fermi vector in A             =   2.322298
 
 Write flags
   LWAVE        =      F    write WAVECAR
   LDOWNSAMPLE  =      F    k-point downsampling of WAVECAR
   LCHARG       =      F    write CHGCAR
   LVTOT        =      F    write LOCPOT, total local potential
   LVHAR        =      F    write LOCPOT, Hartree potential only
   LELF         =      F    write electronic localiz. function (ELF)
   LORBIT       =     10    0 simple, 1 ext, 2 COOP (PROOUT), +10 PAW based schemes


 Dipole corrections
   LMONO  =      F    monopole corrections only (constant potential shift)
   LDIPOL =      F    correct potential (dipole corrections)
   IDIPOL =      0    1-x, 2-y, 3-z, 4-all directions 
   EPSILON=  1.0000000 bulk dielectric constant

 Exchange correlation treatment:
   GGA     =    --    GGA type
   LEXCH   =     8    internal setting for exchange type
   VOSKOWN=      0    Vosko Wilk Nusair interpolation
   LHFCALC =     F    Hartree Fock is set to
   LHFONE  =     F    Hartree Fock one center treatment
   AEXX    =    0.0000 exact exchange contribution

 Linear response parameters
   LEPSILON=     F    determine dielectric tensor
   LRPA    =     F    only Hartree local field effects (RPA)
   LNABLA  =     F    use nabla operator in PAW spheres
   LVEL    =     F    velocity operator in full k-point grid
   LINTERFAST=   F  fast interpolation
   KINTER  =     0    interpolate to denser k-point grid
   CSHIFT  =0.1000    complex shift for real part using Kramers Kronig
   OMEGAMAX=  -1.0    maximum frequency
   DEG_THRESHOLD= 0.2000000E-02 threshold for treating states as degnerate
   RTIME   =   -0.100 relaxation time in fs
  (WPLASMAI=    0.000 imaginary part of plasma frequency in eV, 0.658/RTIME)
   DFIELD  = 0.0000000 0.0000000 0.0000000 field for delta impulse in time
 
 Orbital magnetization related:
   ORBITALMAG=     F  switch on orbital magnetization
   LCHIMAG   =     F  perturbation theory with respect to B field
   DQ        =  0.001000  dq finite difference perturbation B field
   LLRAUG    =     F  two centre corrections for induced B field



--------------------------------------------------------------------------------------------------------


 Static calculation
 charge density and potential will be updated during run
 spin polarized calculation
 Conjugate gradient for all bands (Freysoldt, et al. PRB 79, 241103 (2009))
 preconditioned conjugated gradient                                        
 perform sub-space diagonalisation
    before iterative eigenvector-optimisation
 modified Broyden-mixing scheme, WC =      100.0
 initial mixing is a Kerker type mixing with AMIX =  0.4000 and BMIX =      1.0000
 Hartree-type preconditioning will be used
 using additional bands           39
 reciprocal scheme for non local part
 use partial core corrections
 no Harris-corrections to forces 
 use gradient corrections 
 use of overlap-Matrix (Vanderbilt PP)
 Methfessel and Paxton  Order N= 1 SIGMA  =   0.20


--------------------------------------------------------------------------------------------------------


  energy-cutoff  :      404.80
  volume of cell :      709.91
      direct lattice vectors                 reciprocal lattice vectors
     8.250148166  0.000000000  0.000000000     0.121209944  0.000000000  0.000000000
     0.000000000  8.250148166  0.000000000     0.000000000  0.121209944  0.000000000
     0.000000000  0.000000000 10.429911392     0.000000000  0.000000000  0.095878092

  length of vectors
     8.250148166  8.250148166 10.429911392     0.121209944  0.121209944  0.095878092


 
 k-points in units of 2pi/SCALE and weight: automatic KPOINTS                       
   0.00000000  0.00000000  0.00000000       0.010
   0.02424199  0.00000000  0.00000000       0.040
   0.04848398  0.00000000  0.00000000       0.040
   0.02424199  0.02424199  0.00000000       0.040
   0.04848398  0.02424199  0.00000000       0.080
   0.04848398  0.04848398  0.00000000       0.040
   0.00000000  0.00000000  0.02396952       0.020
   0.02424199  0.00000000  0.02396952       0.080
   0.04848398  0.00000000  0.02396952       0.080
   0.02424199  0.02424199  0.02396952       0.080
   0.04848398  0.02424199  0.02396952       0.160
   0.04848398  0.04848398  0.02396952       0.080
   0.00000000  0.00000000  0.04793905       0.010
   0.02424199  0.00000000  0.04793905       0.040
   0.04848398  0.00000000  0.04793905       0.040
   0.02424199  0.02424199  0.04793905       0.040
   0.04848398  0.02424199  0.04793905       0.080
   0.04848398  0.04848398  0.04793905       0.040
 
 k-points in reciprocal lattice and weights: automatic KPOINTS                       
   0.00000000  0.00000000  0.00000000       0.010
   0.20000000  0.00000000  0.00000000       0.040
   0.40000000  0.00000000  0.00000000       0.040
   0.20000000  0.20000000  0.00000000       0.040
   0.40000000  0.20000000  0.00000000       0.080
   0.40000000  0.40000000  0.00000000       0.040
   0.00000000  0.00000000  0.25000000       0.020
   0.20000000  0.00000000  0.25000000       0.080
   0.40000000  0.00000000  0.25000000       0.080
   0.20000000  0.20000000  0.25000000       0.080
   0.40000000  0.20000000  0.25000000       0.160
   0.40000000  0.40000000  0.25000000       0.080
   0.00000000  0.00000000  0.50000000       0.010
   0.20000000  0.00000000  0.50000000       0.040
   0.40000000  0.00000000  0.50000000       0.040
   0.20000000  0.20000000  0.50000000       0.040
   0.40000000  0.20000000  0.50000000       0.080
   0.40000000  0.40000000  0.50000000       0.040
 
 position of ions in fractional coordinates (direct lattice) 
   0.00000000  0.00000000  0.00000000
   0.00000000  0.00000000  0.33333333
   0.00000000  0.00000000  0.66666667
   0.00000000  0.33333333  0.00000000
   0.00000000  0.33333333  0.33333333
   0.00000000  0.33333333  0.66666667
   0.00000000  0.66666667  0.00000000
   0.00000000  0.66666667  0.33333333
   0.00000000  0.66666667  0.66666667
   0.33333333  0.00000000  0.00000000
   0.33333333  0.00000000  0.33333333
   0.33333333  0.00000000  0.66666667
   0.33333333  0.33333333  0.00000000
   0.33333333  0.33333333  0.33333333
   0.33333333  0.33333333  0.66666667
   0.33333333  0.66666667  0.00000000
   0.33333333  0.66666667  0.33333333
   0.33333333  0.66666667  0.66666667
   0.66666667  0.00000000  0.00000000
   0.66666667  0.00000000  0.33333333
   0.66666667  0.00000000  0.66666667
   0.66666667  0.33333333  0.00000000
   0.66666667  0.33333333  0.33333333
   0.66666667  0.33333333  0.66666667
   0.66666667  0.66666667  0.00000000
   0.66666667  0.66666667  0.33333333
   0.66666667  0.66666667  0.66666667
   0.16666667  0.16666667  0.16666667
   0.16666667  0.16666667  0.50000000
   0.16666667  0.16666667  0.83333333
   0.16666667  0.50000000  0.16666667
   0.16666667  0.50000000  0.50000000
   0.16666667  0.50000000  0.83333333
   0.16666667  0.83333333  0.16666667
   0.16666667  0.83333333  0.50000000
   0.16666667  0.83333333  0.83333333
   0.50000000  0.16666667  0.16666667
   0.50000000  0.16666667  0.50000000
   0.50000000  0.16666667  0.83333333
   0.50000000  0.50000000  0.16666667
   0.50000000  0.50000000  0.50000000
   0.50000000  0.50000000  0.83333333
   0.50000000  0.83333333  0.16666667
   0.50000000  0.83333333  0.50000000
   0.50000000  0.83333333  0.83333333
   0.83333333  0.16666667  0.16666667
   0.83333333  0.16666667  0.50000000
   0.83333333  0.16666667  0.83333333
   0.83333333  0.50000000  0.16666667
   0.83333333  0.50000000  0.50000000
   0.83333333  0.50000000  0.83333333
   0.83333333  0.83333333  0.16666667
   0.83333333  0.83333333  0.50000000
   0.83333333  0.83333333  0.83333333
 
 position of ions in cartesian coordinates  (Angst):
   0.00000000  0.00000000  0.00000000
   0.00000000  0.00000000  3.47663713
   0.00000000  0.00000000  6.95327426
   0.00000000  2.75004939  0.00000000
   0.00000000  2.75004939  3.47663713
   0.00000000  2.75004939  6.95327426
   0.00000000  5.50009878  0.00000000
   0.00000000  5.50009878  3.47663713
   0.00000000  5.50009878  6.95327426
   2.75004939  0.00000000  0.00000000
   2.75004939  0.00000000  3.47663713
   2.75004939  0.00000000  6.95327426
   2.75004939  2.75004939  0.00000000
   2.75004939  2.75004939  3.47663713
   2.75004939  2.75004939  6.95327426
   2.75004939  5.50009878  0.00000000
   2.75004939  5.50009878  3.47663713
   2.75004939  5.50009878  6.95327426
   5.50009878  0.00000000  0.00000000
   5.50009878  0.00000000  3.47663713
   5.50009878  0.00000000  6.95327426
   5.50009878  2.75004939  0.00000000
   5.50009878  2.75004939  3.47663713
   5.50009878  2.75004939  6.95327426
   5.50009878  5.50009878  0.00000000
   5.50009878  5.50009878  3.47663713
   5.50009878  5.50009878  6.95327426
   1.37502469  1.37502469  1.73831857
   1.37502469  1.37502469  5.21495570
   1.37502469  1.37502469  8.69159283
   1.37502469  4.12507408  1.73831857
   1.37502469  4.12507408  5.21495570
   1.37502469  4.12507408  8.69159283
   1.37502469  6.87512347  1.73831857
   1.37502469  6.87512347  5.21495570
   1.37502469  6.87512347  8.69159283
   4.12507408  1.37502469  1.73831857
   4.12507408  1.37502469  5.21495570
   4.12507408  1.37502469  8.69159283
   4.12507408  4.12507408  1.73831857
   4.12507408  4.12507408  5.21495570
   4.12507408  4.12507408  8.69159283
   4.12507408  6.87512347  1.73831857
   4.12507408  6.87512347  5.21495570
   4.12507408  6.87512347  8.69159283
   6.87512347  1.37502469  1.73831857
   6.87512347  1.37502469  5.21495570
   6.87512347  1.37502469  8.69159283
   6.87512347  4.12507408  1.73831857
   6.87512347  4.12507408  5.21495570
   6.87512347  4.12507408  8.69159283
   6.87512347  6.87512347  1.73831857
   6.87512347  6.87512347  5.21495570
   6.87512347  6.87512347  8.69159283
 


--------------------------------------------------------------------------------------------------------


 k-point  1 :   0.0000 0.0000 0.0000  plane waves:   13099
 k-point  2 :   0.2000 0.0000 0.0000  plane waves:   13101
 k-point  3 :   0.4000 0.0000 0.0000  plane waves:   13111
 k-point  4 :   0.2000 0.2000 0.0000  plane waves:   13137
 k-point  5 :   0.4000 0.2000 0.0000  plane waves:   13119
 k-point  6 :   0.4000 0.4000 0.0000  plane waves:   13129
 k-point  7 :   0.0000 0.0000 0.2500  plane waves:   13134
 k-point  8 :   0.2000 0.0000 0.2500  plane waves:   13149
 k-point  9 :   0.4000 0.0000 0.2500  plane waves:   13119
 k-point 10 :   0.2000 0.2000 0.2500  plane waves:   13145
 k-point 11 :   0.4000 0.2000 0.2500  plane waves:   13134
 k-point 12 :   0.4000 0.4000 0.2500  plane waves:   13108
 k-point 13 :   0.0000 0.0000 0.5000  plane waves:   13186
 k-point 14 :   0.2000 0.0000 0.5000  plane waves:   13124
 k-point 15 :   0.4000 0.0000 0.5000  plane waves:   13152
 k-point 16 :   0.2000 0.2000 0.5000  plane waves:   13136
 k-point 17 :   0.4000 0.2000 0.5000  plane waves:   13128
 k-point 18 :   0.4000 0.4000 0.5000  plane waves:   13112

 maximum and minimum number of plane-waves per node :      3304     3246

 maximum number of plane-waves:     13186
 maximum index in each direction: 
   IXMAX=   13   IYMAX=   13   IZMAX=   17
   IXMIN=  -13   IYMIN=  -13   IZMIN=  -17


 parallel 3D FFT for wavefunctions:
    minimum data exchange during FFTs selected (reduces bandwidth)
 parallel 3D FFT for charge:
    minimum data exchange during FFTs selected (reduces bandwidth)


 total amount of memory used by VASP MPI-rank0   626513. kBytes
=======================================================================

   base      :      30000. kBytes
   nonl-proj :      19946. kBytes
   fftplans  :      31580. kBytes
   grid      :      21385. kBytes
   one-center:        435. kBytes
   wavefun   :     523167. kBytes
 
     INWAV:  cpu time    0.0001: real time    0.0001
 Broyden mixing: mesh for mixing (old mesh)
   NGX = 27   NGY = 27   NGZ = 35
  (NGX  =108   NGY  =108   NGZ  =140)
  gives a total of  25515 points

 initial charge density was supplied:
 charge density of overlapping atoms calculated
 number of electron     270.0000000 magnetization      21.0000000
 keeping initial charge density in first step


--------------------------------------------------------------------------------------------------------


 Maximum index for augmentation-charges        10967 (set IRDMAX)


--------------------------------------------------------------------------------------------------------


 First call to EWALD:  gamma=   0.199
 Maximum number of real-space cells 3x 3x 2
 Maximum number of reciprocal cells 3x 3x 3

    FEWALD:  cpu time    0.0025: real time    0.0025


--------------------------------------- Iteration      1(   1)  ---------------------------------------


    POTLOK:  cpu time    0.3955: real time    0.3960
    SETDIJ:  cpu time    0.4700: real time    0.4731
    TRIAL :  cpu time   22.0485: real time   22.2275
    CORREC:  cpu time    0.0039: real time    0.0040
    --------------------------------------------
      LOOP:  cpu time   23.0975: real time   23.2876

 eigenvalue-minimisations  : 12528
 total energy-change (2. order) : 0.2034050E+04  (-0.8848373E+04)
 number of electron     270.0000000 magnetization      21.0000000
 augmentation part      270.0000000 magnetization      21.0000000

 Free energy of the ion-electron system (eV)
  ---------------------------------------------------
  alpha Z        PSCENC =       798.38614055
  Ewald energy   TEWEN  =    -12901.57693327
  -Hartree energ DENC   =     -2855.60785864
  -exchange      EXHF   =         0.00000000
  -V(xc)+E(xc)   XCENC  =      -995.96582446
  PAW double counting   =     12741.82587617   -11476.22345381
  entropy T*S    EENTRO =         0.00185001
  eigenvalues    EBANDS =      4025.53590126
  atomic energy  EATOM  =     12697.67401269
  ---------------------------------------------------
  free energy    TOTEN  =      2034.04971049 eV

  energy without entropy =     2034.04786048  energy(sigma->0) =     2034.04909382


--------------------------------------------------------------------------------------------------------




--------------------------------------- Iteration      1(   2)  ---------------------------------------


    TRIAL :  cpu time   23.1691: real time   23.3114
    CORREC:  cpu time    0.0049: real time    0.0051
    --------------------------------------------
      LOOP:  cpu time   23.1750: real time   23.3199

 eigenvalue-minimisations  : 12528
 total energy-change (2. order) :-0.2130687E+04  (-0.2072524E+04)
 number of electron     270.0000000 magnetization      21.0000000
 augmentation part      270.0000000 magnetization      21.0000000

 Free energy of the ion-electron system (eV)
  ---------------------------------------------------
  alpha Z        PSCENC =       798.38614055
  Ewald energy   TEWEN  =    -12901.57693327
  -Hartree energ DENC   =     -2855.60785864
  -exchange      EXHF   =         0.00000000
  -V(xc)+E(xc)   XCENC  =      -995.96582446
  PAW double counting   =     12741.82587617   -11476.22345381
  entropy T*S    EENTRO =        -0.00032757
  eigenvalues    EBANDS =      1894.85114347
  atomic energy  EATOM  =     12697.67401269
  ---------------------------------------------------
  free energy    TOTEN  =       -96.63722489 eV

  energy without entropy =      -96.63689732  energy(sigma->0) =      -96.63711570


--------------------------------------------------------------------------------------------------------




--------------------------------------- Iteration      1(   3)  ---------------------------------------


    TRIAL :  cpu time   30.7671: real time   31.6765
    CORREC:  cpu time    0.0056: real time    0.0066
    --------------------------------------------
      LOOP:  cpu time   30.7739: real time   31.6861

 eigenvalue-minimisations  : 18808
 total energy-change (2. order) :-0.2604203E+03  (-0.2293373E+03)
 number of electron     270.0000000 magnetization      21.0000000
 augmentation part      270.0000000 magnetization      21.0000000

 Free energy of the ion-electron system (eV)
  ---------------------------------------------------
  alpha Z        PSCENC =       798.38614055
  Ewald energy   TEWEN  =    -12901.57693327
  -Hartree energ DENC   =     -2855.60785864
  -exchange      EXHF   =         0.00000000
  -V(xc)+E(xc)   XCENC  =      -995.96582446
  PAW double counting   =     12741.82587617   -11476.22345381
  entropy T*S    EENTRO =         0.00056434
  eigenvalues    EBANDS =      1634.42997508
  atomic energy  EATOM  =     12697.67401269
  ---------------------------------------------------
  free energy    TOTEN  =      -357.05750137 eV

  energy without entropy =     -357.05806570  energy(sigma->0) =     -357.05768948


--------------------------------------------------------------------------------------------------------




--------------------------------------- Iteration      1(   4)  ---------------------------------------


    TRIAL :  cpu time   32.9614: real time   34.0056
    CORREC:  cpu time    0.0058: real time    0.0067
    --------------------------------------------
      LOOP:  cpu time   32.9686: real time   34.0157

 eigenvalue-minimisations  : 20360
 total energy-change (2. order) :-0.4254831E+02  (-0.3741035E+02)
 number of electron     270.0000000 magnetization      21.0000000
 augmentation part      270.0000000 magnetization      21.0000000

 Free energy of the ion-electron system (eV)
  ---------------------------------------------------
  alpha Z        PSCENC =       798.38614055
  Ewald energy   TEWEN  =    -12901.57693327
  -Hartree energ DENC   =     -2855.60785864
  -exchange      EXHF   =         0.00000000
  -V(xc)+E(xc)   XCENC  =      -995.96582446
  PAW double counting   =     12741.82587617   -11476.22345381
  entropy T*S    EENTRO =         0.02377167
  eigenvalues    EBANDS =      1591.85845347
  atomic energy  EATOM  =     12697.67401269
  ---------------------------------------------------
  free energy    TOTEN  =      -399.60581564 eV

  energy without entropy =     -399.62958731  energy(sigma->0) =     -399.61373953


--------------------------------------------------------------------------------------------------------




--------------------------------------- Iteration      1(   5)  ---------------------------------------


    TRIAL :  cpu time   33.9971: real time   34.3943
    CORREC:  cpu time    0.0060: real time    0.0061
    --------------------------------------------
      LOOP:  cpu time   34.0044: real time   34.4039

 eigenvalue-minimisations  : 20672
 total energy-change (2. order) :-0.4298664E+01  (-0.4114358E+01)
 number of electron     270.0000000 magnetization      21.0000000
 augmentation part      270.0000000 magnetization      21.0000000

 Free energy of the ion-electron system (eV)
  ---------------------------------------------------
  alpha Z        PSCENC =       798.38614055
  Ewald energy   TEWEN  =    -12901.57693327
  -Hartree energ DENC   =     -2855.60785864
  -exchange      EXHF   =         0.00000000
  -V(xc)+E(xc)   XCENC  =      -995.96582446
  PAW double counting   =     12741.82587617   -11476.22345381
  entropy T*S    EENTRO =         0.02618757
  eigenvalues    EBANDS =      1587.55737371
  atomic energy  EATOM  =     12697.67401269
  ---------------------------------------------------
  free energy    TOTEN  =      -403.90447950 eV

  energy without entropy =     -403.93066708  energy(sigma->0) =     -403.91320870


--------------------------------------------------------------------------------------------------------




--------------------------------------- Iteration      1(   6)  ---------------------------------------


    TRIAL :  cpu time   34.6020: real time   34.8840
    CORREC:  cpu time    0.0058: real time    0.0058
    --------------------------------------------
      LOOP:  cpu time   34.6086: real time   34.8931

 eigenvalue-minimisations  : 20664
 total energy-change (2. order) :-0.3596930E+00  (-0.3530519E+00)
 number of electron     270.0000000 magnetization      21.0000000
 augmentation part      270.0000000 magnetization      21.0000000

 Free energy of the ion-electron system (eV)
  ---------------------------------------------------
  alpha Z        PSCENC =       798.38614055
  Ewald energy   TEWEN  =    -12901.57693327
  -Hartree energ DENC   =     -2855.60785864
  -exchange      EXHF   =         0.00000000
  -V(xc)+E(xc)   XCENC  =      -995.96582446
  PAW double counting   =     12741.82587617   -11476.22345381
  entropy T*S    EENTRO =         0.02790976
  eigenvalues    EBANDS =      1587.19595854
  atomic energy  EATOM  =     12697.67401269
  ---------------------------------------------------
  free energy    TOTEN  =      -404.26417248 eV

  energy without entropy =     -404.29208224  energy(sigma->0) =     -404.27347573


--------------------------------------------------------------------------------------------------------




--------------------------------------- Iteration      1(   7)  ---------------------------------------


    TRIAL :  cpu time   33.8035: real time   34.0243
    CORREC:  cpu time    0.0059: real time    0.0068
    --------------------------------------------
      LOOP:  cpu time   33.8127: real time   34.0346

 eigenvalue-minimisations  : 20992
 total energy-change (2. order) :-0.3760068E-01  (-0.3726173E-01)
 number of electron     270.0000000 magnetization      21.0000000
 augmentation part      270.0000000 magnetization      21.0000000

 Free energy of the ion-electron system (eV)
  ---------------------------------------------------
  alpha Z        PSCENC =       798.38614055
  Ewald energy   TEWEN  =    -12901.57693327
  -Hartree energ DENC   =     -2855.60785864
  -exchange      EXHF   =         0.00000000
  -V(xc)+E(xc)   XCENC  =      -995.96582446
  PAW double counting   =     12741.82587617   -11476.22345381
  entropy T*S    EENTRO =         0.02835949
  eigenvalues    EBANDS =      1587.15790814
  atomic energy  EATOM  =     12697.67401269
  ---------------------------------------------------
  free energy    TOTEN  =      -404.30177316 eV

  energy without entropy =     -404.33013264  energy(sigma->0) =     -404.31122632


--------------------------------------------------------------------------------------------------------




--------------------------------------- Iteration      1(   8)  ---------------------------------------


    TRIAL :  cpu time   34.1490: real time   34.3842
    CORREC:  cpu time    0.0062: real time    0.0063
    CHARGE:  cpu time    1.2865: real time    1.2865
    --------------------------------------------
      LOOP:  cpu time   35.4429: real time   35.6811

 eigenvalue-minimisations  : 20248
 total energy-change (2. order) :-0.2888336E-02  (-0.2870845E-02)
 number of electron     269.9999995 magnetization      14.5119894
 augmentation part       64.2491913 magnetization       8.4045027

 Free energy of the ion-electron system (eV)
  ---------------------------------------------------
  alpha Z        PSCENC =       798.38614055
  Ewald energy   TEWEN  =    -12901.57693327
  -Hartree energ DENC   =     -2855.60785864
  -exchange      EXHF   =         0.00000000
  -V(xc)+E(xc)   XCENC  =      -995.96582446
  PAW double counting   =     12741.82587617   -11476.22345381
  entropy T*S    EENTRO =         0.02843231
  eigenvalues    EBANDS =      1587.15494699
  atomic energy  EATOM  =     12697.67401269
  ---------------------------------------------------
  free energy    TOTEN  =      -404.30466149 eV

  energy without entropy =     -404.33309380  energy(sigma->0) =     -404.31413893


--------------------------------------------------------------------------------------------------------




--------------------------------------- Iteration      1(   9)  ---------------------------------------


    POTLOK:  cpu time    0.3976: real time    0.3978
    SETDIJ:  cpu time    0.4636: real time    0.4635
    TRIAL :  cpu time   11.4407: real time   11.6288
    CORREC:  cpu time    4.0578: real time    4.0648
    CHARGE:  cpu time    1.2877: real time    1.2878
    --------------------------------------------
      LOOP:  cpu time   17.6558: real time   17.8515

 eigenvalue-minimisations  :     0
 total energy-change (2. order) : 0.2985191E+03  (-0.2173077E+03)
 number of electron     269.9999993 magnetization      15.4910700
 augmentation part       82.6662895 magnetization      10.2870539

 Free energy of the ion-electron system (eV)
  ---------------------------------------------------
  alpha Z        PSCENC =       798.38614055
  Ewald energy   TEWEN  =    -12901.57693327
  -Hartree energ DENC   =     -1274.58786263
  -exchange      EXHF   =         0.00000000
  -V(xc)+E(xc)   XCENC  =     -1041.52124495
  PAW double counting   =     19174.46356012   -17755.03396010
  entropy T*S    EENTRO =         0.01926283
  eigenvalues    EBANDS =       196.38229025
  atomic energy  EATOM  =     12697.67401269
  ---------------------------------------------------
  free energy    TOTEN  =      -105.78556504 eV

  energy without entropy =     -105.80482786  energy(sigma->0) =     -105.79198598


--------------------------------------------------------------------------------------------------------




--------------------------------------- Iteration      1(  10)  ---------------------------------------


    POTLOK:  cpu time    0.3890: real time    0.3889
    SETDIJ:  cpu time    0.4779: real time    0.4779
    TRIAL :  cpu time   11.6164: real time   12.0932
    CORREC:  cpu time    4.0302: real time    4.0325
    CHARGE:  cpu time    1.2593: real time    1.2624
    --------------------------------------------
      LOOP:  cpu time   18.8301: real time   19.3213

 eigenvalue-minimisations  :     0
 total energy-change (2. order) :-0.2131857E+03  (-0.1186576E+02)
 number of electron     269.9999993 magnetization      15.7463210
 augmentation part       86.3465760 magnetization      10.5797607

 Free energy of the ion-electron system (eV)
  ---------------------------------------------------
  alpha Z        PSCENC =       798.38614055
  Ewald energy   TEWEN  =    -12901.57693327
  -Hartree energ DENC   =     -2116.76178951
  -exchange      EXHF   =         0.00000000
  -V(xc)+E(xc)   XCENC  =     -1012.03744381
  PAW double counting   =     20687.15355227   -19450.36686752
  entropy T*S    EENTRO =         0.00828349
  eigenvalues    EBANDS =       978.53875639
  atomic energy  EATOM  =     12697.67401269
  ---------------------------------------------------
  free energy    TOTEN  =      -318.97130939 eV

  energy without entropy =     -318.97959288  energy(sigma->0) =     -318.97407055


--------------------------------------------------------------------------------------------------------




--------------------------------------- Iteration      1(  11)  ---------------------------------------


    POTLOK:  cpu time    0.3914: real time    0.3913
    SETDIJ:  cpu time    0.4950: real time    0.4950
    TRIAL :  cpu time   11.3814: real time   12.2251
    CORREC:  cpu time    4.0453: real time    4.0468
    CHARGE:  cpu time    1.2246: real time    1.2824
    --------------------------------------------
      LOOP:  cpu time   17.5491: real time   18.4535

 eigenvalue-minimisations  :     0
 total energy-change (2. order) :-0.1122099E+02  (-0.1111604E+02)
 number of electron     269.9999993 magnetization      15.9553555
 augmentation part       88.9971434 magnetization      11.0437308

 Free energy of the ion-electron system (eV)
  ---------------------------------------------------
  alpha Z        PSCENC =       798.38614055
  Ewald energy   TEWEN  =    -12901.57693327
  -Hartree energ DENC   =     -2336.11885600
  -exchange      EXHF   =         0.00000000
  -V(xc)+E(xc)   XCENC  =     -1003.90414169
  PAW double counting   =     21534.50911175   -20334.00307203
  entropy T*S    EENTRO =         0.00183673
  eigenvalues    EBANDS =      1214.83315078
  atomic energy  EATOM  =     12697.67401269
  ---------------------------------------------------
  free energy    TOTEN  =      -330.19230373 eV

  energy without entropy =     -330.19414046  energy(sigma->0) =     -330.19291597


--------------------------------------------------------------------------------------------------------




--------------------------------------- Iteration      1(  12)  ---------------------------------------


    POTLOK:  cpu time    0.4024: real time    0.4142
    SETDIJ:  cpu time    0.4865: real time    0.4867
    TRIAL :  cpu time   11.3347: real time   11.3782
    CORREC:  cpu time    3.9232: real time    4.0500
    CHARGE:  cpu time    1.2753: real time    1.3284
    --------------------------------------------
      LOOP:  cpu time   17.4240: real time   17.8911

 eigenvalue-minimisations  :     0
 total energy-change (2. order) :-0.1132448E+02  (-0.1199202E+02)
 number of electron     269.9999993 magnetization      16.3177211
 augmentation part       86.7877543 magnetization      11.3001444

 Free energy of the ion-electron system (eV)
  ---------------------------------------------------
  alpha Z        PSCENC =       798.38614055
  Ewald energy   TEWEN  =    -12901.57693327
  -Hartree energ DENC   =     -2546.55372883
  -exchange      EXHF   =         0.00000000
  -V(xc)+E(xc)   XCENC  =      -996.75388455
  PAW double counting   =     21847.07001785   -20660.44770825
  entropy T*S    EENTRO =        -0.02628763
  eigenvalues    EBANDS =      1420.68346163
  atomic energy  EATOM  =     12697.67401269
  ---------------------------------------------------
  free energy    TOTEN  =      -341.51678545 eV

  energy without entropy =     -341.49049782  energy(sigma->0) =     -341.50802291


--------------------------------------------------------------------------------------------------------




--------------------------------------- Iteration      1(  13)  ---------------------------------------


    POTLOK:  cpu time    0.3921: real time    0.3922
    SETDIJ:  cpu time    0.4638: real time    0.4638
    TRIAL :  cpu time   11.4810: real time   11.5029
    CORREC:  cpu time    4.1013: real time    4.8432
    CHARGE:  cpu time    1.2688: real time    1.2690
    --------------------------------------------
      LOOP:  cpu time   17.7096: real time   18.4748

 eigenvalue-minimisations  :     0
 total energy-change (2. order) :-0.1192882E+02  (-0.8720734E+00)
 number of electron     269.9999993 magnetization      16.6208416
 augmentation part       86.2672522 magnetization      11.3219778

 Free energy of the ion-electron system (eV)
  ---------------------------------------------------
  alpha Z        PSCENC =       798.38614055
  Ewald energy   TEWEN  =    -12901.57693327
  -Hartree energ DENC   =     -2519.58761588
  -exchange      EXHF   =         0.00000000
  -V(xc)+E(xc)   XCENC  =      -998.62906595
  PAW double counting   =     21227.78807494   -19989.72621505
  entropy T*S    EENTRO =        -0.02847791
  eigenvalues    EBANDS =      1332.25228651
  atomic energy  EATOM  =     12697.67401269
  ---------------------------------------------------
  free energy    TOTEN  =      -353.44560310 eV

  energy without entropy =     -353.41712519  energy(sigma->0) =     -353.43611046


--------------------------------------------------------------------------------------------------------




--------------------------------------- Iteration      1(  14)  ---------------------------------------


    POTLOK:  cpu time    0.3921: real time    0.3922
    SETDIJ:  cpu time    0.4635: real time    0.4635
    TRIAL :  cpu time   11.3440: real time   11.3938
    CORREC:  cpu time    4.0288: real time    4.8637
    CHARGE:  cpu time    1.2531: real time    1.2541
    --------------------------------------------
      LOOP:  cpu time   17.4837: real time   18.3708

 eigenvalue-minimisations  :     0
 total energy-change (2. order) :-0.8666961E+00  (-0.1253211E+01)
 number of electron     269.9999993 magnetization      16.5958842
 augmentation part       85.9888675 magnetization      11.2524151

 Free energy of the ion-electron system (eV)
  ---------------------------------------------------
  alpha Z        PSCENC =       798.38614055
  Ewald energy   TEWEN  =    -12901.57693327
  -Hartree energ DENC   =     -2491.64448349
  -exchange      EXHF   =         0.00000000
  -V(xc)+E(xc)   XCENC  =      -999.66015933
  PAW double counting   =     20897.54299547   -19650.55161060
  entropy T*S    EENTRO =        -0.02993282
  eigenvalues    EBANDS =      1295.54621671
  atomic energy  EATOM  =     12697.67401269
  ---------------------------------------------------
  free energy    TOTEN  =      -354.31229917 eV

  energy without entropy =     -354.28236635  energy(sigma->0) =     -354.30232157


--------------------------------------------------------------------------------------------------------




--------------------------------------- Iteration      1(  15)  ---------------------------------------


    POTLOK:  cpu time    0.3914: real time    0.3914
    SETDIJ:  cpu time    0.4602: real time    0.4602
    TRIAL :  cpu time   11.3720: real time   11.4751
    CORREC:  cpu time    4.0313: real time    4.0327
    CHARGE:  cpu time    1.2596: real time    1.2596
    --------------------------------------------
      LOOP:  cpu time   17.5237: real time   17.6294

 eigenvalue-minimisations  :     0
 total energy-change (2. order) :-0.1251980E+01  (-0.5223286E+00)
 number of electron     269.9999992 magnetization      16.6139631
 augmentation part       86.6044901 magnetization      11.2968343

 Free energy of the ion-electron system (eV)
  ---------------------------------------------------
  alpha Z        PSCENC =       798.38614055
  Ewald energy   TEWEN  =    -12901.57693327
  -Hartree energ DENC   =     -2462.38310462
  -exchange      EXHF   =         0.00000000
  -V(xc)+E(xc)   XCENC  =     -1000.67688787
  PAW double counting   =     20059.26541658   -18803.25523946
  entropy T*S    EENTRO =        -0.03297529
  eigenvalues    EBANDS =      1257.03224865
  atomic energy  EATOM  =     12697.67401269
  ---------------------------------------------------
  free energy    TOTEN  =      -355.56427958 eV

  energy without entropy =     -355.53130429  energy(sigma->0) =     -355.55328781


--------------------------------------------------------------------------------------------------------




--------------------------------------- Iteration      1(  16)  ---------------------------------------


    POTLOK:  cpu time    0.4199: real time    0.4208
    SETDIJ:  cpu time    0.4537: real time    0.4548
    TRIAL :  cpu time   11.5210: real time   11.6939
    CORREC:  cpu time    4.0465: real time    4.0480
    CHARGE:  cpu time    1.2596: real time    1.2597
    --------------------------------------------
      LOOP:  cpu time   17.7131: real time   17.8910

 eigenvalue-minimisations  :     0
 total energy-change (2. order) :-0.5210705E+00  (-0.2404820E+00)
 number of electron     269.9999992 magnetization      16.7385718
 augmentation part       87.1283538 magnetization      11.3963938

 Free energy of the ion-electron system (eV)
  ---------------------------------------------------
  alpha Z        PSCENC =       798.38614055
  Ewald energy   TEWEN  =    -12901.57693327
  -Hartree energ DENC   =     -2486.06768712
  -exchange      EXHF   =         0.00000000
  -V(xc)+E(xc)   XCENC  =      -999.69317155
  PAW double counting   =     19756.61349954   -18505.18470504
  entropy T*S    EENTRO =        -0.03229983
  eigenvalues    EBANDS =      1283.79646942
  atomic energy  EATOM  =     12697.67401269
  ---------------------------------------------------
  free energy    TOTEN  =      -356.08535006 eV

  energy without entropy =     -356.05305023  energy(sigma->0) =     -356.07458345


--------------------------------------------------------------------------------------------------------




--------------------------------------- Iteration      1(  17)  ---------------------------------------


    POTLOK:  cpu time    0.3923: real time    0.3925
    SETDIJ:  cpu time    0.4416: real time    0.4737
    TRIAL :  cpu time   12.1320: real time   12.1716
    CORREC:  cpu time    4.0509: real time    4.0655
    CHARGE:  cpu time    1.2478: real time    1.3121
    --------------------------------------------
      LOOP:  cpu time   18.2968: real time   18.4491

 eigenvalue-minimisations  :     0
 total energy-change (2. order) :-0.2423949E+00  (-0.2538506E+00)
 number of electron     269.9999992 magnetization      16.7988569
 augmentation part       87.2782015 magnetization      11.5481894

 Free energy of the ion-electron system (eV)
  ---------------------------------------------------
  alpha Z        PSCENC =       798.38614055
  Ewald energy   TEWEN  =    -12901.57693327
  -Hartree energ DENC   =     -2509.34188836
  -exchange      EXHF   =         0.00000000
  -V(xc)+E(xc)   XCENC  =      -998.72451888
  PAW double counting   =     19646.40063436   -18399.91916310
  entropy T*S    EENTRO =        -0.03228870
  eigenvalues    EBANDS =      1310.80627093
  atomic energy  EATOM  =     12697.67401269
  ---------------------------------------------------
  free energy    TOTEN  =      -356.32774492 eV

  energy without entropy =     -356.29545621  energy(sigma->0) =     -356.31698202


--------------------------------------------------------------------------------------------------------




--------------------------------------- Iteration      1(  18)  ---------------------------------------


    POTLOK:  cpu time    0.3874: real time    0.4195
    SETDIJ:  cpu time    0.6342: real time    0.6468
    TRIAL :  cpu time   11.9894: real time   12.0995
    CORREC:  cpu time    4.0317: real time    4.0484
    CHARGE:  cpu time    1.2297: real time    1.2692
    --------------------------------------------
      LOOP:  cpu time   18.2760: real time   18.4881

 eigenvalue-minimisations  :     0
 total energy-change (2. order) :-0.2538990E+00  (-0.1417196E+00)
 number of electron     269.9999992 magnetization      16.8422918
 augmentation part       87.0728168 magnetization      11.6369346

 Free energy of the ion-electron system (eV)
  ---------------------------------------------------
  alpha Z        PSCENC =       798.38614055
  Ewald energy   TEWEN  =    -12901.57693327
  -Hartree energ DENC   =     -2513.69991871
  -exchange      EXHF   =         0.00000000
  -V(xc)+E(xc)   XCENC  =      -998.19915488
  PAW double counting   =     19551.46093180   -18306.35661125
  entropy T*S    EENTRO =        -0.03273437
  eigenvalues    EBANDS =      1315.76217783
  atomic energy  EATOM  =     12697.67401269
  ---------------------------------------------------
  free energy    TOTEN  =      -356.58164394 eV

  energy without entropy =     -356.54890957  energy(sigma->0) =     -356.57073248


--------------------------------------------------------------------------------------------------------




--------------------------------------- Iteration      1(  19)  ---------------------------------------


    POTLOK:  cpu time    0.4290: real time    0.4291
    SETDIJ:  cpu time    0.4520: real time    0.4520
    TRIAL :  cpu time   11.4122: real time   11.5458
    CORREC:  cpu time    4.7247: real time    4.7370
    CHARGE:  cpu time    1.2827: real time    1.2909
    --------------------------------------------
      LOOP:  cpu time   18.3026: real time   18.4570

 eigenvalue-minimisations  :     0
 total energy-change (2. order) :-0.1413306E+00  (-0.6214362E-01)
 number of electron     269.9999992 magnetization      16.8985134
 augmentation part       86.8438961 magnetization      11.6845307

 Free energy of the ion-electron system (eV)
  ---------------------------------------------------
  alpha Z        PSCENC =       798.38614055
  Ewald energy   TEWEN  =    -12901.57693327
  -Hartree energ DENC   =     -2501.84151028
  -exchange      EXHF   =         0.00000000
  -V(xc)+E(xc)   XCENC  =      -998.37747533
  PAW double counting   =     19500.84049637   -18253.48989525
  entropy T*S    EENTRO =        -0.03276537
  eigenvalues    EBANDS =      1301.69492433
  atomic energy  EATOM  =     12697.67401269
  ---------------------------------------------------
  free energy    TOTEN  =      -356.72297455 eV

  energy without entropy =     -356.69020918  energy(sigma->0) =     -356.71205276


--------------------------------------------------------------------------------------------------------




--------------------------------------- Iteration      1(  20)  ---------------------------------------


    POTLOK:  cpu time    0.4153: real time    0.4154
    SETDIJ:  cpu time    0.4597: real time    0.4596
    TRIAL :  cpu time   11.2821: real time   12.1160
    CORREC:  cpu time    4.0099: real time    4.0289
    CHARGE:  cpu time    1.2606: real time    1.2608
    --------------------------------------------
      LOOP:  cpu time   17.4377: real time   18.2922

 eigenvalue-minimisations  :     0
 total energy-change (2. order) :-0.6214848E-01  (-0.5958282E-01)
 number of electron     269.9999992 magnetization      16.9492723
 augmentation part       86.8051339 magnetization      11.7522077

 Free energy of the ion-electron system (eV)
  ---------------------------------------------------
  alpha Z        PSCENC =       798.38614055
  Ewald energy   TEWEN  =    -12901.57693327
  -Hartree energ DENC   =     -2491.61192898
  -exchange      EXHF   =         0.00000000
  -V(xc)+E(xc)   XCENC  =      -998.61526001
  PAW double counting   =     19481.02390216   -18231.48876683
  entropy T*S    EENTRO =        -0.03292684
  eigenvalues    EBANDS =      1289.45647603
  atomic energy  EATOM  =     12697.67401269
  ---------------------------------------------------
  free energy    TOTEN  =      -356.78512303 eV

  energy without entropy =     -356.75219619  energy(sigma->0) =     -356.77414742


--------------------------------------------------------------------------------------------------------




--------------------------------------- Iteration      1(  21)  ---------------------------------------


    POTLOK:  cpu time    0.4123: real time    0.4122
    SETDIJ:  cpu time    0.4679: real time    0.4679
    TRIAL :  cpu time   12.0299: real time   12.1860
    CORREC:  cpu time    4.0262: real time    4.0650
    CHARGE:  cpu time    1.2590: real time    1.2592
    --------------------------------------------
      LOOP:  cpu time   18.2168: real time   18.4129

 eigenvalue-minimisations  :     0
 total energy-change (2. order) :-0.5949170E-01  (-0.3292743E-01)
 number of electron     269.9999992 magnetization      17.0020129
 augmentation part       86.9236012 magnetization      11.8140441

 Free energy of the ion-electron system (eV)
  ---------------------------------------------------
  alpha Z        PSCENC =       798.38614055
  Ewald energy   TEWEN  =    -12901.57693327
  -Hartree energ DENC   =     -2492.26511673
  -exchange      EXHF   =         0.00000000
  -V(xc)+E(xc)   XCENC  =      -998.44334276
  PAW double counting   =     19486.50298058   -18237.08611578
  entropy T*S    EENTRO =        -0.03256508
  eigenvalues    EBANDS =      1289.99668683
  atomic energy  EATOM  =     12697.67401269
  ---------------------------------------------------
  free energy    TOTEN  =      -356.84461473 eV

  energy without entropy =     -356.81204965  energy(sigma->0) =     -356.83375970


--------------------------------------------------------------------------------------------------------




--------------------------------------- Iteration      1(  22)  ---------------------------------------


    POTLOK:  cpu time    0.3930: real time    0.3930
    SETDIJ:  cpu time    0.4626: real time    0.4626
    TRIAL :  cpu time   11.3968: real time   11.5139
    CORREC:  cpu time    4.0277: real time    4.1619
    CHARGE:  cpu time    1.2443: real time    1.2444
    --------------------------------------------
      LOOP:  cpu time   17.5547: real time   17.8073

 eigenvalue-minimisations  :     0
 total energy-change (2. order) :-0.3298782E-01  (-0.1155665E-01)
 number of electron     269.9999992 magnetization      17.0355721
 augmentation part       86.9830635 magnetization      11.8440593

 Free energy of the ion-electron system (eV)
  ---------------------------------------------------
  alpha Z        PSCENC =       798.38614055
  Ewald energy   TEWEN  =    -12901.57693327
  -Hartree energ DENC   =     -2500.19537398
  -exchange      EXHF   =         0.00000000
  -V(xc)+E(xc)   XCENC  =      -998.07639068
  PAW double counting   =     19503.92272094   -18256.14828578
  entropy T*S    EENTRO =        -0.03258060
  eigenvalues    EBANDS =      1299.16907206
  atomic energy  EATOM  =     12697.67401269
  ---------------------------------------------------
  free energy    TOTEN  =      -356.87760255 eV

  energy without entropy =     -356.84502195  energy(sigma->0) =     -356.86674235


--------------------------------------------------------------------------------------------------------




--------------------------------------- Iteration      1(  23)  ---------------------------------------


    POTLOK:  cpu time    0.3918: real time    0.3917
    SETDIJ:  cpu time    0.4758: real time    0.4760
    TRIAL :  cpu time   11.4460: real time   11.4947
    CORREC:  cpu time    4.7827: real time    4.7996
    CHARGE:  cpu time    1.2365: real time    1.2365
    --------------------------------------------
      LOOP:  cpu time   18.3448: real time   18.4108

 eigenvalue-minimisations  :     0
 total energy-change (2. order) :-0.1157101E-01  (-0.1437341E-01)
 number of electron     269.9999992 magnetization      17.1068249
 augmentation part       86.9921907 magnetization      11.8962648

 Free energy of the ion-electron system (eV)
  ---------------------------------------------------
  alpha Z        PSCENC =       798.38614055
  Ewald energy   TEWEN  =    -12901.57693327
  -Hartree energ DENC   =     -2503.78234043
  -exchange      EXHF   =         0.00000000
  -V(xc)+E(xc)   XCENC  =      -997.90533907
  PAW double counting   =     19510.31836313   -18263.30680434
  entropy T*S    EENTRO =        -0.03228833
  eigenvalues    EBANDS =      1303.33630778
  atomic energy  EATOM  =     12697.67401269
  ---------------------------------------------------
  free energy    TOTEN  =      -356.88917356 eV

  energy without entropy =     -356.85688523  energy(sigma->0) =     -356.87841079


--------------------------------------------------------------------------------------------------------




--------------------------------------- Iteration      1(  24)  ---------------------------------------


    POTLOK:  cpu time    0.4235: real time    0.4235
    SETDIJ:  cpu time    0.4491: real time    0.4493
    TRIAL :  cpu time   11.6376: real time   12.4497
    CORREC:  cpu time    4.0937: real time    4.0977
    CHARGE:  cpu time    1.2362: real time    1.2362
    --------------------------------------------
      LOOP:  cpu time   17.8512: real time   18.6687

 eigenvalue-minimisations  :     0
 total energy-change (2. order) :-0.1436483E-01  (-0.1422372E-01)
 number of electron     269.9999992 magnetization      17.1736300
 augmentation part       86.9419504 magnetization      11.9480416

 Free energy of the ion-electron system (eV)
  ---------------------------------------------------
  alpha Z        PSCENC =       798.38614055
  Ewald energy   TEWEN  =    -12901.57693327
  -Hartree energ DENC   =     -2504.34368243
  -exchange      EXHF   =         0.00000000
  -V(xc)+E(xc)   XCENC  =      -997.81123447
  PAW double counting   =     19508.27006065   -18261.36847111
  entropy T*S    EENTRO =        -0.03181535
  eigenvalues    EBANDS =      1303.89885732
  atomic energy  EATOM  =     12697.67401269
  ---------------------------------------------------
  free energy    TOTEN  =      -356.90353839 eV

  energy without entropy =     -356.87172304  energy(sigma->0) =     -356.89293327


--------------------------------------------------------------------------------------------------------




--------------------------------------- Iteration      1(  25)  ---------------------------------------


    POTLOK:  cpu time    0.3898: real time    0.3918
    SETDIJ:  cpu time    0.4754: real time    0.4753
    TRIAL :  cpu time   11.4182: real time   11.4948
    CORREC:  cpu time    4.0578: real time    4.1237
    CHARGE:  cpu time    1.2691: real time    1.2798
    --------------------------------------------
      LOOP:  cpu time   17.6384: real time   17.7949

 eigenvalue-minimisations  :     0
 total energy-change (2. order) :-0.1423385E-01  (-0.1096691E-01)
 number of electron     269.9999992 magnetization      17.2506437
 augmentation part       86.9272522 magnetization      12.0089369

 Free energy of the ion-electron system (eV)
  ---------------------------------------------------
  alpha Z        PSCENC =       798.38614055
  Ewald energy   TEWEN  =    -12901.57693327
[...]
   45        0.019   0.018   2.375   2.411
   46        0.014   0.015   2.351   2.380
   47       -0.016  -0.016  -2.294  -2.326
   48        0.017   0.021   2.372   2.410
   49        0.014   0.015   2.352   2.381
   50       -0.016  -0.016  -2.303  -2.335
   51        0.017   0.022   2.378   2.416
   52        0.025   0.027   2.386   2.438
   53       -0.014  -0.020  -2.288  -2.322
   54        0.019   0.017   2.393   2.429
--------------------------------------------------
tot         -0.016  -0.083  17.301  17.201
 
    FORLOC:  cpu time    0.0581: real time    0.0581
    FORNL :  cpu time   17.6670: real time   18.7633
    STRESS:  cpu time   26.5158: real time   27.7096
    FORCOR:  cpu time    0.4342: real time    0.4795
    OFIELD:  cpu time    0.0019: real time    0.0019

  FORCE on cell =-STRESS in cart. coord.  units (eV):
  Direction    XX          YY          ZZ          XY          YZ          ZX
  --------------------------------------------------------------------------------------
  Alpha Z   798.38614   798.38614   798.38614
  Ewald   -4053.61603 -4053.61603 -4794.40593    -0.00000    -0.00000    -0.00000
  Hartree  1084.81345  1084.81345   331.99324    -0.00000    -0.00000    -0.00000
  E(xc)   -1141.91395 -1141.91395 -1139.81648    -0.00000     0.00000     0.00000
  Local     367.85529   367.85529  1907.22302     0.00000     0.00000     0.00000
  n-local  -172.15033  -169.65777  -175.49514     0.27429    -0.16710    -0.28674
  augment   785.11628   785.11628   766.94352     0.00000     0.00001     0.00001
  Kinetic  2328.49796  2344.02258  2307.41863    -2.39364    -1.69025    -1.74413
  Fock        0.00000     0.00000     0.00000     0.00000     0.00000     0.00000
  -------------------------------------------------------------------------------------
  Total       5.99740     5.99740     2.24699     0.00000     0.00000     0.00000
  in kB      13.53536    13.53536     5.07117     0.00000     0.00000     0.00000
  external pressure =       10.71 kB  Pullay stress =        0.00 kB


 VOLUME and BASIS-vectors are now :
 -----------------------------------------------------------------------------
  energy-cutoff  :      404.80
  volume of cell :      709.91
      direct lattice vectors                 reciprocal lattice vectors
     8.250148166  0.000000000  0.000000000     0.121209944  0.000000000  0.000000000
     0.000000000  8.250148166  0.000000000     0.000000000  0.121209944  0.000000000
     0.000000000  0.000000000 10.429911392     0.000000000  0.000000000  0.095878092

  length of vectors
     8.250148166  8.250148166 10.429911392     0.121209944  0.121209944  0.095878092


 FORCES acting on ions:
    Electron-Ion                     Ewald-Force                    Non-Local-Force
 -----------------------------------------------------------------------------------------------
   -.462E-02 0.462E-02 -.252E-01   -.239E-08 -.239E-08 -.210E-08   -.180E-01 0.180E-01 -.197E-01
   -.106E+00 0.106E+00 0.124E+00   -.239E-08 -.239E-08 0.171E-08   0.879E-01 -.879E-01 -.422E-01
   -.564E-02 0.564E-02 -.403E-01   -.239E-08 -.239E-08 0.861E-08   0.971E-02 -.971E-02 0.176E-01
   0.285E-01 0.373E-09 0.169E-01   -.239E-08 -.802E-09 -.210E-08   -.105E-02 0.000E+00 0.127E-01
   0.162E-01 0.373E-09 0.728E-01   -.239E-08 -.802E-09 0.171E-08   -.736E-02 0.000E+00 -.380E-01
   -.954E-02 0.373E-09 -.142E+00   -.239E-08 -.802E-09 0.861E-08   0.441E-02 0.352E-19 0.602E-01
   -.462E-02 -.462E-02 -.252E-01   -.239E-08 0.631E-08 -.210E-08   -.180E-01 -.180E-01 -.197E-01
   -.106E+00 -.106E+00 0.124E+00   -.239E-08 0.631E-08 0.171E-08   0.879E-01 0.879E-01 -.422E-01
   -.564E-02 -.564E-02 -.403E-01   -.239E-08 0.631E-08 0.861E-08   0.971E-02 0.971E-02 0.176E-01
   0.462E-02 0.462E-02 -.252E-01   -.802E-09 -.239E-08 -.210E-08   0.180E-01 0.180E-01 -.197E-01
   0.106E+00 0.106E+00 0.124E+00   -.802E-09 -.239E-08 0.171E-08   -.879E-01 -.879E-01 -.422E-01
   0.564E-02 0.564E-02 -.403E-01   -.803E-09 -.239E-08 0.861E-08   -.971E-02 -.971E-02 0.176E-01
   -.285E-01 0.373E-09 0.169E-01   -.802E-09 -.802E-09 -.210E-08   0.105E-02 0.000E+00 0.127E-01
   -.162E-01 0.373E-09 0.728E-01   -.802E-09 -.802E-09 0.171E-08   0.736E-02 0.271E-19 -.380E-01
   0.954E-02 0.373E-09 -.142E+00   -.803E-09 -.802E-09 0.861E-08   -.441E-02 -.108E-18 0.602E-01
   0.462E-02 -.462E-02 -.252E-01   -.802E-09 0.631E-08 -.210E-08   0.180E-01 -.180E-01 -.197E-01
   0.106E+00 -.106E+00 0.124E+00   -.802E-09 0.631E-08 0.171E-08   -.879E-01 0.879E-01 -.422E-01
   0.564E-02 -.564E-02 -.403E-01   -.803E-09 0.631E-08 0.861E-08   -.971E-02 0.971E-02 0.176E-01
   -.328E-08 -.285E-01 0.169E-01   0.631E-08 -.239E-08 -.210E-08   0.271E-19 0.105E-02 0.127E-01
   -.329E-08 -.162E-01 0.728E-01   0.631E-08 -.239E-08 0.171E-08   -.434E-18 0.736E-02 -.380E-01
   -.329E-08 0.954E-02 -.142E+00   0.631E-08 -.239E-08 0.861E-08   0.000E+00 -.441E-02 0.602E-01
   -.329E-08 0.373E-09 -.156E-01   0.631E-08 -.802E-09 -.210E-08   0.237E-19 0.000E+00 0.394E-01
   -.329E-08 0.373E-09 0.111E+00   0.631E-08 -.802E-09 0.171E-08   0.136E-19 0.000E+00 -.835E-01
   -.329E-08 0.373E-09 -.950E-01   0.631E-08 -.802E-09 0.861E-08   0.678E-20 0.000E+00 0.628E-01
   -.328E-08 0.285E-01 0.169E-01   0.631E-08 0.631E-08 -.210E-08   -.339E-19 -.105E-02 0.127E-01
   -.329E-08 0.162E-01 0.728E-01   0.631E-08 0.631E-08 0.171E-08   0.217E-18 -.736E-02 -.380E-01
   -.329E-08 -.954E-02 -.142E+00   0.631E-08 0.631E-08 0.861E-08   0.000E+00 0.441E-02 0.602E-01
   0.488E-08 0.309E+00 -.564E-01   -.169E-07 -.169E-07 -.180E-07   0.325E-18 -.157E+00 0.695E-01
   0.486E-08 0.531E-01 0.144E+00   -.169E-07 -.169E-07 -.170E-08   -.217E-18 -.112E-01 -.140E+00
   0.483E-08 -.599E-01 0.479E-01   -.169E-07 -.169E-07 0.115E-07   -.108E-18 0.789E-02 -.116E+00
   0.488E-08 -.309E+00 -.564E-01   -.169E-07 0.802E-09 -.180E-07   0.000E+00 0.157E+00 0.695E-01
   0.486E-08 -.531E-01 0.144E+00   -.169E-07 0.802E-09 -.170E-08   -.108E-18 0.112E-01 -.140E+00
   0.483E-08 0.599E-01 0.479E-01   -.169E-07 0.802E-09 0.115E-07   0.217E-18 -.789E-02 -.116E+00
   0.476E-08 -.605E-08 0.281E+00   -.169E-07 0.130E-07 -.180E-07   0.000E+00 0.867E-18 -.247E+00
   0.482E-08 -.605E-08 -.266E+00   -.169E-07 0.130E-07 -.170E-08   0.813E-19 0.000E+00 0.411E+00
   0.486E-08 -.605E-08 -.259E+00   -.169E-07 0.130E-07 0.115E-07   0.000E+00 0.000E+00 0.256E+00
   -.110E+00 -.110E+00 0.418E-01   0.802E-09 -.169E-07 -.180E-07   0.118E+00 0.118E+00 0.263E-01
   -.175E-01 -.175E-01 -.131E-01   0.802E-09 -.169E-07 -.170E-08   -.437E-02 -.437E-02 0.306E-02
   -.296E-01 -.296E-01 -.566E-01   0.802E-09 -.169E-07 0.115E-07   0.608E-01 0.608E-01 0.205E-03
   -.110E+00 0.110E+00 0.418E-01   0.802E-09 0.802E-09 -.180E-07   0.118E+00 -.118E+00 0.263E-01
   -.175E-01 0.175E-01 -.131E-01   0.802E-09 0.802E-09 -.170E-08   -.437E-02 0.437E-02 0.306E-02
   -.296E-01 0.296E-01 -.566E-01   0.802E-09 0.802E-09 0.115E-07   0.608E-01 -.608E-01 0.205E-03
   0.309E+00 -.605E-08 -.564E-01   0.802E-09 0.130E-07 -.180E-07   -.157E+00 -.434E-18 0.695E-01
   0.531E-01 -.605E-08 0.144E+00   0.802E-09 0.130E-07 -.170E-08   -.112E-01 0.217E-18 -.140E+00
   -.599E-01 -.605E-08 0.479E-01   0.802E-09 0.130E-07 0.115E-07   0.789E-02 0.000E+00 -.116E+00
   0.110E+00 -.110E+00 0.418E-01   0.130E-07 -.169E-07 -.180E-07   -.118E+00 0.118E+00 0.263E-01
   0.175E-01 -.175E-01 -.131E-01   0.130E-07 -.169E-07 -.170E-08   0.437E-02 -.437E-02 0.306E-02
   0.296E-01 -.296E-01 -.566E-01   0.130E-07 -.169E-07 0.115E-07   -.608E-01 0.608E-01 0.205E-03
   0.110E+00 0.110E+00 0.418E-01   0.130E-07 0.802E-09 -.180E-07   -.118E+00 -.118E+00 0.263E-01
   0.175E-01 0.175E-01 -.131E-01   0.130E-07 0.802E-09 -.170E-08   0.437E-02 0.437E-02 0.306E-02
   0.296E-01 0.296E-01 -.566E-01   0.130E-07 0.802E-09 0.115E-07   -.608E-01 -.608E-01 0.205E-03
   -.309E+00 -.605E-08 -.564E-01   0.130E-07 0.130E-07 -.180E-07   0.157E+00 0.000E+00 0.695E-01
   -.531E-01 -.605E-08 0.144E+00   0.130E-07 0.130E-07 -.170E-08   0.112E-01 0.434E-18 -.140E+00
   0.599E-01 -.605E-08 0.479E-01   0.130E-07 0.130E-07 0.115E-07   -.789E-02 0.000E+00 -.116E+00
 -----------------------------------------------------------------------------------------------
   -.404E-07 -.361E-07 0.226E+00   -.614E-13 -.142E-13 0.128E-13   -.538E-16 0.837E-16 -.226E+00
 
 
 POSITION                                       TOTAL-FORCE (eV/Angst)
 -----------------------------------------------------------------------------------
      0.00000      0.00000      0.00000        -0.020540      0.020540     -0.041959
      0.00000      0.00000      3.47664        -0.025611      0.025611      0.084447
      0.00000      0.00000      6.95327         0.003273     -0.003273     -0.024005
      0.00000      2.75005      0.00000         0.028032     -0.000000      0.028939
      0.00000      2.75005      3.47664         0.009901     -0.000000      0.037854
      0.00000      2.75005      6.95327        -0.005449     -0.000000     -0.087775
      0.00000      5.50010      0.00000        -0.020540     -0.020540     -0.041959
      0.00000      5.50010      3.47664        -0.025611     -0.025611      0.084447
      0.00000      5.50010      6.95327         0.003273      0.003273     -0.024005
      2.75005      0.00000      0.00000         0.020540      0.020540     -0.041959
      2.75005      0.00000      3.47664         0.025611      0.025611      0.084447
      2.75005      0.00000      6.95327        -0.003273     -0.003273     -0.024005
      2.75005      2.75005      0.00000        -0.028032     -0.000000      0.028939
      2.75005      2.75005      3.47664        -0.009901     -0.000000      0.037854
      2.75005      2.75005      6.95327         0.005449     -0.000000     -0.087775
      2.75005      5.50010      0.00000         0.020540     -0.020540     -0.041959
      2.75005      5.50010      3.47664         0.025611     -0.025611      0.084447
      2.75005      5.50010      6.95327        -0.003273      0.003273     -0.024005
      5.50010      0.00000      0.00000         0.000000     -0.028032      0.028939
      5.50010      0.00000      3.47664         0.000000     -0.009901      0.037854
      5.50010      0.00000      6.95327         0.000000      0.005449     -0.087775
      5.50010      2.75005      0.00000         0.000000     -0.000000      0.020473
      5.50010      2.75005      3.47664         0.000000     -0.000000      0.035372
      5.50010      2.75005      6.95327         0.000000     -0.000000     -0.037514
      5.50010      5.50010      0.00000         0.000000      0.028032      0.028939
      5.50010      5.50010      3.47664         0.000000      0.009901      0.037854
      5.50010      5.50010      6.95327         0.000000     -0.005449     -0.087775
      1.37502      1.37502      1.73832         0.000000      0.156053      0.007805
      1.37502      1.37502      5.21496         0.000000      0.040963      0.006720
      1.37502      1.37502      8.69159         0.000000     -0.049953     -0.059195
      1.37502      4.12507      1.73832         0.000000     -0.156053      0.007805
      1.37502      4.12507      5.21496         0.000000     -0.040963      0.006720
      1.37502      4.12507      8.69159         0.000000      0.049953     -0.059195
      1.37502      6.87512      1.73832         0.000000     -0.000000      0.040352
      1.37502      6.87512      5.21496         0.000000     -0.000000      0.137033
      1.37502      6.87512      8.69159         0.000000     -0.000000     -0.007006
      4.12507      1.37502      1.73832         0.005686      0.005686      0.060425
      4.12507      1.37502      5.21496        -0.022053     -0.022053     -0.011569
      4.12507      1.37502      8.69159         0.030620      0.030620     -0.048866
      4.12507      4.12507      1.73832         0.005686     -0.005686      0.060425
      4.12507      4.12507      5.21496        -0.022053      0.022053     -0.011569
      4.12507      4.12507      8.69159         0.030620     -0.030620     -0.048866
      4.12507      6.87512      1.73832         0.156053     -0.000000      0.007805
      4.12507      6.87512      5.21496         0.040963     -0.000000      0.006720
      4.12507      6.87512      8.69159        -0.049953     -0.000000     -0.059195
      6.87512      1.37502      1.73832        -0.005686      0.005686      0.060425
      6.87512      1.37502      5.21496         0.022053     -0.022053     -0.011569
      6.87512      1.37502      8.69159        -0.030620      0.030620     -0.048866
      6.87512      4.12507      1.73832        -0.005686     -0.005686      0.060425
      6.87512      4.12507      5.21496         0.022053      0.022053     -0.011569
      6.87512      4.12507      8.69159        -0.030620     -0.030620     -0.048866
      6.87512      6.87512      1.73832        -0.156053     -0.000000      0.007805
      6.87512      6.87512      5.21496        -0.040963     -0.000000      0.006720
      6.87512      6.87512      8.69159         0.049953     -0.000000     -0.059195
 -----------------------------------------------------------------------------------
    total drift:                               -0.000000     -0.000000      0.000009


--------------------------------------------------------------------------------------------------------



  FREE ENERGIE OF THE ION-ELECTRON SYSTEM (eV)
  ---------------------------------------------------
  free  energy   TOTEN  =      -356.94601760 eV

  energy  without entropy=     -356.91497804  energy(sigma->0) =     -356.93567108
 


--------------------------------------------------------------------------------------------------------


    POTLOK:  cpu time    0.8466: real time    0.8467


--------------------------------------------------------------------------------------------------------


     LOOP+:  cpu time 1419.8159: real time 1451.5752
    4ORBIT:  cpu time    0.0000: real time    0.0000
 


 total charge     
 
# of ion       s       p       d       tot
------------------------------------------
    1        0.404   0.430   0.000   0.834
    2        0.405   0.428   0.000   0.834
    3        0.405   0.427   0.000   0.832
    4        0.404   0.429   0.000   0.833
    5        0.405   0.427   0.000   0.832
    6        0.405   0.427   0.000   0.832
    7        0.404   0.430   0.000   0.834
    8        0.405   0.429   0.000   0.834
    9        0.405   0.427   0.000   0.832
   10        0.404   0.429   0.000   0.834
   11        0.406   0.428   0.000   0.834
   12        0.405   0.427   0.000   0.832
   13        0.404   0.429   0.000   0.833
   14        0.405   0.427   0.000   0.832
   15        0.405   0.427   0.000   0.832
   16        0.404   0.430   0.000   0.834
   17        0.406   0.428   0.000   0.834
   18        0.405   0.427   0.000   0.832
   19        0.404   0.429   0.000   0.833
   20        0.405   0.426   0.000   0.832
   21        0.405   0.427   0.000   0.833
   22        0.404   0.429   0.000   0.833
   23        0.405   0.427   0.000   0.832
   24        0.405   0.428   0.000   0.833
   25        0.404   0.429   0.000   0.833
   26        0.405   0.426   0.000   0.832
   27        0.405   0.427   0.000   0.833
   28        0.333   0.358   5.099   5.790
   29        0.334   0.352   5.135   5.820
   30        0.333   0.350   5.138   5.821
   31        0.333   0.358   5.098   5.789
   32        0.334   0.352   5.127   5.813
   33        0.333   0.351   5.132   5.816
   34        0.333   0.352   5.139   5.825
   35        0.335   0.348   5.138   5.821
   36        0.331   0.353   5.136   5.820
   37        0.332   0.352   5.141   5.825
   38        0.335   0.350   5.139   5.824
   39        0.333   0.351   5.139   5.823
   40        0.332   0.352   5.133   5.817
   41        0.335   0.350   5.138   5.823
   42        0.333   0.352   5.133   5.818
   43        0.334   0.354   5.154   5.842
   44        0.334   0.352   5.142   5.829
   45        0.333   0.350   5.147   5.829
   46        0.332   0.352   5.135   5.819
   47        0.334   0.351   5.135   5.820
   48        0.334   0.352   5.137   5.822
   49        0.332   0.352   5.141   5.825
   50        0.335   0.350   5.132   5.816
   51        0.333   0.351   5.133   5.818
   52        0.334   0.354   5.156   5.844
   53        0.334   0.353   5.129   5.816
   54        0.333   0.350   5.133   5.816
--------------------------------------------------
tot         19.933  21.056 138.640 179.628
 


 magnetization (x)
 
# of ion       s       p       d       tot
------------------------------------------
    1       -0.017  -0.030   0.000  -0.047
    2        0.004   0.009   0.000   0.014
    3       -0.000   0.002   0.000   0.002
    4       -0.021  -0.036   0.000  -0.057
    5        0.001   0.003   0.000   0.004
    6        0.000  -0.000   0.000  -0.000
    7       -0.017  -0.029   0.000  -0.046
    8        0.004   0.009   0.000   0.013
    9        0.000   0.001   0.000   0.001
   10       -0.017  -0.030   0.000  -0.047
   11        0.004   0.010   0.000   0.014
   12       -0.000   0.001   0.000   0.001
   13       -0.021  -0.036   0.000  -0.057
   14        0.001   0.003   0.000   0.004
   15       -0.000  -0.000   0.000  -0.000
   16       -0.017  -0.030   0.000  -0.047
   17        0.004   0.009   0.000   0.014
   18       -0.000   0.002   0.000   0.002
   19       -0.022  -0.037   0.000  -0.059
   20        0.001   0.002   0.000   0.002
   21       -0.000  -0.000   0.000  -0.000
   22       -0.023  -0.039   0.000  -0.061
   23       -0.000   0.001   0.000   0.001
   24       -0.000   0.002   0.000   0.002
   25       -0.022  -0.037   0.000  -0.058
   26        0.001   0.002   0.000   0.003
   27        0.000  -0.001   0.000  -0.001
   28        0.024   0.027   2.414   2.465
   29       -0.013  -0.019  -2.270  -2.303
   30        0.019   0.018   2.377   2.414
   31        0.024   0.027   2.413   2.464
   32       -0.014  -0.019  -2.284  -2.317
   33        0.020   0.018   2.387   2.425
   34       -0.029  -0.024  -2.252  -2.306
   35       -0.020  -0.014  -2.386  -2.420
   36        0.012   0.022   2.202   2.236
   37        0.014   0.015   2.352   2.381
   38       -0.016  -0.016  -2.294  -2.325
   39        0.017   0.021   2.369   2.407
   40        0.014   0.014   2.353   2.381
   41       -0.016  -0.016  -2.295  -2.326
   42        0.017   0.021   2.375   2.413
   43        0.025   0.026   2.388   2.440
   44       -0.014  -0.020  -2.270  -2.304
   45        0.019   0.018   2.375   2.411
   46        0.014   0.015   2.351   2.380
   47       -0.016  -0.016  -2.294  -2.326
   48        0.017   0.021   2.372   2.410
   49        0.014   0.015   2.352   2.381
   50       -0.016  -0.016  -2.303  -2.335
   51        0.017   0.022   2.378   2.416
   52        0.025   0.027   2.386   2.438
   53       -0.014  -0.020  -2.288  -2.322
   54        0.019   0.017   2.393   2.429
--------------------------------------------------
tot         -0.016  -0.083  17.301  17.201
 

 total amount of memory used by VASP MPI-rank0   626513. kBytes
=======================================================================

   base      :      30000. kBytes
   nonl-proj :      19946. kBytes
   fftplans  :      31580. kBytes
   grid      :      21385. kBytes
   one-center:        435. kBytes
   wavefun   :     523167. kBytes
 
  
  
 General timing and accounting informations for this job:
 ========================================================
  
                  Total CPU time used (sec):     1443.155
                            User time (sec):     1421.519
                          System time (sec):       21.636
                         Elapsed time (sec):     1478.218
  
                   Maximum memory used (kb):      785744.
                   Average memory used (kb):           0.
  
                          Minor page faults:       511464
                          Major page faults:           16
                 Voluntary context switches:         2924
