   36   36    1    2
  0.1314651E+02  0.8250148E-09  0.8250148E-09  0.6953274E-09  0.2000000E-15
  1.000000000000000E-004
  CAR 
 AlMn_pv                                 
    180     52    122
 
  0.0000000E+00  0.0000000E+00  0.0000000E+00  0.6666667E-02
    1       -2.540010     -2.501174   1.000000   1.000000
    2       -0.369063     -0.363162   1.000000   1.000000
    3       -0.367055     -0.327313   1.000000   1.000000
    4       -0.353736     -0.286979   1.000000   1.000000
    5       -0.345450     -0.285561   1.000000   1.000000
    6       -0.114314     -0.132761   1.000000   1.000000
    7        1.319654      1.397795   1.000000   1.000000
    8        1.322498      1.399402   1.000000   1.000000
    9        1.336534      1.448180   1.000000   1.000000
   10        1.388190      1.454153   1.000000   1.000000
   11        1.393578      1.463690   1.000000   1.000000
   12        1.517536      1.587544   1.000000   1.000000
   13        1.535039      1.620117   1.000000   1.000000
   14        1.566507      1.645674   1.000000   1.000000
   15        1.588046      1.673719   1.000000   1.000000
   16        2.652525      2.802223   1.000000   1.000000
   17        2.689788      2.837078   1.000000   1.000000
   18        2.724017      2.896637   1.000000   1.000000
   19        2.753336      2.943924   1.000000   1.000000
   20        3.435626      3.529781   1.000000   1.000000
   21        3.438612      3.600470   1.000000   1.000000
   22        3.503918      3.690001   1.000000   1.000000
   23        3.531303      3.700349   1.000000   1.000000
   24        4.025723      4.153998   1.000000   1.000000
   25        4.041690      4.424859   1.000000   1.000000
   26        4.149288      4.586199   1.000000   1.000000
   27        4.362584      4.598020   1.000000   1.000000
   28        4.456399      4.676937   1.000000   1.000000
   29        4.478069      4.737375   1.000000   1.000000
   30        4.509956      4.765066   1.000000   1.000000
   31        4.531505      4.795272   1.000000   1.000000
   32        4.563858      4.898945   1.000000   1.000000
   33        4.566482      4.938080   1.000000   1.000000
   34        4.622364      4.954457   1.000000   1.000000
   35        4.655861      5.094913   1.000000   1.000000
   36        4.715429      5.105726   1.000000   1.000000
   37        4.745245      5.180856   1.000000   1.000000
   38        4.782583      5.186072   1.000000   1.000000
   39        4.790528      5.272120   1.000000   1.000000
   40        4.927830      5.386396   1.000000   1.000000
   41        5.151592      5.530377   1.000000   1.000000
   42        5.180154      5.540191   1.000000   1.000000
   43        5.249758      5.578504   1.000000   1.000000
   44        5.270773      5.603848   1.000000   1.000000
   45        5.273530      5.611418   1.000000   1.000000
   46        5.307655      5.661039   1.000000   1.000000
   47        5.326498      5.705783   1.000000   1.000000
   48        5.363290      5.767627   1.000000   1.000000
   49        5.402398      5.850384   1.000000   1.000000
   50        5.415224      5.864341   1.000000   1.000000
   51        5.437013      5.995437   1.000000   1.000000
   52        5.473211      6.207084   1.000000   1.000000
   53        5.478022      6.240260   1.000000   1.000000
   54        5.611353      6.350035   1.000000   1.000000
   55        5.661837      6.382974   1.000000   1.000000
   56        5.706514      6.464098   1.000000   1.000000
   57        5.725853      6.473103   1.000000   1.000000
   58        5.768466      6.481584   1.000000   1.000000
   59        5.789461      6.519197   1.000000   1.000000
   60        5.886643      6.538164   1.000000   1.000000
   61        5.888864      6.550798   1.000000   1.000000
   62        5.924456      6.585418   1.000000   1.000000
   63        5.989849      6.604413   1.000000   1.000000
   64        6.054072      6.672068   1.000000   1.000000
   65        6.221322      6.693301   1.000000   1.000000
   66        6.336534      6.754274   1.000000   1.000000
   67        6.351653      6.796355   1.000000   1.000000
   68        6.369238      6.841942   1.000000   1.000000
   69        6.387272      6.867467   1.000000   1.000000
   70        6.390090      6.959910   1.000000   1.000001
   71        6.418865      7.080386   1.000000   1.000032
   72        6.433944      7.156016   1.000000   1.000267
   73        6.452204      7.210908   1.000000   1.001012
   74        6.479992      7.270875   1.000000   1.003546
   75        6.536967      7.332922   1.000000   1.010267
   76        6.548244      7.370870   1.000000   1.017252
   77        6.606559      7.500488   1.000000   1.031674
   78        6.631910      7.515039   1.000000   1.026085
   79        6.658612      7.608053   1.000000   0.893438
   80        6.671215      7.616257   1.000000   0.871801
   81        6.694315      7.736615   1.000000   0.416981
   82        6.717034      7.814513   1.000000   0.136683
   83        6.755840      7.908774   1.000000  -0.020398
   84        6.775585      7.938842   1.000000  -0.033083
   85        6.799006      8.118713   1.000000  -0.007758
   86        6.872147      8.172437   1.000000  -0.002946
   87        6.876399      8.195677   1.000000  -0.001836
   88        6.930704      8.207515   1.000000  -0.001425
   89        7.018185      8.269935   1.000005  -0.000327
   90        7.049100      8.328475   1.000012  -0.000067
   91        7.113895      8.423897   1.000086  -0.000003
   92        7.186571      8.468792   1.000573  -0.000001
   93        7.261737      8.526076   1.002971  -0.000000
   94        7.337724      8.590729   1.011025  -0.000000
   95        7.358005      8.632559   1.014636  -0.000000
   96        7.383699      8.673177   1.020044  -0.000000
   97        7.418451      8.702194   1.027986  -0.000000
   98        7.455845      8.829803   1.034565  -0.000000
   99        7.534333      8.837826   1.013572  -0.000000
  100        7.600320      8.848190   0.912199  -0.000000
  101        7.855750      8.864292   0.042129  -0.000000
  102        7.901328      8.887165  -0.015022  -0.000000
  103        7.956752      8.898936  -0.035354  -0.000000
  104        8.100258      8.915148  -0.010366  -0.000000
  105        8.122591      8.953519  -0.007284  -0.000000
  106        8.150298      8.969072  -0.004496  -0.000000
  107        8.363568      8.978607  -0.000024  -0.000000
  108        8.407030      8.988298  -0.000006  -0.000000
  109        8.450745      9.016984  -0.000001  -0.000000
  110        8.534515      9.059619  -0.000000  -0.000000
  111        8.588566      9.086597  -0.000000  -0.000000
  112        8.617042      9.092205  -0.000000  -0.000000
  113        8.724830      9.105198  -0.000000  -0.000000
  114        8.813047      9.122162  -0.000000  -0.000000
  115        8.813896      9.166647  -0.000000  -0.000000
  116        9.047684      9.189337  -0.000000  -0.000000
  117        9.086957      9.404234  -0.000000  -0.000000
  118        9.236624      9.630409  -0.000000  -0.000000
  119        9.245484      9.789738  -0.000000  -0.000000
  120        9.262916      9.856118  -0.000000  -0.000000
  121        9.380817     10.019489  -0.000000  -0.000000
  122        9.584395     10.109093  -0.000000  -0.000000
 
  0.2000000E+00  0.0000000E+00  0.0000000E+00  0.1333333E-01
    1       -2.449443     -2.410724   1.000000   1.000000
    2       -1.123751     -1.084047   1.000000   1.000000
    3       -0.285281     -0.252245   1.000000   1.000000
    4       -0.267415     -0.213370   1.000000   1.000000
    5       -0.049714     -0.065704   1.000000   1.000000
    6        0.541814      0.591505   1.000000   1.000000
    7        0.867093      0.897567   1.000000   1.000000
    8        0.899516      0.953202   1.000000   1.000000
    9        0.907945      0.975954   1.000000   1.000000
   10        1.396961      1.462004   1.000000   1.000000
   11        1.418231      1.511739   1.000000   1.000000
   12        1.447089      1.558342   1.000000   1.000000
   13        1.861525      1.989788   1.000000   1.000000
   14        2.243881      2.363772   1.000000   1.000000
   15        2.255008      2.382549   1.000000   1.000000
   16        2.276075      2.393464   1.000000   1.000000
   17        2.287174      2.402134   1.000000   1.000000
   18        2.760834      2.902432   1.000000   1.000000
   19        3.123249      3.337493   1.000000   1.000000
   20        3.163157      3.406344   1.000000   1.000000
   21        3.517851      3.653439   1.000000   1.000000
   22        3.568490      3.736517   1.000000   1.000000
   23        3.686080      3.801159   1.000000   1.000000
   24        4.000704      4.137403   1.000000   1.000000
   25        4.017583      4.352518   1.000000   1.000000
   26        4.117847      4.410243   1.000000   1.000000
   27        4.225857      4.555722   1.000000   1.000000
   28        4.310723      4.621359   1.000000   1.000000
   29        4.392510      4.700508   1.000000   1.000000
   30        4.423942      4.774351   1.000000   1.000000
   31        4.465400      4.804634   1.000000   1.000000
   32        4.473049      4.808790   1.000000   1.000000
   33        4.523156      4.848914   1.000000   1.000000
   34        4.564659      4.916921   1.000000   1.000000
   35        4.697967      5.016048   1.000000   1.000000
   36        4.814498      5.020998   1.000000   1.000000
   37        4.822611      5.211485   1.000000   1.000000
   38        4.869687      5.236728   1.000000   1.000000
   39        4.874287      5.293665   1.000000   1.000000
   40        4.930631      5.299439   1.000000   1.000000
   41        5.003121      5.406107   1.000000   1.000000
   42        5.145994      5.476760   1.000000   1.000000
   43        5.148231      5.533436   1.000000   1.000000
   44        5.235446      5.552628   1.000000   1.000000
   45        5.277642      5.614982   1.000000   1.000000
   46        5.301073      5.686729   1.000000   1.000000
   47        5.339531      5.723310   1.000000   1.000000
   48        5.355692      5.747980   1.000000   1.000000
   49        5.427865      5.855069   1.000000   1.000000
   50        5.448492      5.997525   1.000000   1.000000
   51        5.464846      6.017274   1.000000   1.000000
   52        5.507484      6.247579   1.000000   1.000000
   53        5.614990      6.263436   1.000000   1.000000
   54        5.617968      6.328262   1.000000   1.000000
   55        5.671921      6.390079   1.000000   1.000000
   56        5.721528      6.419353   1.000000   1.000000
   57        5.749100      6.445281   1.000000   1.000000
   58        5.758116      6.480662   1.000000   1.000000
   59        5.817373      6.519249   1.000000   1.000000
   60        5.848983      6.529341   1.000000   1.000000
   61        5.902555      6.530159   1.000000   1.000000
   62        5.947532      6.649494   1.000000   1.000000
   63        6.072802      6.654152   1.000000   1.000000
   64        6.075839      6.666768   1.000000   1.000000
   65        6.184796      6.712758   1.000000   1.000000
   66        6.265929      6.733360   1.000000   1.000000
   67        6.304711      6.767937   1.000000   1.000000
   68        6.322757      6.832073   1.000000   1.000000
   69        6.377865      6.916319   1.000000   1.000000
   70        6.384549      7.020287   1.000000   1.000005
   71        6.399709      7.126212   1.000000   1.000121
   72        6.429545      7.138359   1.000000   1.000168
   73        6.463971      7.222682   1.000000   1.001317
   74        6.511112      7.286699   1.000000   1.004763
   75        6.526586      7.312834   1.000000   1.007482
   76        6.551850      7.402245   1.000000   1.024310
   77        6.559671      7.469708   1.000000   1.035439
   78        6.604301      7.568545   1.000000   0.973635
   79        6.635421      7.610786   1.000000   0.886414
   80        6.641726      7.632133   1.000000   0.825440
   81        6.669062      7.681470   1.000000   0.647262
   82        6.670949      7.753375   1.000000   0.348444
   83        6.709251      7.818142   1.000000   0.126625
   84        6.767836      7.934624   1.000000  -0.032043
   85        6.783174      8.041606   1.000000  -0.021982
   86        6.854772      8.070908   1.000000  -0.015603
   87        6.876833      8.202874   1.000000  -0.001574
   88        6.915541      8.214540   1.000000  -0.001220
   89        6.921555      8.267281   1.000000  -0.000349
   90        6.932653      8.279754   1.000000  -0.000254
   91        6.982413      8.383768   1.000001  -0.000013
   92        7.027725      8.392870   1.000006  -0.000010
   93        7.210005      8.517984   1.000991  -0.000000
   94        7.238877      8.599219   1.001866  -0.000000
   95        7.385732      8.643577   1.020506  -0.000000
   96        7.386012      8.676354   1.020569  -0.000000
   97        7.513852      8.740108   1.026643  -0.000000
   98        7.575642      8.742445   0.962091  -0.000000
   99        7.664452      8.790254   0.713723  -0.000000
  100        7.736319      8.838288   0.418355  -0.000000
  101        7.875901      8.860506   0.011269  -0.000000
  102        7.909524      8.888234  -0.020858  -0.000000
  103        8.049671      8.912507  -0.020155  -0.000000
  104        8.091679      8.967945  -0.011756  -0.000000
  105        8.159600      9.003874  -0.003780  -0.000000
  106        8.250599      9.016942  -0.000528  -0.000000
  107        8.262411      9.084686  -0.000395  -0.000000
  108        8.378653      9.087481  -0.000015  -0.000000
  109        8.417015      9.099776  -0.000004  -0.000000
  110        8.539329      9.123901  -0.000000  -0.000000
  111        8.690533      9.138269  -0.000000  -0.000000
  112        8.713492      9.152338  -0.000000  -0.000000
  113        8.771244      9.164555  -0.000000  -0.000000
  114        8.930114      9.207067  -0.000000  -0.000000
  115        9.046690      9.233287  -0.000000  -0.000000
  116        9.097371      9.402253  -0.000000  -0.000000
  117        9.112528      9.430702  -0.000000  -0.000000
  118        9.134684      9.590622  -0.000000  -0.000000
  119        9.227942      9.751959  -0.000000  -0.000000
  120        9.257879      9.856175  -0.000000  -0.000000
  121        9.461345     10.053700  -0.000000  -0.000000
  122        9.522432     10.130586  -0.000000  -0.000000
 
  0.4000000E+00  0.0000000E+00  0.0000000E+00  0.1333333E-01
    1       -2.179437     -2.141317   1.000000   1.000000
    2       -1.734515     -1.694743   1.000000   1.000000
    3       -0.039786     -0.005809   1.000000   1.000000
    4       -0.023835      0.031481   1.000000   1.000000
    5        0.141394      0.133367   1.000000   1.000000
    6        0.360338      0.404398   1.000000   1.000000
    7        0.374519      0.434310   1.000000   1.000000
    8        0.453395      0.459176   1.000000   1.000000
    9        1.546819      1.613286   1.000000   1.000000
   10        1.577295      1.647872   1.000000   1.000000
   11        1.622721      1.698824   1.000000   1.000000
   12        1.697784      1.834246   1.000000   1.000000
   13        1.872498      1.973738   1.000000   1.000000
   14        1.917602      2.002294   1.000000   1.000000
   15        2.158755      2.303071   1.000000   1.000000
   16        2.237049      2.444136   1.000000   1.000000
   17        2.648236      2.715244   1.000000   1.000000
   18        2.843340      3.019614   1.000000   1.000000
   19        2.934326      3.140435   1.000000   1.000000
   20        3.424643      3.707313   1.000000   1.000000
   21        3.551050      3.844465   1.000000   1.000000
   22        3.695885      3.882181   1.000000   1.000000
   23        3.724039      3.892652   1.000000   1.000000
   24        3.902198      4.076542   1.000000   1.000000
   25        3.924666      4.150714   1.000000   1.000000
   26        4.008460      4.269544   1.000000   1.000000
   27        4.075170      4.307611   1.000000   1.000000
   28        4.103004      4.478462   1.000000   1.000000
   29        4.190764      4.528177   1.000000   1.000000
   30        4.304180      4.562142   1.000000   1.000000
   31        4.314020      4.650675   1.000000   1.000000
   32        4.524810      4.710187   1.000000   1.000000
   33        4.575936      4.790689   1.000000   1.000000
   34        4.620231      4.943002   1.000000   1.000000
   35        4.733127      5.011739   1.000000   1.000000
   36        4.777611      5.089633   1.000000   1.000000
   37        4.788089      5.153490   1.000000   1.000000
   38        4.871320      5.221499   1.000000   1.000000
   39        4.988734      5.273608   1.000000   1.000000
   40        5.027596      5.323264   1.000000   1.000000
   41        5.056940      5.401039   1.000000   1.000000
   42        5.071724      5.506689   1.000000   1.000000
   43        5.160883      5.559926   1.000000   1.000000
   44        5.184514      5.580765   1.000000   1.000000
   45        5.264888      5.620229   1.000000   1.000000
   46        5.302461      5.654057   1.000000   1.000000
   47        5.367403      5.725038   1.000000   1.000000
   48        5.406904      5.733699   1.000000   1.000000
   49        5.437395      5.821725   1.000000   1.000000
   50        5.457918      5.998397   1.000000   1.000000
   51        5.514332      6.090474   1.000000   1.000000
   52        5.544326      6.178538   1.000000   1.000000
   53        5.575073      6.210734   1.000000   1.000000
   54        5.597056      6.251397   1.000000   1.000000
   55        5.642746      6.305544   1.000000   1.000000
   56        5.698969      6.371031   1.000000   1.000000
   57        5.709440      6.400708   1.000000   1.000000
   58        5.768389      6.493041   1.000000   1.000000
   59        5.786342      6.514843   1.000000   1.000000
   60        5.892679      6.529790   1.000000   1.000000
   61        5.967168      6.552258   1.000000   1.000000
   62        6.064303      6.578656   1.000000   1.000000
   63        6.124769      6.647246   1.000000   1.000000
   64        6.136246      6.675414   1.000000   1.000000
   65        6.164340      6.694198   1.000000   1.000000
   66        6.213392      6.803479   1.000000   1.000000
   67        6.228525      6.888548   1.000000   1.000000
   68        6.241074      6.952081   1.000000   1.000000
   69        6.274945      7.010000   1.000000   1.000003
   70        6.346701      7.090229   1.000000   1.000043
   71        6.380481      7.167435   1.000000   1.000358
   72        6.382348      7.199640   1.000000   1.000781
   73        6.422965      7.228627   1.000000   1.001499
   74        6.467544      7.267198   1.000000   1.003307
   75        6.495307      7.348368   1.000000   1.012843
   76        6.514642      7.360444   1.000000   1.015124
   77        6.561658      7.439614   1.000000   1.032261
   78        6.563943      7.483414   1.000000   1.034912
   79        6.617537      7.630117   1.000000   0.831700
   80        6.638665      7.632498   1.000000   0.824311
   81        6.658631      7.730214   1.000000   0.443829
   82        6.668863      7.757491   1.000000   0.332081
   83        6.702401      7.818118   1.000000   0.126624
   84        6.721295      7.836261   1.000000   0.081497
   85        6.745405      7.932590   1.000000  -0.031467
   86        6.847615      8.055591   1.000000  -0.018831
   87        6.865522      8.168329   1.000000  -0.003196
   88        6.876394      8.195705   1.000000  -0.001834
   89        6.889212      8.226452   1.000000  -0.000934
   90        6.903112      8.232664   1.000000  -0.000807
   91        6.926116      8.276322   1.000000  -0.000277
   92        6.954035      8.374591   1.000000  -0.000017
   93        7.032831      8.490530   1.000007  -0.000000
   94        7.190581      8.558849   1.000631  -0.000000
   95        7.311867      8.633051   1.007361  -0.000000
   96        7.464457      8.665015   1.035254  -0.000000
   97        7.545960      8.665729   1.002764  -0.000000
   98        7.688057      8.690358   0.620744  -0.000000
   99        7.702828      8.737365   0.559436  -0.000000
  100        7.793830      8.769190   0.199726  -0.000000
  101        7.818198      8.774030   0.126312  -0.000000
  102        7.887777      8.836276  -0.002647  -0.000000
  103        8.007047      8.872941  -0.029778  -0.000000
  104        8.067995      8.889395  -0.016206  -0.000000
  105        8.133798      9.005639  -0.006028  -0.000000
  106        8.241412      9.088689  -0.000659  -0.000000
  107        8.317989      9.096880  -0.000091  -0.000000
  108        8.344002      9.107290  -0.000043  -0.000000
  109        8.441794      9.167287  -0.000002  -0.000000
  110        8.548089      9.195467  -0.000000  -0.000000
  111        8.853027      9.202912  -0.000000  -0.000000
  112        8.916475      9.234511  -0.000000  -0.000000
  113        8.926162      9.297627  -0.000000  -0.000000
  114        9.007910      9.453356  -0.000000  -0.000000
  115        9.061495      9.486399  -0.000000  -0.000000
  116        9.089541      9.670133  -0.000000  -0.000000
  117        9.198776      9.825722  -0.000000  -0.000000
  118        9.496034      9.917929  -0.000000  -0.000000
  119        9.543742      9.952054  -0.000000  -0.000000
  120        9.597844     10.044158  -0.000000  -0.000000
  121        9.650917     10.069561  -0.000000  -0.000000
  122        9.722931     10.401611  -0.000000  -0.000000
 
  0.0000000E+00  0.2000000E+00  0.0000000E+00  0.1333333E-01
    1       -2.449444     -2.410704   1.000000   1.000000
    2       -1.123804     -1.083946   1.000000   1.000000
    3       -0.283117     -0.259289   1.000000   1.000000
    4       -0.269455     -0.206087   1.000000   1.000000
    5       -0.049594     -0.065766   1.000000   1.000000
    6        0.541860      0.590752   1.000000   1.000000
    7        0.868918      0.895805   1.000000   1.000000
    8        0.903311      0.948928   1.000000   1.000000
    9        0.904229      0.980890   1.000000   1.000000
   10        1.387230      1.463441   1.000000   1.000000
   11        1.418363      1.517125   1.000000   1.000000
   12        1.451719      1.558466   1.000000   1.000000
   13        1.865067      1.983289   1.000000   1.000000
   14        2.236512      2.362290   1.000000   1.000000
   15        2.248649      2.383158   1.000000   1.000000
   16        2.282782      2.394064   1.000000   1.000000
   17        2.291466      2.405211   1.000000   1.000000
   18        2.761050      2.902053   1.000000   1.000000
   19        3.130577      3.321438   1.000000   1.000000
   20        3.159631      3.413788   1.000000   1.000000
   21        3.513688      3.639493   1.000000   1.000000
   22        3.570015      3.754284   1.000000   1.000000
   23        3.685832      3.803398   1.000000   1.000000
   24        4.004114      4.138012   1.000000   1.000000
   25        4.018713      4.351299   1.000000   1.000000
   26        4.108398      4.422292   1.000000   1.000000
   27        4.233518      4.535556   1.000000   1.000000
   28        4.308097      4.614016   1.000000   1.000000
   29        4.401158      4.687070   1.000000   1.000000
   30        4.417341      4.755523   1.000000   1.000000
   31        4.467026      4.761733   1.000000   1.000000
   32        4.467442      4.837948   1.000000   1.000000
   33        4.518443      4.846673   1.000000   1.000000
   34        4.595510      4.979991   1.000000   1.000000
   35        4.689674      5.071477   1.000000   1.000000
   36        4.814621      5.083363   1.000000   1.000000
   37        4.821811      5.205972   1.000000   1.000000
   38        4.849579      5.219946   1.000000   1.000000
   39        4.883576      5.258945   1.000000   1.000000
   40        4.938406      5.278044   1.000000   1.000000
   41        5.004956      5.402385   1.000000   1.000000
   42        5.160214      5.417828   1.000000   1.000000
   43        5.168741      5.535301   1.000000   1.000000
   44        5.179942      5.543019   1.000000   1.000000
   45        5.275668      5.624273   1.000000   1.000000
   46        5.281694      5.636637   1.000000   1.000000
   47        5.347481      5.779724   1.000000   1.000000
   48        5.404936      5.817162   1.000000   1.000000
   49        5.426266      5.826905   1.000000   1.000000
   50        5.434976      6.050060   1.000000   1.000000
   51        5.511498      6.077752   1.000000   1.000000
   52        5.523226      6.198224   1.000000   1.000000
   53        5.615701      6.211918   1.000000   1.000000
   54        5.621885      6.319736   1.000000   1.000000
   55        5.645488      6.377412   1.000000   1.000000
   56        5.694422      6.414544   1.000000   1.000000
   57        5.746437      6.427637   1.000000   1.000000
   58        5.775067      6.461182   1.000000   1.000000
   59        5.830947      6.491433   1.000000   1.000000
   60        5.857512      6.508824   1.000000   1.000000
   61        5.908203      6.533505   1.000000   1.000000
   62        5.931326      6.599882   1.000000   1.000000
   63        5.937859      6.603908   1.000000   1.000000
   64        6.067453      6.651954   1.000000   1.000000
   65        6.186108      6.721569   1.000000   1.000000
   66        6.246889      6.778788   1.000000   1.000000
   67        6.291722      6.830741   1.000000   1.000000
   68        6.317298      6.903059   1.000000   1.000000
   69        6.369269      6.907839   1.000000   1.000000
   70        6.369364      7.038023   1.000000   1.000009
   71        6.405872      7.041715   1.000000   1.000010
   72        6.439813      7.175349   1.000000   1.000435
   73        6.477340      7.189081   1.000000   1.000608
   74        6.504629      7.319369   1.000000   1.008320
   75        6.513648      7.344784   1.000000   1.012212
   76        6.535628      7.372809   1.000000   1.017668
   77        6.573245      7.394860   1.000000   1.022598
   78        6.612429      7.548097   1.000000   1.000519
   79        6.652271      7.637442   1.000000   0.808569
   80        6.669158      7.680887   1.000000   0.649601
   81        6.710334      7.684920   1.000000   0.633362
   82        6.730750      7.810135   1.000000   0.148973
   83        6.749623      7.854303   1.000000   0.044815
   84        6.752300      7.948286   1.000000  -0.034682
   85        6.783359      8.053804   1.000000  -0.019220
   86        6.821384      8.116199   1.000000  -0.008090
   87        6.857447      8.168117   1.000000  -0.003210
   88        6.899635      8.234986   1.000000  -0.000765
   89        6.904175      8.272608   1.000000  -0.000305
   90        6.917382      8.317953   1.000000  -0.000091
   91        6.975025      8.399681   1.000001  -0.000008
   92        7.090834      8.403151   1.000044  -0.000007
   93        7.227607      8.477310   1.001466  -0.000001
   94        7.329782      8.552791   1.009787  -0.000000
   95        7.370492      8.601399   1.017170  -0.000000
   96        7.402046      8.636810   1.024257  -0.000000
   97        7.548954      8.736309   0.999557  -0.000000
   98        7.553647      8.740216   0.994126  -0.000000
   99        7.613697      8.794573   0.878737  -0.000000
  100        7.760263      8.854963   0.321246  -0.000000
  101        7.855163      8.878799   0.043214  -0.000000
  102        7.927249      8.916515  -0.029689  -0.000000
  103        8.002037      8.924371  -0.030793  -0.000000
  104        8.028041      8.953231  -0.025120  -0.000000
  105        8.167908      8.988581  -0.003224  -0.000000
  106        8.209662      8.995168  -0.001360  -0.000000
  107        8.332799      9.026258  -0.000060  -0.000000
  108        8.401311      9.078699  -0.000007  -0.000000
  109        8.438798      9.094299  -0.000002  -0.000000
  110        8.520876      9.109175  -0.000000  -0.000000
  111        8.724403      9.156419  -0.000000  -0.000000
  112        8.743245      9.166111  -0.000000  -0.000000
  113        8.747836      9.176838  -0.000000  -0.000000
  114        8.901885      9.195177  -0.000000  -0.000000
  115        8.927751      9.251646  -0.000000  -0.000000
  116        9.049134      9.426046  -0.000000  -0.000000
  117        9.078497      9.432794  -0.000000  -0.000000
  118        9.153843      9.589512  -0.000000  -0.000000
  119        9.239763      9.732297  -0.000000  -0.000000
  120        9.306163      9.864611  -0.000000  -0.000000
  121        9.483201      9.981022  -0.000000  -0.000000
  122        9.608824     10.230155  -0.000000  -0.000000
 
  0.2000000E+00  0.2000000E+00  0.0000000E+00  0.1333333E-01
    1       -2.359159     -2.320501   1.000000   1.000000
    2       -1.043678     -1.017994   1.000000   1.000000
    3       -1.032438     -0.977105   1.000000   1.000000
    4        0.014935      0.001161   1.000000   1.000000
    5        0.201301      0.250098   1.000000   1.000000
    6        0.617484      0.652951   1.000000   1.000000
    7        0.625096      0.692269   1.000000   1.000000
    8        0.910455      0.955674   1.000000   1.000000
    9        0.951806      0.968575   1.000000   1.000000
   10        1.512416      1.651622   1.000000   1.000000
   11        1.676883      1.748235   1.000000   1.000000
   12        1.739774      1.828641   1.000000   1.000000
   13        1.794452      1.875711   1.000000   1.000000
   14        1.923465      2.040026   1.000000   1.000000
   15        1.942148      2.078536   1.000000   1.000000
   16        2.703107      2.869311   1.000000   1.000000
   17        2.783668      2.936568   1.000000   1.000000
   18        2.783674      2.977119   1.000000   1.000000
   19        2.803282      2.991301   1.000000   1.000000
   20        2.881031      3.033178   1.000000   1.000000