       N       E                     dE             d eps       ncg     rms          ort
DAV:   1     0.133042703981E+04    0.13304E+04   -0.60086E+04  6344   0.134E+03
DAV:   2    -0.848313825729E+02   -0.14153E+04   -0.13660E+04  6344   0.402E+02
DAV:   3    -0.244345012021E+03   -0.15951E+03   -0.13827E+03  6344   0.149E+02
DAV:   4    -0.267173876807E+03   -0.22829E+02   -0.19842E+02  6344   0.629E+01
DAV:   5    -0.269064625497E+03   -0.18907E+01   -0.18101E+01  6344   0.178E+01
DAV:   6    -0.269201763985E+03   -0.13714E+00   -0.13521E+00  6344   0.444E+00
DAV:   7    -0.269215555949E+03   -0.13792E-01   -0.13705E-01  6344   0.121E+00
DAV:   8    -0.269216633715E+03   -0.10778E-02   -0.10739E-02  6344   0.325E-01
SDA:   9    -0.673855420127E+02    0.20183E+03   -0.10739E-02  6344   0.220E+04 0.000E+00
CGA:  10    -0.211483998707E+03   -0.14410E+03   -0.14614E+03  6344   0.910E+02 0.262E+03
CGA:  11    -0.220131349749E+03   -0.86474E+01   -0.86627E+01  6344   0.671E+02 0.605E+00
CGA:  12    -0.229478641196E+03   -0.93473E+01   -0.93399E+01  6344   0.718E+02 0.629E-01
CGA:  13    -0.234170858742E+03   -0.46922E+01   -0.47909E+01  6344   0.949E+01-0.283E+00
CGA:  14    -0.234876618442E+03   -0.70576E+00   -0.71396E+00  6344   0.573E+01-0.591E-01
CGA:  15    -0.235602879661E+03   -0.72626E+00   -0.72778E+00  6344   0.574E+01 0.828E-02
CGA:  16    -0.236091973526E+03   -0.48909E+00   -0.48973E+00  6344   0.170E+01 0.357E-02
CGA:  17    -0.236239208169E+03   -0.14723E+00   -0.14704E+00  6344   0.962E+00 0.221E-02
CGA:  18    -0.236408746410E+03   -0.16954E+00   -0.16951E+00  6344   0.818E+00 0.778E-03
CGA:  19    -0.236474661196E+03   -0.65915E-01   -0.66318E-01  6344   0.327E+00-0.306E-02
CGA:  20    -0.236505007212E+03   -0.30346E-01   -0.30450E-01  6344   0.231E+00-0.417E-03
CGA:  21    -0.236546082714E+03   -0.41076E-01   -0.41054E-01  6344   0.234E+00 0.573E-03
CGA:  22    -0.236564964111E+03   -0.18881E-01   -0.18903E-01  6344   0.723E-01-0.261E-03
CGA:  23    -0.236572465256E+03   -0.75011E-02   -0.75041E-02  6344   0.498E-01-0.861E-04
CGA:  24    -0.236579110614E+03   -0.66454E-02   -0.66440E-02  6344   0.501E-01-0.121E-03
CGA:  25    -0.236585399722E+03   -0.62891E-02   -0.62866E-02  6344   0.316E-01-0.157E-03
CGA:  26    -0.236589593090E+03   -0.41934E-02   -0.41920E-02  6344   0.278E-01-0.104E-03
CGA:  27    -0.236592168055E+03   -0.25750E-02   -0.25719E-02  6344   0.126E-01-0.469E-04
CGA:  28    -0.236593747757E+03   -0.15797E-02   -0.15792E-02  6344   0.857E-02-0.166E-04
CGA:  29    -0.236594886705E+03   -0.11389E-02   -0.11388E-02  6344   0.656E-02-0.122E-04
CGA:  30    -0.236595607501E+03   -0.72080E-03   -0.72023E-03  6344   0.436E-02-0.158E-04
CGA:  31    -0.236596155123E+03   -0.54762E-03   -0.54740E-03  6344   0.444E-02-0.131E-04
CGA:  32    -0.236596821994E+03   -0.66687E-03   -0.66699E-03  6344   0.265E-02-0.465E-05
CGA:  33    -0.236597091645E+03   -0.26965E-03   -0.27003E-03  6344   0.152E-02 0.141E-04
CGA:  34    -0.236597264817E+03   -0.17317E-03   -0.17351E-03  6344   0.113E-02 0.145E-04
CGA:  35    -0.236597443861E+03   -0.17904E-03   -0.17882E-03  6344   0.828E-03 0.127E-04
CGA:  36    -0.236597534303E+03   -0.90442E-04   -0.90569E-04  6344   0.629E-03 0.449E-05
CGA:  37    -0.236597628871E+03   -0.94568E-04   -0.94480E-04  6344   0.685E-03 0.739E-05
CGA:  38    -0.236597707928E+03   -0.79057E-04   -0.79294E-04  6344   0.331E-03 0.993E-05
CGA:  39    -0.236597741525E+03   -0.33597E-04   -0.33811E-04  6344   0.145E-03 0.606E-05
SDA:  40    -0.236597765640E+03   -0.24116E-04   -0.24064E-04  6344   0.202E-03 0.184E-05
CGA:  41    -0.236597778958E+03   -0.13318E-04   -0.13170E-04  6344   0.107E-03-0.208E-05
CGA:  42    -0.236597794879E+03   -0.15921E-04   -0.16024E-04  6344   0.821E-04-0.565E-05
CGA:  43    -0.236597809214E+03   -0.14335E-04   -0.14510E-04  6344   0.119E-03-0.337E-05
CGA:  44    -0.236597819867E+03   -0.10653E-04   -0.10581E-04  6344   0.362E-04-0.162E-05
CGA:  45    -0.236597823935E+03   -0.40686E-05   -0.40577E-05  6344   0.366E-04-0.567E-06
CGA:  46    -0.236597831582E+03   -0.76468E-05   -0.77921E-05  6344   0.212E-04-0.175E-05
CGA:  47    -0.236597834434E+03   -0.28523E-05   -0.28537E-05  6344   0.281E-04-0.307E-06
CGA:  48    -0.236597838827E+03   -0.43930E-05   -0.43848E-05  6344   0.173E-04 0.393E-06
CGA:  49    -0.236597840140E+03   -0.13123E-05   -0.13341E-05  6344   0.806E-05 0.346E-06
CGA:  50    -0.236597842159E+03   -0.20190E-05   -0.19379E-05  6344   0.419E-05 0.808E-06
CGA:  51    -0.236597842868E+03   -0.70982E-06   -0.70855E-06  6344   0.575E-05 0.173E-06
CGA:  52    -0.236597843739E+03   -0.87014E-06   -0.86951E-06  6344   0.298E-05 0.327E-06
CGA:  53    -0.236597844080E+03   -0.34159E-06   -0.35320E-06  6344   0.281E-05 0.358E-06
CGA:  54    -0.236597844492E+03   -0.41202E-06   -0.41585E-06  6344   0.157E-05 0.500E-06
CGA:  55    -0.236597844708E+03   -0.21620E-06   -0.21546E-06  6344   0.145E-05-0.233E-07
CGA:  56    -0.236597844890E+03   -0.18204E-06   -0.17881E-06  6344   0.890E-06-0.248E-06
CGA:  57    -0.236597844984E+03   -0.93985E-07   -0.91582E-07  6344   0.106E-05-0.125E-06
CGA:  58    -0.236597845185E+03   -0.20039E-06   -0.21123E-06  6344   0.589E-06-0.123E-06
CGA:  59    -0.236597845231E+03   -0.46677E-07   -0.43799E-07  6344   0.367E-06-0.559E-07
   1 F= -.23659785E+03 E0= -.23660125E+03  d E =0.102256E-01  mag=    17.5393
