 vasp.5.4.4.18Apr17-6-g9f103f2a35 (build Dec 20 2018 12:05:58) complex          
  
 executed on             LinuxIFC date 2019.06.20  17:22:53
 running on   32 total cores
 distrk:  each k-point on    8 cores,    4 groups
 distr:  one band on NCORES_PER_BAND=   4 cores,    2 groups


--------------------------------------------------------------------------------------------------------


 INCAR:
 POTCAR:    PAW_PBE Al 04Jan2001                  
 POTCAR:    PAW_PBE Mn 06Sep2000                  

 ----------------------------------------------------------------------------- 
|                                                                             |
|           W    W    AA    RRRRR   N    N  II  N    N   GGGG   !!!           |
|           W    W   A  A   R    R  NN   N  II  NN   N  G    G  !!!           |
|           W    W  A    A  R    R  N N  N  II  N N  N  G       !!!           |
|           W WW W  AAAAAA  RRRRR   N  N N  II  N  N N  G  GGG   !            |
|           WW  WW  A    A  R   R   N   NN  II  N   NN  G    G                |
|           W    W  A    A  R    R  N    N  II  N    N   GGGG   !!!           |
|                                                                             |
|      You have enabled k-point parallelism (KPAR>1).                         |
|      This developmental code was originally  written by Paul Kent at ORNL,  |
|      and carefully double checked in Vienna.                                |
|      GW as well as linear response parallelism added by Martijn Marsman     |
|      and Georg Kresse.                                                      |
|      Carefully verify results versus KPAR=1.                                |
|      Report problems to Paul Kent and Vienna.                               |
|                                                                             |
 ----------------------------------------------------------------------------- 

 POTCAR:    PAW_PBE Al 04Jan2001                  
   VRHFIN =Al: s2p1                                                             
   LEXCH  = PE                                                                  
   EATOM  =    53.5387 eV,    3.9350 Ry                                         
                                                                                
   TITEL  = PAW_PBE Al 04Jan2001                                                
   LULTRA =        F    use ultrasoft PP ?                                      
   IUNSCR =        1    unscreen: 0-lin 1-nonlin 2-no                           
   RPACOR =    1.500    partial core radius                                     
   POMASS =   26.981; ZVAL   =    3.000    mass and valenz                      
   RCORE  =    1.900    outmost cutoff radius                                   
   RWIGS  =    2.650; RWIGS  =    1.402    wigner-seitz radius (au A)           
   ENMAX  =  240.300; ENMIN  =  180.225 eV                                      
   ICORE  =        2    local potential                                         
   LCOR   =        T    correct aug charges                                     
   LPAW   =        T    paw PP                                                  
   EAUG   =  291.052                                                            
   DEXC   =    0.000                                                            
   RMAX   =    1.939    core radius for proj-oper                               
   RAUG   =    1.300    factor for augmentation sphere                          
   RDEP   =    1.966    radius for radial grids                                 
   RDEPT  =    1.856    core radius for aug-charge                              
                                                                                
   Atomic configuration                                                         
    6 entries                                                                   
     n  l   j            E        occ.                                          
     1  0  0.50     -1511.1048   2.0000                                         
     2  0  0.50      -108.1629   2.0000                                         
     2  1  1.50       -69.6402   6.0000                                         
     3  0  0.50        -7.7528   2.0000                                         
     3  1  1.50        -2.7121   1.0000                                         
     3  2  2.50        -2.7212   0.0000                                         
   Description                                                                  
     l       E           TYP  RCUT    TYP  RCUT                                 
     0     -7.7528455     23  1.900                                             
     0     -3.3096929     23  1.900                                             
     1     -2.7120682     23  1.900                                             
     1     13.6058260     23  1.900                                             
     2     -2.7211652      7  1.900                                             
  local pseudopotential read in
  partial core-charges read in
  partial kinetic energy density read in
  atomic valenz-charges read in
  non local Contribution for L=           0  read in
    real space projection operators read in
  non local Contribution for L=           0  read in
    real space projection operators read in
  non local Contribution for L=           1  read in
    real space projection operators read in
  non local Contribution for L=           1  read in
    real space projection operators read in
    PAW grid and wavefunctions read in
 
   number of l-projection  operators is LMAX  =           4
   number of lm-projection operators is LMMAX =           8
 
 POTCAR:    PAW_PBE Mn 06Sep2000                  
   VRHFIN =Mn: d6 s1                                                            
   LEXCH  = PE                                                                  
   EATOM  =   416.7541 eV,   30.6306 Ry                                         
                                                                                
   TITEL  = PAW_PBE Mn 06Sep2000                                                
   LULTRA =        F    use ultrasoft PP ?                                      
   IUNSCR =        1    unscreen: 0-lin 1-nonlin 2-no                           
   RPACOR =    2.000    partial core radius                                     
   POMASS =   54.938; ZVAL   =    7.000    mass and valenz                      
   RCORE  =    2.300    outmost cutoff radius                                   
   RWIGS  =    2.500; RWIGS  =    1.323    wigner-seitz radius (au A)           
   ENMAX  =  269.864; ENMIN  =  202.398 eV                                      
   RCLOC  =    1.725    cutoff for local pot                                    
   LCOR   =        T    correct aug charges                                     
   LPAW   =        T    paw PP                                                  
   EAUG   =  500.711                                                            
   DEXC   =    0.000                                                            
   RMAX   =    2.343    core radius for proj-oper                               
   RAUG   =    1.300    factor for augmentation sphere                          
   RDEP   =    2.338    radius for radial grids                                 
   RDEPT  =    1.911    core radius for aug-charge                              
                                                                                
   Atomic configuration                                                         
    9 entries                                                                   
     n  l   j            E        occ.                                          
     1  0  0.50     -6424.8288   2.0000                                         
     2  0  0.50      -739.1154   2.0000                                         
     2  1  1.50      -625.3949   6.0000                                         
     3  0  0.50       -81.6100   2.0000                                         
     3  1  1.50       -50.4667   6.0000                                         
     3  2  2.50        -3.3745   6.0000                                         
     4  0  0.50        -4.1331   1.0000                                         
     4  1  0.50        -4.0817   0.0000                                         
     4  3  2.50        -1.3606   0.0000                                         
   Description                                                                  
     l       E           TYP  RCUT    TYP  RCUT                                 
     2     -3.3744664     23  2.300                                             
     2     -4.7350490     23  2.300                                             
     0     -4.1331408     23  2.300                                             
     0      7.6656614     23  2.300                                             
     1     -2.7211652     23  2.300                                             
     1     20.4087390     23  2.300                                             
  local pseudopotential read in
  partial core-charges read in
  partial kinetic energy density read in
  atomic valenz-charges read in
  non local Contribution for L=           2  read in
    real space projection operators read in
  non local Contribution for L=           2  read in
    real space projection operators read in
  non local Contribution for L=           0  read in
    real space projection operators read in
  non local Contribution for L=           0  read in
    real space projection operators read in
  non local Contribution for L=           1  read in
    real space projection operators read in
  non local Contribution for L=           1  read in
    real space projection operators read in
    PAW grid and wavefunctions read in
 
   number of l-projection  operators is LMAX  =           6
   number of lm-projection operators is LMMAX =          18
 

 ----------------------------------------------------------------------------- 
|                                                                             |
|  ADVICE TO THIS USER RUNNING 'VASP/VAMP'   (HEAR YOUR MASTER'S VOICE ...):  |
|                                                                             |
|      You have a (more or less) 'large supercell' and for larger cells       |
|      it might be more efficient to use real space projection opertators     |
|      So try LREAL= Auto  in the INCAR   file.                               |
|      Mind:          For very  accurate calculation you might also keep the  |
|      reciprocal projection scheme          (i.e. LREAL=.FALSE.)             |
|                                                                             |
 ----------------------------------------------------------------------------- 

  PAW_PBE Al 04Jan2001                  :
 energy of atom  1       EATOM=  -53.5387
 kinetic energy error for atom=    0.0005 (will be added to EATOM!!)
  PAW_PBE Mn 06Sep2000                  :
 energy of atom  2       EATOM= -416.7541
 kinetic energy error for atom=    0.0080 (will be added to EATOM!!)
 
 
 POSCAR: NewRef: 18, @ ['Mn', array([1.37502469, 
  positions in cartesian coordinates
  velocities in cartesian coordinates
  No initial velocities read in
 exchange correlation table for  LEXCH =        8
   RHO(1)=    0.500       N(1)  =     2000
   RHO(2)=  100.500       N(2)  =     4000
 


--------------------------------------------------------------------------------------------------------


 ion  position               nearest neighbor table
   1  0.000  0.000  0.000-  20 2.61  24 2.61  32 2.61  36 2.61  31 2.61  23 2.61  35 2.61  19 2.61
                             3 2.75   7 2.75   5 2.75  13 2.75
   2  0.000  0.000  0.500-  19 2.61  23 2.61  31 2.61  35 2.61  20 2.61  32 2.61  24 2.61  36 2.61
                             4 2.75   8 2.75   6 2.75  14 2.75
   3  0.000  0.333  0.000-  20 2.61  32 2.61  22 2.61  34 2.61  19 2.61  31 2.61  33 2.61  21 2.61
                             9 2.75   1 2.75   5 2.75  15 2.75
   4  0.000  0.333  0.500-  19 2.61  31 2.61  21 2.61  33 2.61  32 2.61  20 2.61  22 2.61  34 2.61
                            10 2.75   2 2.75   6 2.75  16 2.75
   5  0.000  0.667  0.000-  22 2.61  34 2.61  24 2.61  36 2.61  21 2.61  33 2.61  35 2.61  23 2.61
                             3 2.75  11 2.75   1 2.75  17 2.75
   6  0.000  0.667  0.500-  21 2.61  33 2.61  23 2.61  35 2.61  34 2.61  22 2.61  24 2.61  36 2.61
                             4 2.75  12 2.75   2 2.75  18 2.75
   7  0.333  0.000  0.000-  20 2.61  24 2.61  26 2.61  30 2.61  23 2.61  19 2.61  29 2.61  25 2.61
                            13 2.75   1 2.75   9 2.75  11 2.75
   8  0.333  0.000  0.500-  19 2.61  23 2.61  25 2.61  29 2.61  20 2.61  24 2.61  26 2.61  30 2.61
                            14 2.75   2 2.75  10 2.75  12 2.75
   9  0.333  0.333  0.000-  20 2.61  22 2.61  26 2.61  19 2.61  28 2.61  21 2.61  25 2.61  27 2.61
                             3 2.75   7 2.75  11 2.75  15 2.75
  10  0.333  0.333  0.500-  19 2.61  21 2.61  25 2.61  20 2.61  27 2.61  26 2.61  22 2.61  28 2.61
                             4 2.75   8 2.75  12 2.75  16 2.75
  11  0.333  0.667  0.000-  22 2.61  24 2.61  28 2.61  21 2.61  30 2.61  23 2.61  27 2.61  29 2.61
                            17 2.75   5 2.75   9 2.75   7 2.75
  12  0.333  0.667  0.500-  21 2.61  23 2.61  27 2.61  22 2.61  29 2.61  28 2.61  24 2.61  30 2.61
                            18 2.75   6 2.75  10 2.75   8 2.75
  13  0.667  0.000  0.000-  26 2.61  30 2.61  32 2.61  36 2.61  29 2.61  25 2.61  35 2.61  31 2.61
                             7 2.75  15 2.75   1 2.75  17 2.75
  14  0.667  0.000  0.500-  25 2.61  29 2.61  31 2.61  35 2.61  26 2.61  30 2.61  32 2.61  36 2.61
                             8 2.75  16 2.75   2 2.75  18 2.75
  15  0.667  0.333  0.000-  26 2.61  28 2.61  32 2.61  25 2.61  34 2.61  27 2.61  31 2.61  33 2.61
                            17 2.75   9 2.75  13 2.75   3 2.75
  16  0.667  0.333  0.500-  25 2.61  27 2.61  31 2.61  26 2.61  33 2.61  32 2.61  28 2.61  34 2.61
                            18 2.75  10 2.75  14 2.75   4 2.75
  17  0.667  0.667  0.000-  28 2.61  30 2.61  34 2.61  27 2.61  36 2.61  29 2.61  33 2.61  35 2.61
                            11 2.75  15 2.75  13 2.75   5 2.75
  18  0.667  0.667  0.500-  27 2.61  29 2.61  33 2.61  28 2.61  35 2.61  34 2.61  30 2.61  36 2.61
                            12 2.75  16 2.75  14 2.75   6 2.75
  19  0.167  0.167  0.250-  10 2.61   8 2.61   4 2.61   9 2.61   2 2.61   7 2.61   3 2.61   1 2.61
                            21 2.75  25 2.75  23 2.75  31 2.75
  20  0.167  0.167  0.750-   9 2.61   7 2.61   3 2.61  10 2.61   1 2.61   4 2.61   8 2.61   2 2.61
                            22 2.75  26 2.75  24 2.75  32 2.75
  21  0.167  0.500  0.250-  12 2.61  10 2.61   6 2.61  11 2.61   4 2.61   9 2.61   5 2.61   3 2.61
                            19 2.75  23 2.75  27 2.75  33 2.75
  22  0.167  0.500  0.750-  11 2.61   9 2.61   5 2.61  12 2.61   3 2.61   6 2.61  10 2.61   4 2.61
                            20 2.75  24 2.75  28 2.75  34 2.75
  23  0.167  0.833  0.250-   8 2.61  12 2.61   2 2.61   6 2.61  11 2.61   7 2.61   5 2.61   1 2.61
                            21 2.75  29 2.75  19 2.75  35 2.75
  24  0.167  0.833  0.750-   7 2.61  11 2.61   1 2.61   5 2.61   8 2.61  12 2.61   2 2.61   6 2.61
                            22 2.75  30 2.75  20 2.75  36 2.75
  25  0.500  0.167  0.250-  16 2.61  14 2.61  10 2.61  15 2.61   8 2.61  13 2.61   9 2.61   7 2.61
                            19 2.75  27 2.75  31 2.75  29 2.75
  26  0.500  0.167  0.750-  15 2.61  13 2.61   9 2.61  16 2.61   7 2.61  10 2.61  14 2.61   8 2.61
                            20 2.75  28 2.75  32 2.75  30 2.75
  27  0.500  0.500  0.250-  18 2.61  16 2.61  12 2.61  17 2.61  10 2.61  15 2.61  11 2.61   9 2.61
                            21 2.75  25 2.75  29 2.75  33 2.75
  28  0.500  0.500  0.750-  17 2.61  15 2.61  11 2.61  18 2.61   9 2.61  12 2.61  16 2.61  10 2.61
                            22 2.75  26 2.75  30 2.75  34 2.75
  29  0.500  0.833  0.250-  14 2.61  18 2.61   8 2.61  12 2.61  17 2.61  13 2.61  11 2.61   7 2.61
                            23 2.75  27 2.75  35 2.75  25 2.75
  30  0.500  0.833  0.750-  13 2.61  17 2.61   7 2.61  11 2.61  14 2.61  18 2.61   8 2.61  12 2.61
                            24 2.75  28 2.75  36 2.75  26 2.75
  31  0.833  0.167  0.250-   4 2.61  16 2.61  14 2.61   2 2.61  15 2.61   3 2.61  13 2.61   1 2.61
                            25 2.75  33 2.75  19 2.75  35 2.75
  32  0.833  0.167  0.750-   3 2.61  15 2.61  13 2.61   1 2.61   4 2.61  16 2.61   2 2.61  14 2.61
                            26 2.75  34 2.75  20 2.75  36 2.75
  33  0.833  0.500  0.250-   6 2.61  18 2.61  16 2.61   4 2.61  17 2.61   5 2.61  15 2.61   3 2.61
                            27 2.75  31 2.75  35 2.75  21 2.75
  34  0.833  0.500  0.750-   5 2.61  17 2.61  15 2.61   3 2.61   6 2.61  18 2.61   4 2.61  16 2.61
                            28 2.75  32 2.75  36 2.75  22 2.75
  35  0.833  0.833  0.250-   2 2.61   6 2.61  14 2.61  18 2.61  13 2.61   5 2.61  17 2.61   1 2.61
                            29 2.75  33 2.75  31 2.75  23 2.75
  36  0.833  0.833  0.750-   1 2.61   5 2.61  13 2.61  17 2.61   2 2.61  14 2.61   6 2.61  18 2.61
                            30 2.75  34 2.75  32 2.75  24 2.75
 
  LATTYP: Found a simple tetragonal cell.
 ALAT       =     8.2501481662
 C/A-ratio  =     0.8428059861
  
  Lattice vectors:
  
 A1 = (   8.2501481662,   0.0000000000,   0.0000000000)
 A2 = (   0.0000000000,   8.2501481662,   0.0000000000)
 A3 = (   0.0000000000,   0.0000000000,   6.9532742610)


Analysis of symmetry for initial positions (statically):
=====================================================================
 Subroutine PRICEL returns following result:
 
  LATTYP: Found a simple tetragonal cell.
 ALAT       =     2.7500493888
 C/A-ratio  =     1.2642089792
  
  Lattice vectors:
  
 A1 = (   2.7500493888,   0.0000000000,   0.0000000000)
 A2 = (   0.0000000000,   2.7500493888,   0.0000000000)
 A3 = (   0.0000000000,   0.0000000000,   3.4766371305)
 
  18 primitive cells build up your supercell.
 

 Routine SETGRP: Setting up the symmetry group for a 
 simple tetragonal supercell.


 Subroutine GETGRP returns: Found 16 space group operations
 (whereof 16 operations were pure point group operations)
 out of a pool of 16 trial point group operations.


The static configuration has the point symmetry D_4h.


Analysis of symmetry for dynamics (positions and initial velocities):
=====================================================================
 Subroutine PRICEL returns following result:
 
  LATTYP: Found a simple tetragonal cell.
 ALAT       =     2.7500493888
 C/A-ratio  =     1.2642089792
  
  Lattice vectors:
  
 A1 = (   2.7500493888,   0.0000000000,   0.0000000000)
 A2 = (   0.0000000000,   2.7500493888,   0.0000000000)
 A3 = (   0.0000000000,   0.0000000000,   3.4766371305)
 
  18 primitive cells build up your supercell.
 

 Routine SETGRP: Setting up the symmetry group for a 
 simple tetragonal supercell.


 Subroutine GETGRP returns: Found 16 space group operations
 (whereof 16 operations were pure point group operations)
 out of a pool of 16 trial point group operations.


The dynamic configuration has the point symmetry D_4h.


Analysis of structural, dynamic, and magnetic symmetry:
=====================================================================
 Subroutine PRICEL returns:
 Original cell was already a primitive cell.
 

 Routine SETGRP: Setting up the symmetry group for a 
 simple tetragonal supercell.


 Subroutine GETGRP returns: Found  2 space group operations
 (whereof  1 operations were pure point group operations)
 out of a pool of 16 trial point group operations.


The magnetic configuration has the point symmetry C_1 .
 The point group associated with its full space group is C_1h.


 Subroutine INISYM returns: Found  2 space group operations
 (whereof  1 operations are pure point group operations),
 and found     1 'primitive' translations

 
 
 KPOINTS: automatic KPOINTS                       

Automatic generation of k-mesh.
 generate k-points for:    5    5    6
Space group operators:
 irot       det(A)        alpha          n_x          n_y          n_z        tau_x        tau_y        tau_z
    1     1.000000     0.000001     1.000000     0.000000     0.000000     0.000000     0.000000     0.000000
    2    -1.000000   179.999999     0.000000     0.000000     1.000000     0.000000     0.000000     0.500000
 
 Subroutine IBZKPT returns following result:
 ===========================================
 
 Found     52 irreducible k-points:
 
 Following reciprocal coordinates:
            Coordinates               Weight
  0.000000  0.000000  0.000000      1.000000
  0.200000  0.000000  0.000000      2.000000
  0.400000  0.000000  0.000000      2.000000
  0.000000  0.200000  0.000000      2.000000
  0.200000  0.200000  0.000000      2.000000
  0.400000  0.200000  0.000000      2.000000
 -0.400000  0.200000  0.000000      2.000000
 -0.200000  0.200000  0.000000      2.000000
  0.000000  0.400000  0.000000      2.000000
  0.200000  0.400000  0.000000      2.000000
  0.400000  0.400000  0.000000      2.000000
 -0.400000  0.400000  0.000000      2.000000
 -0.200000  0.400000  0.000000      2.000000
  0.000000  0.000000  0.166667      2.000000
  0.200000  0.000000  0.166667      4.000000
  0.400000  0.000000  0.166667      4.000000
  0.000000  0.200000  0.166667      4.000000
  0.200000  0.200000  0.166667      4.000000
  0.400000  0.200000  0.166667      4.000000
 -0.400000  0.200000  0.166667      4.000000
 -0.200000  0.200000  0.166667      4.000000
  0.000000  0.400000  0.166667      4.000000
  0.200000  0.400000  0.166667      4.000000
  0.400000  0.400000  0.166667      4.000000
 -0.400000  0.400000  0.166667      4.000000
 -0.200000  0.400000  0.166667      4.000000
  0.000000  0.000000  0.333333      2.000000
  0.200000  0.000000  0.333333      4.000000
  0.400000  0.000000  0.333333      4.000000
  0.000000  0.200000  0.333333      4.000000
  0.200000  0.200000  0.333333      4.000000
  0.400000  0.200000  0.333333      4.000000
 -0.400000  0.200000  0.333333      4.000000
 -0.200000  0.200000  0.333333      4.000000
  0.000000  0.400000  0.333333      4.000000
  0.200000  0.400000  0.333333      4.000000
  0.400000  0.400000  0.333333      4.000000
 -0.400000  0.400000  0.333333      4.000000
 -0.200000  0.400000  0.333333      4.000000
  0.000000  0.000000  0.500000      1.000000
  0.200000  0.000000  0.500000      2.000000
  0.400000  0.000000  0.500000      2.000000
  0.000000  0.200000  0.500000      2.000000
  0.200000  0.200000  0.500000      2.000000
  0.400000  0.200000  0.500000      2.000000
 -0.400000  0.200000  0.500000      2.000000
 -0.200000  0.200000  0.500000      2.000000
  0.000000  0.400000  0.500000      2.000000
  0.200000  0.400000  0.500000      2.000000
  0.400000  0.400000  0.500000      2.000000
 -0.400000  0.400000  0.500000      2.000000
 -0.200000  0.400000  0.500000      2.000000
 
 Following cartesian coordinates:
            Coordinates               Weight
  0.000000  0.000000  0.000000      1.000000
  0.024242  0.000000  0.000000      2.000000
  0.048484  0.000000  0.000000      2.000000
  0.000000  0.024242  0.000000      2.000000
  0.024242  0.024242  0.000000      2.000000
  0.048484  0.024242  0.000000      2.000000
 -0.048484  0.024242  0.000000      2.000000
 -0.024242  0.024242  0.000000      2.000000
  0.000000  0.048484  0.000000      2.000000
  0.024242  0.048484  0.000000      2.000000
  0.048484  0.048484  0.000000      2.000000
 -0.048484  0.048484  0.000000      2.000000
 -0.024242  0.048484  0.000000      2.000000
  0.000000  0.000000  0.023970      2.000000
  0.024242  0.000000  0.023970      4.000000
  0.048484  0.000000  0.023970      4.000000
  0.000000  0.024242  0.023970      4.000000
  0.024242  0.024242  0.023970      4.000000
  0.048484  0.024242  0.023970      4.000000
 -0.048484  0.024242  0.023970      4.000000
 -0.024242  0.024242  0.023970      4.000000
  0.000000  0.048484  0.023970      4.000000
  0.024242  0.048484  0.023970      4.000000
  0.048484  0.048484  0.023970      4.000000
 -0.048484  0.048484  0.023970      4.000000
 -0.024242  0.048484  0.023970      4.000000
  0.000000  0.000000  0.047939      2.000000
  0.024242  0.000000  0.047939      4.000000
  0.048484  0.000000  0.047939      4.000000
  0.000000  0.024242  0.047939      4.000000
  0.024242  0.024242  0.047939      4.000000
  0.048484  0.024242  0.047939      4.000000
 -0.048484  0.024242  0.047939      4.000000
 -0.024242  0.024242  0.047939      4.000000
  0.000000  0.048484  0.047939      4.000000
  0.024242  0.048484  0.047939      4.000000
  0.048484  0.048484  0.047939      4.000000
 -0.048484  0.048484  0.047939      4.000000
 -0.024242  0.048484  0.047939      4.000000
  0.000000  0.000000  0.071909      1.000000
  0.024242  0.000000  0.071909      2.000000
  0.048484  0.000000  0.071909      2.000000
  0.000000  0.024242  0.071909      2.000000
  0.024242  0.024242  0.071909      2.000000
  0.048484  0.024242  0.071909      2.000000
 -0.048484  0.024242  0.071909      2.000000
 -0.024242  0.024242  0.071909      2.000000
  0.000000  0.048484  0.071909      2.000000
  0.024242  0.048484  0.071909      2.000000
  0.048484  0.048484  0.071909      2.000000
 -0.048484  0.048484  0.071909      2.000000
 -0.024242  0.048484  0.071909      2.000000
 


--------------------------------------------------------------------------------------------------------




 Dimension of arrays:
   k-points           NKPTS =     52   k-points in BZ     NKDIM =     52   number of bands    NBANDS=    122
   number of dos      NEDOS =    301   number of ions     NIONS =     36
   non local maximal  LDIM  =      6   non local SUM 2l+1 LMDIM =     18
   total plane-waves  NPLWV = 139968
   max r-space proj   IRMAX =      1   max aug-charges    IRDMAX=  92271
   dimension x,y,z NGX =    54 NGY =   54 NGZ =   48
   dimension x,y,z NGXF=   108 NGYF=  108 NGZF=   96
   support grid    NGXF=   216 NGYF=  216 NGZF=  192
   ions per type =              18  18
   NGX,Y,Z   is equivalent  to a cutoff of  10.88, 10.88, 11.48 a.u.
   NGXF,Y,Z  is equivalent  to a cutoff of  21.76, 21.76, 22.95 a.u.

 SYSTEM =  AlMn_pv                                 
 POSCAR =  NewRef: 18, @ ['Mn', array([1.37502469, 

 Startparameter for this run:
   NWRITE =      2    write-flag & timer
   PREC   = accura    normal or accurate (medium, high low for compatibility)
   ISTART =      0    job   : 0-new  1-cont  2-samecut
   ICHARG =      2    charge: 1-file 2-atom 10-const
   ISPIN  =      2    spin polarized calculation?
   LNONCOLLINEAR =      F non collinear calculations
   LSORBIT =      F    spin-orbit coupling
   INIWAV =      1    electr: 0-lowe 1-rand  2-diag
   LASPH  =      F    aspherical Exc in radial PAW
   METAGGA=      F    non-selfconsistent MetaGGA calc.

 Electronic Relaxation 1
   ENCUT  =  404.8 eV  29.75 Ry    5.45 a.u.  13.53 13.53 11.41*2*pi/ulx,y,z
   ENINI  =  404.8     initial cutoff
   ENAUG  =  500.7 eV  augmentation charge cutoff
   NELM   =    100;   NELMIN=  4; NELMDL= -8     # of ELM steps 
   EDIFF  = 0.1E-06   stopping-criterion for ELM
   LREAL  =      F    real-space projection
   NLSPLINE    = F    spline interpolate recip. space projectors
   LCOMPAT=      F    compatible to vasp.4.4
   GGA_COMPAT  = T    GGA compatible to vasp.4.4-vasp.4.6
   LMAXPAW     = -100 max onsite density
   LMAXMIX     =    2 max onsite mixed and CHGCAR
   VOSKOWN=      0    Vosko Wilk Nusair interpolation
   ROPT   =    0.00000   0.00000
 Ionic relaxation
   EDIFFG = 0.1E-05   stopping-criterion for IOM
   NSW    =      0    number of steps for IOM
   NBLOCK =      1;   KBLOCK =      1    inner block; outer block 
   IBRION =     -1    ionic relax: 0-MD 1-quasi-New 2-CG
   NFREE  =      0    steps in history (QN), initial steepest desc. (CG)
   ISIF   =      2    stress and relaxation
   IWAVPR =     10    prediction:  0-non 1-charg 2-wave 3-comb
   ISYM   =      2    0-nonsym 1-usesym 2-fastsym
   LCORR  =      T    Harris-Foulkes like correction to forces

   POTIM  = 0.2000    time-step for ionic-motion
   TEIN   =    0.0    initial temperature
   TEBEG  =    0.0;   TEEND  =   0.0 temperature during run
   SMASS  =  -3.00    Nose mass-parameter (am)
   estimated Nose-frequenzy (Omega)   =  0.10E-29 period in steps =****** mass=  -0.156E-26a.u.
   SCALEE = 1.0000    scale energy and forces
   NPACO  =    256;   APACO  = 16.0  distance and # of slots for P.C.
   PSTRESS=    0.0 pullay stress

  Mass of Ions in am
   POMASS =  26.98 54.94
  Ionic Valenz
   ZVAL   =   3.00  7.00
  Atomic Wigner-Seitz radii
   RWIGS  =  -1.00 -1.00
  virtual crystal weights 
   VCA    =   1.00  1.00
   NELECT =     180.0000    total number of electrons
   NUPDOWN=      -1.0000    fix difference up-down

 DOS related values:
   EMIN   =  10.00;   EMAX   =-10.00  energy-range for DOS
   EFERMI =   0.00
   ISMEAR =     1;   SIGMA  =   0.20  broadening in eV -4-tet -1-fermi 0-gaus

 Electronic relaxation 2 (details)
   IALGO  =     58    algorithm
   LDIAG  =      T    sub-space diagonalisation (order eigenvalues)
   LSUBROT=      F    optimize rotation matrix (better conditioning)
   TURBO    =      0    0=normal 1=particle mesh
   IRESTART =      0    0=no restart 2=restart with 2 vectors
   NREBOOT  =      0    no. of reboots
   NMIN     =      0    reboot dimension
   EREF     =   0.00    reference energy to select bands
   IMIX   =      4    mixing-type and parameters
     AMIX     =   0.40;   BMIX     =  1.00
     AMIX_MAG =   1.60;   BMIX_MAG =  1.00
     AMIN     =   0.10
     WC   =   100.;   INIMIX=   1;  MIXPRE=   1;  MAXMIX= -45

 Intra band minimization:
   WEIMIN = 0.0000     energy-eigenvalue tresh-hold
   EBREAK =  0.20E-09  absolut break condition
   DEPER  =   0.30     relativ break condition  

   TIME   =   0.40     timestep for ELM

  volume/ion in A,a.u.               =      13.15        88.72
  Fermi-wavevector in a.u.,A,eV,Ry     =   1.186118  2.241439 19.141722  1.406877
  Thomas-Fermi vector in A             =   2.322298
 
 Write flags
   LWAVE        =      F    write WAVECAR
   LDOWNSAMPLE  =      F    k-point downsampling of WAVECAR
   LCHARG       =      F    write CHGCAR
   LVTOT        =      F    write LOCPOT, total local potential
   LVHAR        =      F    write LOCPOT, Hartree potential only
   LELF         =      F    write electronic localiz. function (ELF)
   LORBIT       =     10    0 simple, 1 ext, 2 COOP (PROOUT), +10 PAW based schemes


 Dipole corrections
   LMONO  =      F    monopole corrections only (constant potential shift)
   LDIPOL =      F    correct potential (dipole corrections)
   IDIPOL =      0    1-x, 2-y, 3-z, 4-all directions 
   EPSILON=  1.0000000 bulk dielectric constant

 Exchange correlation treatment:
   GGA     =    --    GGA type
   LEXCH   =     8    internal setting for exchange type
   VOSKOWN=      0    Vosko Wilk Nusair interpolation
   LHFCALC =     F    Hartree Fock is set to
   LHFONE  =     F    Hartree Fock one center treatment
   AEXX    =    0.0000 exact exchange contribution

 Linear response parameters
   LEPSILON=     F    determine dielectric tensor
   LRPA    =     F    only Hartree local field effects (RPA)
   LNABLA  =     F    use nabla operator in PAW spheres
   LVEL    =     F    velocity operator in full k-point grid
   LINTERFAST=   F  fast interpolation
   KINTER  =     0    interpolate to denser k-point grid
   CSHIFT  =0.1000    complex shift for real part using Kramers Kronig
   OMEGAMAX=  -1.0    maximum frequency
   DEG_THRESHOLD= 0.2000000E-02 threshold for treating states as degnerate
   RTIME   =   -0.100 relaxation time in fs
  (WPLASMAI=    0.000 imaginary part of plasma frequency in eV, 0.658/RTIME)
   DFIELD  = 0.0000000 0.0000000 0.0000000 field for delta impulse in time
 
 Orbital magnetization related:
   ORBITALMAG=     F  switch on orbital magnetization
   LCHIMAG   =     F  perturbation theory with respect to B field
   DQ        =  0.001000  dq finite difference perturbation B field
   LLRAUG    =     F  two centre corrections for induced B field



--------------------------------------------------------------------------------------------------------


 Static calculation
 charge density and potential will be updated during run
 spin polarized calculation
 Conjugate gradient for all bands (Freysoldt, et al. PRB 79, 241103 (2009))
 preconditioned conjugated gradient                                        
 perform sub-space diagonalisation
    before iterative eigenvector-optimisation
 modified Broyden-mixing scheme, WC =      100.0
 initial mixing is a Kerker type mixing with AMIX =  0.4000 and BMIX =      1.0000
 Hartree-type preconditioning will be used
 using additional bands           32
 reciprocal scheme for non local part
 use partial core corrections
 no Harris-corrections to forces 
 use gradient corrections 
 use of overlap-Matrix (Vanderbilt PP)
 Methfessel and Paxton  Order N= 1 SIGMA  =   0.20


--------------------------------------------------------------------------------------------------------


  energy-cutoff  :      404.80
  volume of cell :      473.27
      direct lattice vectors                 reciprocal lattice vectors
     8.250148166  0.000000000  0.000000000     0.121209944  0.000000000  0.000000000
     0.000000000  8.250148166  0.000000000     0.000000000  0.121209944  0.000000000
     0.000000000  0.000000000  6.953274261     0.000000000  0.000000000  0.143817137

  length of vectors
     8.250148166  8.250148166  6.953274261     0.121209944  0.121209944  0.143817137


 
 k-points in units of 2pi/SCALE and weight: automatic KPOINTS                       
   0.00000000  0.00000000  0.00000000       0.007
   0.02424199  0.00000000  0.00000000       0.013
   0.04848398  0.00000000  0.00000000       0.013
   0.00000000  0.02424199  0.00000000       0.013
   0.02424199  0.02424199  0.00000000       0.013
   0.04848398  0.02424199  0.00000000       0.013
  -0.04848398  0.02424199  0.00000000       0.013
  -0.02424199  0.02424199  0.00000000       0.013
   0.00000000  0.04848398  0.00000000       0.013
   0.02424199  0.04848398  0.00000000       0.013
   0.04848398  0.04848398  0.00000000       0.013
  -0.04848398  0.04848398  0.00000000       0.013
  -0.02424199  0.04848398  0.00000000       0.013
   0.00000000  0.00000000  0.02396952       0.013
   0.02424199  0.00000000  0.02396952       0.027
   0.04848398  0.00000000  0.02396952       0.027
   0.00000000  0.02424199  0.02396952       0.027
   0.02424199  0.02424199  0.02396952       0.027
   0.04848398  0.02424199  0.02396952       0.027
  -0.04848398  0.02424199  0.02396952       0.027
  -0.02424199  0.02424199  0.02396952       0.027
   0.00000000  0.04848398  0.02396952       0.027
   0.02424199  0.04848398  0.02396952       0.027
   0.04848398  0.04848398  0.02396952       0.027
  -0.04848398  0.04848398  0.02396952       0.027
  -0.02424199  0.04848398  0.02396952       0.027
   0.00000000  0.00000000  0.04793905       0.013
   0.02424199  0.00000000  0.04793905       0.027
   0.04848398  0.00000000  0.04793905       0.027
   0.00000000  0.02424199  0.04793905       0.027
   0.02424199  0.02424199  0.04793905       0.027
   0.04848398  0.02424199  0.04793905       0.027
  -0.04848398  0.02424199  0.04793905       0.027
  -0.02424199  0.02424199  0.04793905       0.027
   0.00000000  0.04848398  0.04793905       0.027
   0.02424199  0.04848398  0.04793905       0.027
   0.04848398  0.04848398  0.04793905       0.027
  -0.04848398  0.04848398  0.04793905       0.027
  -0.02424199  0.04848398  0.04793905       0.027
   0.00000000  0.00000000  0.07190857       0.007
   0.02424199  0.00000000  0.07190857       0.013
   0.04848398  0.00000000  0.07190857       0.013
   0.00000000  0.02424199  0.07190857       0.013
   0.02424199  0.02424199  0.07190857       0.013
   0.04848398  0.02424199  0.07190857       0.013
  -0.04848398  0.02424199  0.07190857       0.013
  -0.02424199  0.02424199  0.07190857       0.013
   0.00000000  0.04848398  0.07190857       0.013
   0.02424199  0.04848398  0.07190857       0.013
   0.04848398  0.04848398  0.07190857       0.013
  -0.04848398  0.04848398  0.07190857       0.013
  -0.02424199  0.04848398  0.07190857       0.013
 
 k-points in reciprocal lattice and weights: automatic KPOINTS                       
   0.00000000  0.00000000  0.00000000       0.007
   0.20000000  0.00000000  0.00000000       0.013
   0.40000000  0.00000000  0.00000000       0.013
   0.00000000  0.20000000  0.00000000       0.013
   0.20000000  0.20000000  0.00000000       0.013
   0.40000000  0.20000000  0.00000000       0.013
  -0.40000000  0.20000000  0.00000000       0.013
  -0.20000000  0.20000000  0.00000000       0.013
   0.00000000  0.40000000  0.00000000       0.013
   0.20000000  0.40000000  0.00000000       0.013
   0.40000000  0.40000000  0.00000000       0.013
  -0.40000000  0.40000000  0.00000000       0.013
  -0.20000000  0.40000000  0.00000000       0.013
   0.00000000  0.00000000  0.16666667       0.013
   0.20000000  0.00000000  0.16666667       0.027
   0.40000000  0.00000000  0.16666667       0.027
   0.00000000  0.20000000  0.16666667       0.027
   0.20000000  0.20000000  0.16666667       0.027
   0.40000000  0.20000000  0.16666667       0.027
  -0.40000000  0.20000000  0.16666667       0.027
  -0.20000000  0.20000000  0.16666667       0.027
   0.00000000  0.40000000  0.16666667       0.027
   0.20000000  0.40000000  0.16666667       0.027
   0.40000000  0.40000000  0.16666667       0.027
  -0.40000000  0.40000000  0.16666667       0.027
  -0.20000000  0.40000000  0.16666667       0.027
   0.00000000  0.00000000  0.33333333       0.013
   0.20000000  0.00000000  0.33333333       0.027
   0.40000000  0.00000000  0.33333333       0.027
   0.00000000  0.20000000  0.33333333       0.027
   0.20000000  0.20000000  0.33333333       0.027
   0.40000000  0.20000000  0.33333333       0.027
  -0.40000000  0.20000000  0.33333333       0.027
  -0.20000000  0.20000000  0.33333333       0.027
   0.00000000  0.40000000  0.33333333       0.027
   0.20000000  0.40000000  0.33333333       0.027
   0.40000000  0.40000000  0.33333333       0.027
  -0.40000000  0.40000000  0.33333333       0.027
  -0.20000000  0.40000000  0.33333333       0.027
   0.00000000  0.00000000  0.50000000       0.007
   0.20000000  0.00000000  0.50000000       0.013
   0.40000000  0.00000000  0.50000000       0.013
   0.00000000  0.20000000  0.50000000       0.013
   0.20000000  0.20000000  0.50000000       0.013
   0.40000000  0.20000000  0.50000000       0.013
  -0.40000000  0.20000000  0.50000000       0.013
  -0.20000000  0.20000000  0.50000000       0.013
   0.00000000  0.40000000  0.50000000       0.013
   0.20000000  0.40000000  0.50000000       0.013
   0.40000000  0.40000000  0.50000000       0.013
  -0.40000000  0.40000000  0.50000000       0.013
  -0.20000000  0.40000000  0.50000000       0.013
 
 position of ions in fractional coordinates (direct lattice) 
   0.00000000  0.00000000  0.00000000
   0.00000000  0.00000000  0.50000000
   0.00000000  0.33333333  0.00000000
   0.00000000  0.33333333  0.50000000
   0.00000000  0.66666667  0.00000000
   0.00000000  0.66666667  0.50000000
   0.33333333  0.00000000  0.00000000
   0.33333333  0.00000000  0.50000000
   0.33333333  0.33333333  0.00000000
   0.33333333  0.33333333  0.50000000
   0.33333333  0.66666667  0.00000000
   0.33333333  0.66666667  0.50000000
   0.66666667  0.00000000  0.00000000
   0.66666667  0.00000000  0.50000000
   0.66666667  0.33333333  0.00000000
   0.66666667  0.33333333  0.50000000
   0.66666667  0.66666667  0.00000000
   0.66666667  0.66666667  0.50000000
   0.16666667  0.16666667  0.25000000
   0.16666667  0.16666667  0.75000000
   0.16666667  0.50000000  0.25000000
   0.16666667  0.50000000  0.75000000
   0.16666667  0.83333333  0.25000000
   0.16666667  0.83333333  0.75000000
   0.50000000  0.16666667  0.25000000
   0.50000000  0.16666667  0.75000000
   0.50000000  0.50000000  0.25000000
   0.50000000  0.50000000  0.75000000
   0.50000000  0.83333333  0.25000000
   0.50000000  0.83333333  0.75000000
   0.83333333  0.16666667  0.25000000
   0.83333333  0.16666667  0.75000000
   0.83333333  0.50000000  0.25000000
   0.83333333  0.50000000  0.75000000
   0.83333333  0.83333333  0.25000000
   0.83333333  0.83333333  0.75000000
 
 position of ions in cartesian coordinates  (Angst):
   0.00000000  0.00000000  0.00000000
   0.00000000  0.00000000  3.47663713
   0.00000000  2.75004939  0.00000000
   0.00000000  2.75004939  3.47663713
   0.00000000  5.50009878  0.00000000
   0.00000000  5.50009878  3.47663713
   2.75004939  0.00000000  0.00000000
   2.75004939  0.00000000  3.47663713
   2.75004939  2.75004939  0.00000000
   2.75004939  2.75004939  3.47663713
   2.75004939  5.50009878  0.00000000
   2.75004939  5.50009878  3.47663713
   5.50009878  0.00000000  0.00000000
   5.50009878  0.00000000  3.47663713
   5.50009878  2.75004939  0.00000000
   5.50009878  2.75004939  3.47663713
   5.50009878  5.50009878  0.00000000
   5.50009878  5.50009878  3.47663713
   1.37502469  1.37502469  1.73831857
   1.37502469  1.37502469  5.21495570
   1.37502469  4.12507408  1.73831857
   1.37502469  4.12507408  5.21495570
   1.37502469  6.87512347  1.73831857
   1.37502469  6.87512347  5.21495570
   4.12507408  1.37502469  1.73831857
   4.12507408  1.37502469  5.21495570
   4.12507408  4.12507408  1.73831857
   4.12507408  4.12507408  5.21495570
   4.12507408  6.87512347  1.73831857
   4.12507408  6.87512347  5.21495570
   6.87512347  1.37502469  1.73831857
   6.87512347  1.37502469  5.21495570
   6.87512347  4.12507408  1.73831857
   6.87512347  4.12507408  5.21495570
   6.87512347  6.87512347  1.73831857
   6.87512347  6.87512347  5.21495570
 


--------------------------------------------------------------------------------------------------------


 k-point  1 :   0.0000 0.0000 0.0000  plane waves:    8799
 k-point  2 :   0.2000 0.0000 0.0000  plane waves:    8753
 k-point  3 :   0.4000 0.0000 0.0000  plane waves:    8757
 k-point  4 :   0.0000 0.2000 0.0000  plane waves:    8753
 k-point  5 :   0.2000 0.2000 0.0000  plane waves:    8767
 k-point  6 :   0.4000 0.2000 0.0000  plane waves:    8761
 k-point  7 :  -0.4000 0.2000 0.0000  plane waves:    8761
 k-point  8 :  -0.2000 0.2000 0.0000  plane waves:    8767
 k-point  9 :   0.0000 0.4000 0.0000  plane waves:    8757
 k-point 10 :   0.2000 0.4000 0.0000  plane waves:    8761
 k-point 11 :   0.4000 0.4000 0.0000  plane waves:    8731
 k-point 12 :  -0.4000 0.4000 0.0000  plane waves:    8731
 k-point 13 :  -0.2000 0.4000 0.0000  plane waves:    8761
 k-point 14 :   0.0000 0.0000 0.1667  plane waves:    8763
 k-point 15 :   0.2000 0.0000 0.1667  plane waves:    8771
 k-point 16 :   0.4000 0.0000 0.1667  plane waves:    8747
 k-point 17 :   0.0000 0.2000 0.1667  plane waves:    8771
 k-point 18 :   0.2000 0.2000 0.1667  plane waves:    8764
 k-point 19 :   0.4000 0.2000 0.1667  plane waves:    8768
 k-point 20 :  -0.4000 0.2000 0.1667  plane waves:    8768
 k-point 21 :  -0.2000 0.2000 0.1667  plane waves:    8764
 k-point 22 :   0.0000 0.4000 0.1667  plane waves:    8747
 k-point 23 :   0.2000 0.4000 0.1667  plane waves:    8768
 k-point 24 :   0.4000 0.4000 0.1667  plane waves:    8740
 k-point 25 :  -0.4000 0.4000 0.1667  plane waves:    8740
 k-point 26 :  -0.2000 0.4000 0.1667  plane waves:    8768
 k-point 27 :   0.0000 0.0000 0.3333  plane waves:    8743
 k-point 28 :   0.2000 0.0000 0.3333  plane waves:    8736
 k-point 29 :   0.4000 0.0000 0.3333  plane waves:    8753
 k-point 30 :   0.0000 0.2000 0.3333  plane waves:    8736
 k-point 31 :   0.2000 0.2000 0.3333  plane waves:    8753
 k-point 32 :   0.4000 0.2000 0.3333  plane waves:    8743
 k-point 33 :  -0.4000 0.2000 0.3333  plane waves:    8743
 k-point 34 :  -0.2000 0.2000 0.3333  plane waves:    8753
 k-point 35 :   0.0000 0.4000 0.3333  plane waves:    8753
 k-point 36 :   0.2000 0.4000 0.3333  plane waves:    8743
 k-point 37 :   0.4000 0.4000 0.3333  plane waves:    8755
 k-point 38 :  -0.4000 0.4000 0.3333  plane waves:    8755
 k-point 39 :  -0.2000 0.4000 0.3333  plane waves:    8743
 k-point 40 :   0.0000 0.0000 0.5000  plane waves:    8742
 k-point 41 :   0.2000 0.0000 0.5000  plane waves:    8756
 k-point 42 :   0.4000 0.0000 0.5000  plane waves:    8744
 k-point 43 :   0.0000 0.2000 0.5000  plane waves:    8756
 k-point 44 :   0.2000 0.2000 0.5000  plane waves:    8762
 k-point 45 :   0.4000 0.2000 0.5000  plane waves:    8732
 k-point 46 :  -0.4000 0.2000 0.5000  plane waves:    8732
 k-point 47 :  -0.2000 0.2000 0.5000  plane waves:    8762
 k-point 48 :   0.0000 0.4000 0.5000  plane waves:    8744
 k-point 49 :   0.2000 0.4000 0.5000  plane waves:    8732
 k-point 50 :   0.4000 0.4000 0.5000  plane waves:    8736
 k-point 51 :  -0.4000 0.4000 0.5000  plane waves:    8736
 k-point 52 :  -0.2000 0.4000 0.5000  plane waves:    8732

 maximum and minimum number of plane-waves per node :      2210     2164

 maximum number of plane-waves:      8799
 maximum index in each direction: 
   IXMAX=   13   IYMAX=   13   IZMAX=   11
   IXMIN=  -13   IYMIN=  -13   IZMIN=  -11


 parallel 3D FFT for wavefunctions:
    minimum data exchange during FFTs selected (reduces bandwidth)
 parallel 3D FFT for charge:
    minimum data exchange during FFTs selected (reduces bandwidth)


 total amount of memory used by VASP MPI-rank0   809947. kBytes
=======================================================================

   base      :      30000. kBytes
   nonl-proj :      34307. kBytes
   fftplans  :      21726. kBytes
   grid      :      14732. kBytes
   one-center:        279. kBytes
   wavefun   :     708903. kBytes
 
     INWAV:  cpu time    0.0001: real time    0.0001
 Broyden mixing: mesh for mixing (old mesh)
   NGX = 27   NGY = 27   NGZ = 23
  (NGX  =108   NGY  =108   NGZ  = 96)
  gives a total of  16767 points

 initial charge density was supplied:
 charge density of overlapping atoms calculated
 number of electron     180.0000000 magnetization      24.0000000
 keeping initial charge density in first step


--------------------------------------------------------------------------------------------------------


 Maximum index for augmentation-charges        11261 (set IRDMAX)


--------------------------------------------------------------------------------------------------------


 First call to EWALD:  gamma=   0.227
 Maximum number of real-space cells 3x 3x 3
 Maximum number of reciprocal cells 3x 3x 3

    FEWALD:  cpu time    0.2134: real time    0.2134


--------------------------------------- Iteration      1(   1)  ---------------------------------------


    POTLOK:  cpu time    0.2510: real time    0.2544
    SETDIJ:  cpu time    0.3208: real time    0.3208
    TRIAL :  cpu time   20.2441: real time   20.4668
    CORREC:  cpu time    0.0072: real time    0.0081
    --------------------------------------------
      LOOP:  cpu time   20.8805: real time   21.9696

 eigenvalue-minimisations  : 25376
 total energy-change (2. order) : 0.1330427E+04  (-0.6008552E+04)
 number of electron     180.0000000 magnetization      24.0000000
 augmentation part      180.0000000 magnetization      24.0000000

 Free energy of the ion-electron system (eV)
  ---------------------------------------------------
  alpha Z        PSCENC =       532.25742704
  Ewald energy   TEWEN  =     -8601.05107233
  -Hartree energ DENC   =     -1903.73857242
  -exchange      EXHF   =         0.00000000
  -V(xc)+E(xc)   XCENC  =      -664.40717971
  PAW double counting   =      8494.55058411    -7650.81563588
  entropy T*S    EENTRO =        -0.00557213
  eigenvalues    EBANDS =      2658.52105266
  atomic energy  EATOM  =      8465.11600846
  ---------------------------------------------------
  free energy    TOTEN  =      1330.42703981 eV

  energy without entropy =     1330.43261193  energy(sigma->0) =     1330.42889718


--------------------------------------------------------------------------------------------------------




--------------------------------------- Iteration      1(   2)  ---------------------------------------


    TRIAL :  cpu time   20.3093: real time   20.5202
    CORREC:  cpu time    0.0088: real time    0.0090
    --------------------------------------------
      LOOP:  cpu time   20.3191: real time   20.5323

 eigenvalue-minimisations  : 25376
 total energy-change (2. order) :-0.1415258E+04  (-0.1365997E+04)
 number of electron     180.0000000 magnetization      24.0000000
 augmentation part      180.0000000 magnetization      24.0000000

 Free energy of the ion-electron system (eV)
  ---------------------------------------------------
  alpha Z        PSCENC =       532.25742704
  Ewald energy   TEWEN  =     -8601.05107233
  -Hartree energ DENC   =     -1903.73857242
  -exchange      EXHF   =         0.00000000
  -V(xc)+E(xc)   XCENC  =      -664.40717971
  PAW double counting   =      8494.55058411    -7650.81563588
  entropy T*S    EENTRO =         0.00186623
  eigenvalues    EBANDS =      1243.25519192
  atomic energy  EATOM  =      8465.11600846
  ---------------------------------------------------
  free energy    TOTEN  =       -84.83138257 eV

  energy without entropy =      -84.83324880  energy(sigma->0) =      -84.83200465


--------------------------------------------------------------------------------------------------------




--------------------------------------- Iteration      1(   3)  ---------------------------------------


    TRIAL :  cpu time   27.8290: real time   28.7110
    CORREC:  cpu time    0.0100: real time    0.0109
    --------------------------------------------
      LOOP:  cpu time   27.8407: real time   28.7259

 eigenvalue-minimisations  : 38058
 total energy-change (2. order) :-0.1595136E+03  (-0.1382738E+03)
 number of electron     180.0000000 magnetization      24.0000000
 augmentation part      180.0000000 magnetization      24.0000000

 Free energy of the ion-electron system (eV)
  ---------------------------------------------------
  alpha Z        PSCENC =       532.25742704
  Ewald energy   TEWEN  =     -8601.05107233
  -Hartree energ DENC   =     -1903.73857242
  -exchange      EXHF   =         0.00000000
  -V(xc)+E(xc)   XCENC  =      -664.40717971
  PAW double counting   =      8494.55058411    -7650.81563588
  entropy T*S    EENTRO =         0.01140338
  eigenvalues    EBANDS =      1083.73202532
  atomic energy  EATOM  =      8465.11600846
  ---------------------------------------------------
  free energy    TOTEN  =      -244.34501202 eV

  energy without entropy =     -244.35641540  energy(sigma->0) =     -244.34881315


--------------------------------------------------------------------------------------------------------




--------------------------------------- Iteration      1(   4)  ---------------------------------------


    TRIAL :  cpu time   29.3776: real time   29.6560
    CORREC:  cpu time    0.0103: real time    0.0104
    --------------------------------------------
      LOOP:  cpu time   29.3892: real time   29.6698

 eigenvalue-minimisations  : 40936
 total energy-change (2. order) :-0.2282886E+02  (-0.1984162E+02)
 number of electron     180.0000000 magnetization      24.0000000
 augmentation part      180.0000000 magnetization      24.0000000

 Free energy of the ion-electron system (eV)
  ---------------------------------------------------
  alpha Z        PSCENC =       532.25742704
  Ewald energy   TEWEN  =     -8601.05107233
  -Hartree energ DENC   =     -1903.73857242
  -exchange      EXHF   =         0.00000000
  -V(xc)+E(xc)   XCENC  =      -664.40717971
  PAW double counting   =      8494.55058411    -7650.81563588
  entropy T*S    EENTRO =         0.03307494
  eigenvalues    EBANDS =      1060.88148898
  atomic energy  EATOM  =      8465.11600846
  ---------------------------------------------------
  free energy    TOTEN  =      -267.17387681 eV

  energy without entropy =     -267.20695174  energy(sigma->0) =     -267.18490179


--------------------------------------------------------------------------------------------------------




--------------------------------------- Iteration      1(   5)  ---------------------------------------


    TRIAL :  cpu time   29.5943: real time   30.4469
    CORREC:  cpu time    0.0105: real time    0.0113
    --------------------------------------------
      LOOP:  cpu time   29.6056: real time   30.4617

 eigenvalue-minimisations  : 41120
 total energy-change (2. order) :-0.1890749E+01  (-0.1810125E+01)
 number of electron     180.0000000 magnetization      24.0000000
 augmentation part      180.0000000 magnetization      24.0000000

 Free energy of the ion-electron system (eV)
  ---------------------------------------------------
  alpha Z        PSCENC =       532.25742704
  Ewald energy   TEWEN  =     -8601.05107233
  -Hartree energ DENC   =     -1903.73857242
  -exchange      EXHF   =         0.00000000
  -V(xc)+E(xc)   XCENC  =      -664.40717971
  PAW double counting   =      8494.55058411    -7650.81563588
  entropy T*S    EENTRO =         0.03668230
  eigenvalues    EBANDS =      1058.98713293
  atomic energy  EATOM  =      8465.11600846
  ---------------------------------------------------
  free energy    TOTEN  =      -269.06462550 eV

  energy without entropy =     -269.10130780  energy(sigma->0) =     -269.07685293


--------------------------------------------------------------------------------------------------------




--------------------------------------- Iteration      1(   6)  ---------------------------------------


    TRIAL :  cpu time   29.6238: real time   29.9119
    CORREC:  cpu time    0.0104: real time    0.0105
    --------------------------------------------
      LOOP:  cpu time   29.6365: real time   29.9261

 eigenvalue-minimisations  : 41184
 total energy-change (2. order) :-0.1371385E+00  (-0.1352094E+00)
 number of electron     180.0000000 magnetization      24.0000000
 augmentation part      180.0000000 magnetization      24.0000000

 Free energy of the ion-electron system (eV)
  ---------------------------------------------------
  alpha Z        PSCENC =       532.25742704
  Ewald energy   TEWEN  =     -8601.05107233
  -Hartree energ DENC   =     -1903.73857242
  -exchange      EXHF   =         0.00000000
  -V(xc)+E(xc)   XCENC  =      -664.40717971
  PAW double counting   =      8494.55058411    -7650.81563588
  entropy T*S    EENTRO =         0.03679824
  eigenvalues    EBANDS =      1058.84987850
  atomic energy  EATOM  =      8465.11600846
  ---------------------------------------------------
  free energy    TOTEN  =      -269.20176398 eV

  energy without entropy =     -269.23856223  energy(sigma->0) =     -269.21403007


--------------------------------------------------------------------------------------------------------




--------------------------------------- Iteration      1(   7)  ---------------------------------------


    TRIAL :  cpu time   30.0439: real time   30.9137
    CORREC:  cpu time    0.0105: real time    0.0113
    --------------------------------------------
      LOOP:  cpu time   30.0566: real time   30.9298

 eigenvalue-minimisations  : 41848
 total energy-change (2. order) :-0.1379196E-01  (-0.1370529E-01)
 number of electron     180.0000000 magnetization      24.0000000
 augmentation part      180.0000000 magnetization      24.0000000

 Free energy of the ion-electron system (eV)
  ---------------------------------------------------
  alpha Z        PSCENC =       532.25742704
  Ewald energy   TEWEN  =     -8601.05107233
  -Hartree energ DENC   =     -1903.73857242
  -exchange      EXHF   =         0.00000000
  -V(xc)+E(xc)   XCENC  =      -664.40717971
  PAW double counting   =      8494.55058411    -7650.81563588
  entropy T*S    EENTRO =         0.03677944
  eigenvalues    EBANDS =      1058.83610534
  atomic energy  EATOM  =      8465.11600846
  ---------------------------------------------------
  free energy    TOTEN  =      -269.21555595 eV

  energy without entropy =     -269.25233539  energy(sigma->0) =     -269.22781576


--------------------------------------------------------------------------------------------------------




--------------------------------------- Iteration      1(   8)  ---------------------------------------


    TRIAL :  cpu time   29.2435: real time   29.4731
    CORREC:  cpu time    0.0105: real time    0.0107
    CHARGE:  cpu time    1.1648: real time    1.1647
    --------------------------------------------
      LOOP:  cpu time   30.4199: real time   30.6520

 eigenvalue-minimisations  : 40520
 total energy-change (2. order) :-0.1077766E-02  (-0.1073928E-02)
 number of electron     179.9999997 magnetization      17.2796328
 augmentation part       42.7273841 magnetization      10.0144196

 Free energy of the ion-electron system (eV)
  ---------------------------------------------------
  alpha Z        PSCENC =       532.25742704
  Ewald energy   TEWEN  =     -8601.05107233
  -Hartree energ DENC   =     -1903.73857242
  -exchange      EXHF   =         0.00000000
  -V(xc)+E(xc)   XCENC  =      -664.40717971
  PAW double counting   =      8494.55058411    -7650.81563588
  entropy T*S    EENTRO =         0.03678328
  eigenvalues    EBANDS =      1058.83502373
  atomic energy  EATOM  =      8465.11600846
  ---------------------------------------------------
  free energy    TOTEN  =      -269.21663372 eV

  energy without entropy =     -269.25341699  energy(sigma->0) =     -269.22889481


--------------------------------------------------------------------------------------------------------




--------------------------------------- Iteration      1(   9)  ---------------------------------------


    POTLOK:  cpu time    0.2523: real time    0.2523
    SETDIJ:  cpu time    0.3709: real time    0.3708
    TRIAL :  cpu time   10.9303: real time   10.9466
    CORREC:  cpu time    3.6926: real time    3.7053
    CHARGE:  cpu time    1.1491: real time    1.1621
    --------------------------------------------
      LOOP:  cpu time   16.3987: real time   16.4420

 eigenvalue-minimisations  :     0
 total energy-change (2. order) : 0.2018311E+03  (-0.1461433E+03)
 number of electron     179.9999997 magnetization      18.0469916
 augmentation part       55.1295711 magnetization      11.8380552

 Free energy of the ion-electron system (eV)
  ---------------------------------------------------
  alpha Z        PSCENC =       532.25742704
  Ewald energy   TEWEN  =     -8601.05107233
  -Hartree energ DENC   =      -845.88334253
  -exchange      EXHF   =         0.00000000
  -V(xc)+E(xc)   XCENC  =      -694.58888181
  PAW double counting   =     12773.61884579   -11827.28907091
  entropy T*S    EENTRO =         0.02777579
  eigenvalues    EBANDS =       130.39776099
  atomic energy  EATOM  =      8465.11600846
  ---------------------------------------------------
  free energy    TOTEN  =       -67.38554201 eV

  energy without entropy =      -67.41331781  energy(sigma->0) =      -67.39480061


--------------------------------------------------------------------------------------------------------




--------------------------------------- Iteration      1(  10)  ---------------------------------------


    POTLOK:  cpu time    0.2559: real time    0.2695
    SETDIJ:  cpu time    0.3226: real time    1.0485
    TRIAL :  cpu time   10.0977: real time   10.1991
    CORREC:  cpu time    3.7083: real time    3.7642
    CHARGE:  cpu time    1.1580: real time    1.1580
    --------------------------------------------
      LOOP:  cpu time   15.5437: real time   16.4413

 eigenvalue-minimisations  :     0
 total energy-change (2. order) :-0.1440985E+03  (-0.8662663E+01)
 number of electron     179.9999996 magnetization      18.0557566
 augmentation part       58.0267685 magnetization      12.3175857

 Free energy of the ion-electron system (eV)
  ---------------------------------------------------
  alpha Z        PSCENC =       532.25742704
  Ewald energy   TEWEN  =     -8601.05107233
  -Hartree energ DENC   =     -1411.51887296
  -exchange      EXHF   =         0.00000000
  -V(xc)+E(xc)   XCENC  =      -674.82926390
  PAW double counting   =     13842.62507477   -13019.72342688
  entropy T*S    EENTRO =         0.01598462
  eigenvalues    EBANDS =       655.61235131
  atomic energy  EATOM  =      8465.11600846
  ---------------------------------------------------
  free energy    TOTEN  =      -211.48399871 eV

  energy without entropy =     -211.49998333  energy(sigma->0) =     -211.48932691


--------------------------------------------------------------------------------------------------------




--------------------------------------- Iteration      1(  11)  ---------------------------------------


    POTLOK:  cpu time    0.2485: real time    0.2485
    SETDIJ:  cpu time    0.3217: real time    0.3219
    TRIAL :  cpu time   10.1024: real time   10.1474
    CORREC:  cpu time    3.6876: real time    3.7414
    CHARGE:  cpu time    1.1561: real time    1.1593
    --------------------------------------------
      LOOP:  cpu time   15.5191: real time   15.6238

 eigenvalue-minimisations  :     0
 total energy-change (2. order) :-0.8647351E+01  (-0.9339862E+01)
 number of electron     179.9999996 magnetization      18.4068649
 augmentation part       59.1987624 magnetization      12.7362685

 Free energy of the ion-electron system (eV)
  ---------------------------------------------------
  alpha Z        PSCENC =       532.25742704
  Ewald energy   TEWEN  =     -8601.05107233
  -Hartree energ DENC   =     -1588.13978770
  -exchange      EXHF   =         0.00000000
  -V(xc)+E(xc)   XCENC  =      -668.68624529
  PAW double counting   =     14490.69905473   -13695.68350911
  entropy T*S    EENTRO =         0.00343201
  eigenvalues    EBANDS =       845.34078983
  atomic energy  EATOM  =      8465.11600846
  ---------------------------------------------------
  free energy    TOTEN  =      -220.13134975 eV

  energy without entropy =     -220.13478176  energy(sigma->0) =     -220.13249375


--------------------------------------------------------------------------------------------------------




--------------------------------------- Iteration      1(  12)  ---------------------------------------


    POTLOK:  cpu time    0.2478: real time    0.2478
    SETDIJ:  cpu time    0.3217: real time    0.3218
    TRIAL :  cpu time   10.1444: real time   10.2356
    CORREC:  cpu time    3.7351: real time    3.7360
    CHARGE:  cpu time    1.1284: real time    1.1430
    --------------------------------------------
      LOOP:  cpu time   15.5911: real time   15.6983

 eigenvalue-minimisations  :     0
 total energy-change (2. order) :-0.9347291E+01  (-0.4790878E+01)
 number of electron     179.9999997 magnetization      18.2428155
 augmentation part       58.0131307 magnetization      12.6738389

 Free energy of the ion-electron system (eV)
  ---------------------------------------------------
  alpha Z        PSCENC =       532.25742704
  Ewald energy   TEWEN  =     -8601.05107233
  -Hartree energ DENC   =     -1719.32542657
  -exchange      EXHF   =         0.00000000
  -V(xc)+E(xc)   XCENC  =      -664.56511447
  PAW double counting   =     14404.94638930   -13606.00349611
  entropy T*S    EENTRO =         0.00483960
  eigenvalues    EBANDS =       959.14321148
  atomic energy  EATOM  =      8465.11600846
  ---------------------------------------------------
  free energy    TOTEN  =      -229.47864120 eV

  energy without entropy =     -229.48348079  energy(sigma->0) =     -229.48025439


--------------------------------------------------------------------------------------------------------




--------------------------------------- Iteration      1(  13)  ---------------------------------------


    POTLOK:  cpu time    0.2491: real time    0.2491
    SETDIJ:  cpu time    0.3451: real time    0.3451
    TRIAL :  cpu time   10.9220: real time   10.9330
    CORREC:  cpu time    3.6944: real time    4.5429
    CHARGE:  cpu time    1.1591: real time    1.1596
    --------------------------------------------
      LOOP:  cpu time   16.3724: real time   17.2331

 eigenvalue-minimisations  :     0
 total energy-change (2. order) :-0.4692218E+01  (-0.7139632E+00)
 number of electron     179.9999997 magnetization      18.1909994
 augmentation part       57.4080168 magnetization      12.5657535

 Free energy of the ion-electron system (eV)
  ---------------------------------------------------
  alpha Z        PSCENC =       532.25742704
  Ewald energy   TEWEN  =     -8601.05107233
  -Hartree energ DENC   =     -1693.53058485
  -exchange      EXHF   =         0.00000000
  -V(xc)+E(xc)   XCENC  =      -665.90358052
  PAW double counting   =     14093.63944166   -13269.26730196
  entropy T*S    EENTRO =         0.00412868
  eigenvalues    EBANDS =       904.56396417
  atomic energy  EATOM  =      8465.11600846
  ---------------------------------------------------
  free energy    TOTEN  =      -234.17085874 eV

  energy without entropy =     -234.17498742  energy(sigma->0) =     -234.17223497


--------------------------------------------------------------------------------------------------------




--------------------------------------- Iteration      1(  14)  ---------------------------------------


    POTLOK:  cpu time    0.2480: real time    0.2480
    SETDIJ:  cpu time    0.3300: real time    0.3360
    TRIAL :  cpu time   10.0660: real time   10.2189
    CORREC:  cpu time    3.6409: real time    3.6815
    CHARGE:  cpu time    1.1417: real time    1.1416
    --------------------------------------------
      LOOP:  cpu time   15.4291: real time   15.6293

 eigenvalue-minimisations  :     0
 total energy-change (2. order) :-0.7057597E+00  (-0.7277773E+00)
 number of electron     179.9999997 magnetization      18.1055096
 augmentation part       57.2680452 magnetization      12.4096903

 Free energy of the ion-electron system (eV)
  ---------------------------------------------------
  alpha Z        PSCENC =       532.25742704
  Ewald energy   TEWEN  =     -8601.05107233
  -Hartree energ DENC   =     -1660.56160282
  -exchange      EXHF   =         0.00000000
  -V(xc)+E(xc)   XCENC  =      -667.09237073
  PAW double counting   =     13823.94059624   -12990.28885497
  entropy T*S    EENTRO =         0.00456964
  eigenvalues    EBANDS =       862.79912200
  atomic energy  EATOM  =      8465.11600846
  ---------------------------------------------------
  free energy    TOTEN  =      -234.87661844 eV

  energy without entropy =     -234.88118808  energy(sigma->0) =     -234.87814166


--------------------------------------------------------------------------------------------------------




--------------------------------------- Iteration      1(  15)  ---------------------------------------


    POTLOK:  cpu time    0.2478: real time    0.2478
    SETDIJ:  cpu time    0.3218: real time    0.3218
    TRIAL :  cpu time   10.0883: real time   10.2087
    CORREC:  cpu time    3.7058: real time    3.7201
    CHARGE:  cpu time    1.1578: real time    1.1577
    --------------------------------------------
      LOOP:  cpu time   15.5314: real time   15.6669

 eigenvalue-minimisations  :     0
 total energy-change (2. order) :-0.7262612E+00  (-0.4897317E+00)
 number of electron     179.9999996 magnetization      18.0289590
 augmentation part       57.7848001 magnetization      12.3713328

 Free energy of the ion-electron system (eV)
  ---------------------------------------------------
  alpha Z        PSCENC =       532.25742704
  Ewald energy   TEWEN  =     -8601.05107233
  -Hartree energ DENC   =     -1642.47150799
  -exchange      EXHF   =         0.00000000
  -V(xc)+E(xc)   XCENC  =      -667.59754549
  PAW double counting   =     13363.05076882   -12524.92193411
  entropy T*S    EENTRO =         0.00444585
  eigenvalues    EBANDS =       840.01040631
  atomic energy  EATOM  =      8465.11600846
  ---------------------------------------------------
  free energy    TOTEN  =      -235.60287966 eV

  energy without entropy =     -235.60732551  energy(sigma->0) =     -235.60436161


--------------------------------------------------------------------------------------------------------




--------------------------------------- Iteration      1(  16)  ---------------------------------------


    POTLOK:  cpu time    0.2481: real time    0.2481
    SETDIJ:  cpu time    0.3418: real time    0.3418
    TRIAL :  cpu time   10.1103: real time   10.2193
    CORREC:  cpu time    3.7432: real time    3.7440
    CHARGE:  cpu time    1.1445: real time    1.1446
    --------------------------------------------
      LOOP:  cpu time   15.5935: real time   15.7053

 eigenvalue-minimisations  :     0
 total energy-change (2. order) :-0.4890939E+00  (-0.1470388E+00)
 number of electron     179.9999996 magnetization      17.9579409
 augmentation part       58.1136343 magnetization      12.4006845

 Free energy of the ion-electron system (eV)
  ---------------------------------------------------
  alpha Z        PSCENC =       532.25742704
  Ewald energy   TEWEN  =     -8601.05107233
  -Hartree energ DENC   =     -1659.64524512
  -exchange      EXHF   =         0.00000000
  -V(xc)+E(xc)   XCENC  =      -666.80873077
  PAW double counting   =     13093.31848926   -12259.20840344
  entropy T*S    EENTRO =         0.00436910
  eigenvalues    EBANDS =       859.92510752
  atomic energy  EATOM  =      8465.11600846
  ---------------------------------------------------
  free energy    TOTEN  =      -236.09197353 eV

  energy without entropy =     -236.09634262  energy(sigma->0) =     -236.09342989


--------------------------------------------------------------------------------------------------------




--------------------------------------- Iteration      1(  17)  ---------------------------------------


    POTLOK:  cpu time    0.2642: real time    0.2642
    SETDIJ:  cpu time    0.3563: real time    0.3563
    TRIAL :  cpu time   10.0671: real time   10.8075
    CORREC:  cpu time    3.6954: real time    3.7857
    CHARGE:  cpu time    1.1395: real time    1.1394
    --------------------------------------------
      LOOP:  cpu time   16.4519: real time   17.2826

 eigenvalue-minimisations  :     0
 total energy-change (2. order) :-0.1472346E+00  (-0.1695087E+00)
 number of electron     179.9999996 magnetization      17.8686624
 augmentation part       58.2142501 magnetization      12.4733723

 Free energy of the ion-electron system (eV)
  ---------------------------------------------------
  alpha Z        PSCENC =       532.25742704
  Ewald energy   TEWEN  =     -8601.05107233
  -Hartree energ DENC   =     -1673.92319084
  -exchange      EXHF   =         0.00000000
  -V(xc)+E(xc)   XCENC  =      -666.17167288
  PAW double counting   =     13042.01245459   -12211.32367184
  entropy T*S    EENTRO =         0.00491921
  eigenvalues    EBANDS =       876.84014054
  atomic energy  EATOM  =      8465.11600846
  ---------------------------------------------------
  free energy    TOTEN  =      -236.23920817 eV

  energy without entropy =     -236.24412738  energy(sigma->0) =     -236.24084790


--------------------------------------------------------------------------------------------------------




--------------------------------------- Iteration      1(  18)  ---------------------------------------


    POTLOK:  cpu time    0.2504: real time    0.2504
    SETDIJ:  cpu time    0.3187: real time    0.3188
    TRIAL :  cpu time   10.0381: real time   10.1358
    CORREC:  cpu time    3.6923: real time    3.6963
    CHARGE:  cpu time    1.1415: real time    1.1414
    --------------------------------------------
      LOOP:  cpu time   15.4697: real time   15.5715

 eigenvalue-minimisations  :     0
 total energy-change (2. order) :-0.1695382E+00  (-0.6631825E-01)
 number of electron     179.9999996 magnetization      17.8216927
 augmentation part       58.0445346 magnetization      12.4883504

 Free energy of the ion-electron system (eV)
  ---------------------------------------------------
  alpha Z        PSCENC =       532.25742704
  Ewald energy   TEWEN  =     -8601.05107233
  -Hartree energ DENC   =     -1676.84596345
  -exchange      EXHF   =         0.00000000
  -V(xc)+E(xc)   XCENC  =      -665.81499816
  PAW double counting   =     13006.03797898   -12176.60169859
  entropy T*S    EENTRO =         0.00526279
  eigenvalues    EBANDS =       880.48865244
  atomic energy  EATOM  =      8465.11600846
  ---------------------------------------------------
  free energy    TOTEN  =      -236.40874641 eV

  energy without entropy =     -236.41400920  energy(sigma->0) =     -236.41050067


--------------------------------------------------------------------------------------------------------




--------------------------------------- Iteration      1(  19)  ---------------------------------------


    POTLOK:  cpu time    0.2484: real time    0.2484
    SETDIJ:  cpu time    0.3413: real time    0.3413
    TRIAL :  cpu time   10.1137: real time   10.1827
    CORREC:  cpu time    3.6855: real time    3.8025
    CHARGE:  cpu time    1.1614: real time    1.1614
    --------------------------------------------
      LOOP:  cpu time   15.5527: real time   15.7394

 eigenvalue-minimisations  :     0
 total energy-change (2. order) :-0.6591479E-01  (-0.3044988E-01)
 number of electron     179.9999996 magnetization      17.7852780
 augmentation part       57.9033651 magnetization      12.4871881

 Free energy of the ion-electron system (eV)
  ---------------------------------------------------
  alpha Z        PSCENC =       532.25742704
  Ewald energy   TEWEN  =     -8601.05107233
  -Hartree energ DENC   =     -1667.70169422
  -exchange      EXHF   =         0.00000000
  -V(xc)+E(xc)   XCENC  =      -666.03064204
  PAW double counting   =     12988.85905754   -12157.68751445
  entropy T*S    EENTRO =         0.00545482
  eigenvalues    EBANDS =       869.75850603
  atomic energy  EATOM  =      8465.11600846
  ---------------------------------------------------
  free energy    TOTEN  =      -236.47466120 eV

  energy without entropy =     -236.48011602  energy(sigma->0) =     -236.47647947


--------------------------------------------------------------------------------------------------------




--------------------------------------- Iteration      1(  20)  ---------------------------------------


    POTLOK:  cpu time    0.2494: real time    0.2494
    SETDIJ:  cpu time    0.3211: real time    0.3211
    TRIAL :  cpu time   10.1821: real time   10.2120
    CORREC:  cpu time    4.3523: real time    4.3532
    CHARGE:  cpu time    1.1466: real time    1.1469
    --------------------------------------------
      LOOP:  cpu time   16.2545: real time   16.2861

 eigenvalue-minimisations  :     0
 total energy-change (2. order) :-0.3034602E-01  (-0.4105403E-01)
 number of electron     179.9999996 magnetization      17.7069723
 augmentation part       57.8561375 magnetization      12.4803814

 Free energy of the ion-electron system (eV)
  ---------------------------------------------------
  alpha Z        PSCENC =       532.25742704
  Ewald energy   TEWEN  =     -8601.05107233
  -Hartree energ DENC   =     -1660.99403905
  -exchange      EXHF   =         0.00000000
  -V(xc)+E(xc)   XCENC  =      -666.20722022
  PAW double counting   =     12981.53779707   -12148.98108695
  entropy T*S    EENTRO =         0.00635232
  eigenvalues    EBANDS =       861.81172394
  atomic energy  EATOM  =      8465.11600846
  ---------------------------------------------------
  free energy    TOTEN  =      -236.50500721 eV

  energy without entropy =     -236.51135953  energy(sigma->0) =     -236.50712465


--------------------------------------------------------------------------------------------------------




--------------------------------------- Iteration      1(  21)  ---------------------------------------


    POTLOK:  cpu time    0.2493: real time    0.2492
    SETDIJ:  cpu time    0.3021: real time    0.3271
    TRIAL :  cpu time   10.0508: real time   10.8593
    CORREC:  cpu time    3.6706: real time    3.6866
    CHARGE:  cpu time    1.1565: real time    1.1565
    --------------------------------------------
      LOOP:  cpu time   15.4314: real time   16.2814

 eigenvalue-minimisations  :     0
 total energy-change (2. order) :-0.4107550E-01  (-0.1890255E-01)
 number of electron     179.9999996 magnetization      17.6820643
 augmentation part       57.9214715 magnetization      12.4845671

 Free energy of the ion-electron system (eV)
  ---------------------------------------------------
  alpha Z        PSCENC =       532.25742704
  Ewald energy   TEWEN  =     -8601.05107233
  -Hartree energ DENC   =     -1660.73637205
  -exchange      EXHF   =         0.00000000
  -V(xc)+E(xc)   XCENC  =      -666.10786900
  PAW double counting   =     12991.07622698   -12158.42185047
  entropy T*S    EENTRO =         0.00647851
  eigenvalues    EBANDS =       861.31506635
  atomic energy  EATOM  =      8465.11600846
  ---------------------------------------------------
  free energy    TOTEN  =      -236.54608271 eV

  energy without entropy =     -236.55256123  energy(sigma->0) =     -236.54824222


--------------------------------------------------------------------------------------------------------




--------------------------------------- Iteration      1(  22)  ---------------------------------------


    POTLOK:  cpu time    0.2516: real time    0.2601
    SETDIJ:  cpu time    0.3620: real time    0.3619
    TRIAL :  cpu time   10.0704: real time   10.1610
    CORREC:  cpu time    3.6961: real time    3.7051
    CHARGE:  cpu time    1.1348: real time    1.1627
    --------------------------------------------
      LOOP:  cpu time   15.5222: real time   15.6587

 eigenvalue-minimisations  :     0
 total energy-change (2. order) :-0.1888140E-01  (-0.7504100E-02)
 number of electron     179.9999996 magnetization      17.6515334
 augmentation part       57.9763941 magnetization      12.4757495

 Free energy of the ion-electron system (eV)
  ---------------------------------------------------
  alpha Z        PSCENC =       532.25742704
  Ewald energy   TEWEN  =     -8601.05107233
  -Hartree energ DENC   =     -1665.32483988
  -exchange      EXHF   =         0.00000000
  -V(xc)+E(xc)   XCENC  =      -665.89056715
  PAW double counting   =     13003.65799457   -12171.94677957
  entropy T*S    EENTRO =         0.00682911
  eigenvalues    EBANDS =       866.61038624
  atomic energy  EATOM  =      8465.11600846
  ---------------------------------------------------
  free energy    TOTEN  =      -236.56496411 eV

  energy without entropy =     -236.57179322  energy(sigma->0) =     -236.56724048


--------------------------------------------------------------------------------------------------------




--------------------------------------- Iteration      1(  23)  ---------------------------------------


    POTLOK:  cpu time    0.2484: real time    0.2485
    SETDIJ:  cpu time    0.3329: real time    0.3329
    TRIAL :  cpu time   10.1669: real time   10.2655
    CORREC:  cpu time    3.6616: real time    3.6745
    CHARGE:  cpu time    1.1844: real time    1.1843
    --------------------------------------------
[...]
  8.441  14.384   0.000  -0.000   0.000   0.000  -0.000   0.000
 14.384  24.513   0.000  -0.000   0.000   0.000  -0.000   0.001
  0.000   0.000   1.996   0.000   0.000   5.750   0.000   0.000
 -0.000  -0.000   0.000   1.996  -0.000   0.000   5.749  -0.000
  0.000   0.000   0.000  -0.000   1.996   0.000  -0.000   5.750
  0.000   0.000   5.750   0.000   0.000  16.479   0.000   0.000
 -0.000  -0.000   0.000   5.749  -0.000   0.000  16.475  -0.000
  0.000   0.001   0.000  -0.000   5.750   0.000  -0.000  16.479
 total augmentation occupancy for first ion, spin component:           1
  4.365  -1.244   0.002  -0.000  -0.002  -0.000   0.000   0.000
 -1.244   0.374  -0.001   0.001   0.000   0.000  -0.000  -0.000
  0.002  -0.001   1.414  -0.008   0.000  -0.101   0.000   0.000
 -0.000   0.001  -0.008   1.509   0.005   0.000  -0.102  -0.000
 -0.002   0.000   0.000   0.005   1.394   0.000  -0.000  -0.100
 -0.000   0.000  -0.101   0.000   0.000   0.008  -0.000  -0.000
  0.000  -0.000   0.000  -0.102  -0.000  -0.000   0.007  -0.000
  0.000  -0.000   0.000  -0.000  -0.100  -0.000  -0.000   0.007
 total augmentation occupancy for first ion, spin component:           2
 -0.166   0.051   0.020   0.023  -0.019  -0.001  -0.001   0.001
  0.051  -0.016   0.003   0.005  -0.003  -0.000  -0.001   0.000
  0.020   0.003  -0.068   0.027  -0.014   0.004  -0.001   0.000
  0.023   0.005   0.027  -0.112  -0.024  -0.001   0.005   0.000
 -0.019  -0.003  -0.014  -0.024  -0.054   0.000   0.000   0.004
 -0.001  -0.000   0.004  -0.001   0.000  -0.000  -0.000   0.000
 -0.001  -0.001  -0.001   0.005   0.000  -0.000  -0.000   0.000
  0.001   0.000   0.000   0.000   0.004   0.000   0.000  -0.000


------------------------ aborting loop because EDIFF is reached ----------------------------------------


 


 total charge     
 
# of ion       s       p       d       tot
------------------------------------------
    1        0.406   0.427   0.000   0.832
    2        0.405   0.427   0.000   0.832
    3        0.405   0.427   0.000   0.832
    4        0.405   0.427   0.000   0.832
    5        0.404   0.427   0.000   0.831
    6        0.404   0.427   0.000   0.831
    7        0.405   0.428   0.000   0.833
    8        0.405   0.428   0.000   0.833
    9        0.405   0.428   0.000   0.833
   10        0.405   0.428   0.000   0.832
   11        0.405   0.425   0.000   0.830
   12        0.405   0.426   0.000   0.831
   13        0.405   0.429   0.000   0.834
   14        0.406   0.429   0.000   0.835
   15        0.405   0.429   0.000   0.834
   16        0.405   0.429   0.000   0.834
   17        0.405   0.430   0.000   0.835
   18        0.405   0.429   0.000   0.834
   19        0.333   0.353   5.138   5.824
   20        0.334   0.350   5.140   5.824
   21        0.335   0.354   5.133   5.822
   22        0.332   0.350   5.145   5.828
   23        0.330   0.349   5.150   5.829
   24        0.336   0.356   5.126   5.818
   25        0.339   0.358   5.110   5.807
   26        0.338   0.358   5.113   5.809
   27        0.337   0.352   5.128   5.817
   28        0.333   0.356   5.132   5.821
   29        0.331   0.357   5.131   5.820
   30        0.333   0.353   5.138   5.824
   31        0.333   0.355   5.128   5.816
   32        0.331   0.355   5.137   5.823
   33        0.335   0.351   5.138   5.824
   34        0.331   0.358   5.124   5.814
   35        0.333   0.358   5.127   5.818
   36        0.335   0.351   5.133   5.819
--------------------------------------------------
tot         13.298  14.072  92.372 119.743
 


 magnetization (x)
 
# of ion       s       p       d       tot
------------------------------------------
    1       -0.013  -0.025   0.000  -0.037
    2       -0.013  -0.025   0.000  -0.038
    3       -0.010  -0.018   0.000  -0.029
    4       -0.010  -0.018   0.000  -0.028
    5       -0.017  -0.027   0.000  -0.044
    6       -0.016  -0.027   0.000  -0.043
    7       -0.007  -0.011   0.000  -0.018
    8       -0.007  -0.011   0.000  -0.018
    9       -0.009  -0.019   0.000  -0.029
   10       -0.009  -0.019   0.000  -0.028
   11       -0.015  -0.026   0.000  -0.041
   12       -0.014  -0.026   0.000  -0.041
   13       -0.002  -0.001   0.000  -0.003
   14       -0.002  -0.002   0.000  -0.004
   15       -0.002  -0.002   0.000  -0.003
   16       -0.002  -0.002   0.000  -0.004
   17       -0.010  -0.017   0.000  -0.027
   18       -0.009  -0.017   0.000  -0.027
   19        0.027   0.022   2.221   2.270
   20        0.024   0.012   2.366   2.402
   21        0.015   0.020   2.266   2.301
   22        0.010   0.008   2.217   2.236
   23        0.007   0.001   2.164   2.172
   24        0.018   0.030   2.313   2.362
   25       -0.032  -0.023  -2.551  -2.607
   26       -0.030  -0.016  -2.543  -2.589
   27        0.034   0.018   2.499   2.551
   28        0.033   0.024   2.295   2.352
   29        0.013   0.017   2.191   2.221
   30       -0.021  -0.017  -2.275  -2.312
   31       -0.015  -0.012  -2.401  -2.428
   32        0.017   0.016   2.187   2.221
   33       -0.027  -0.017  -2.327  -2.371
   34        0.006   0.016   2.251   2.273
   35        0.029   0.026   2.233   2.287
   36        0.026   0.014   2.411   2.451
--------------------------------------------------
tot         -0.031  -0.154  17.516  17.331
 
    FORLOC:  cpu time    0.0293: real time    0.0293
    FORNL :  cpu time   14.0649: real time   14.2652
    STRESS:  cpu time   19.8219: real time   19.8707
    FORCOR:  cpu time    0.2791: real time    0.2851
    OFIELD:  cpu time    0.0013: real time    0.0013

  FORCE on cell =-STRESS in cart. coord.  units (eV):
  Direction    XX          YY          ZZ          XY          YZ          ZX
  --------------------------------------------------------------------------------------
  Alpha Z   532.25743   532.25743   532.25743
  Ewald   -2702.40749 -2702.40749 -3196.26924    -0.00000    -0.00000    -0.00000
  Hartree   721.10102   721.10916   224.51381    -0.25116    -0.00000    -0.00000
  E(xc)    -760.44392  -760.48304  -760.21289     0.10254     0.00000     0.00000
  Local     248.87439   248.73654  1263.79107     0.83298     0.00000    -0.00000
  n-local  -111.58321  -111.07078  -118.55576     0.00991    -0.21582    -0.15497
  augment   521.81592   521.74643   513.95883    -0.26793     0.00001     0.00001
  Kinetic  1555.02032  1555.38316  1542.51543    -1.12015     0.91541     0.18328
  Fock        0.00000     0.00000     0.00000     0.00000     0.00000     0.00000
  -------------------------------------------------------------------------------------
  Total       4.63445     5.27141     1.99868    -0.69381     0.00000     0.00000
  in kB      15.68903    17.84533     6.76613    -2.34876     0.00000     0.00000
  external pressure =       13.43 kB  Pullay stress =        0.00 kB


 VOLUME and BASIS-vectors are now :
 -----------------------------------------------------------------------------
  energy-cutoff  :      404.80
  volume of cell :      473.27
      direct lattice vectors                 reciprocal lattice vectors
     8.250148166  0.000000000  0.000000000     0.121209944  0.000000000  0.000000000
     0.000000000  8.250148166  0.000000000     0.000000000  0.121209944  0.000000000
     0.000000000  0.000000000  6.953274261     0.000000000  0.000000000  0.143817137

  length of vectors
     8.250148166  8.250148166  6.953274261     0.121209944  0.121209944  0.143817137


 FORCES acting on ions:
    Electron-Ion                     Ewald-Force                    Non-Local-Force
 -----------------------------------------------------------------------------------------------
   -.323E-01 -.576E-01 -.240E-01   -.239E-08 -.239E-08 0.411E-08   0.657E-01 -.253E-01 -.302E-01
   -.323E-01 -.576E-01 0.240E-01   -.239E-08 -.239E-08 0.411E-08   0.657E-01 -.253E-01 0.302E-01
   -.877E-01 -.177E-01 -.364E-02   -.239E-08 -.802E-09 0.411E-08   0.844E-01 0.441E-02 -.985E-01
   -.877E-01 -.177E-01 0.364E-02   -.239E-08 -.802E-09 0.411E-08   0.844E-01 0.441E-02 0.985E-01
   0.271E-01 0.713E-01 -.798E-01   -.239E-08 0.631E-08 0.411E-08   0.300E-01 0.419E-01 -.379E-02
   0.271E-01 0.713E-01 0.798E-01   -.239E-08 0.631E-08 0.411E-08   0.300E-01 0.419E-01 0.379E-02
   -.148E+00 -.870E-02 -.276E-01   -.802E-09 -.239E-08 0.411E-08   0.145E-01 -.961E-02 0.710E-01
   -.148E+00 -.870E-02 0.276E-01   -.802E-09 -.239E-08 0.411E-08   0.145E-01 -.961E-02 -.710E-01
   -.110E-02 0.455E-01 0.249E-01   -.802E-09 -.802E-09 0.411E-08   -.427E-01 0.254E-01 -.273E-01
   -.110E-02 0.455E-01 -.249E-01   -.802E-09 -.802E-09 0.411E-08   -.427E-01 0.254E-01 0.273E-01
   -.215E-01 -.378E-01 0.489E-01   -.802E-09 0.631E-08 0.411E-08   -.191E-01 -.344E-01 0.658E-01
   -.215E-01 -.378E-01 -.489E-01   -.802E-09 0.631E-08 0.411E-08   -.191E-01 -.344E-01 -.658E-01
   0.121E+00 -.132E+00 -.245E-01   0.631E-08 -.239E-08 0.411E-08   -.797E-01 0.705E-01 0.137E-01
   0.121E+00 -.132E+00 0.245E-01   0.631E-08 -.239E-08 0.411E-08   -.797E-01 0.705E-01 -.137E-01
   0.104E+00 0.756E-01 0.196E-02   0.631E-08 -.802E-09 0.411E-08   -.299E-01 -.456E-01 -.193E-01
   0.104E+00 0.756E-01 -.196E-02   0.631E-08 -.802E-09 0.411E-08   -.299E-01 -.456E-01 0.193E-01
   -.531E-02 0.269E-01 0.147E-01   0.631E-08 0.631E-08 0.411E-08   -.107E-01 0.907E-03 0.976E-02
   -.531E-02 0.269E-01 -.147E-01   0.631E-08 0.631E-08 0.411E-08   -.107E-01 0.907E-03 -.976E-02
   0.153E-01 -.611E-01 -.413E-08   -.169E-07 -.169E-07 -.411E-08   0.943E-01 0.391E-01 0.000E+00
   -.146E+00 0.720E-01 -.562E-09   -.169E-07 -.169E-07 -.411E-08   0.923E-01 -.518E-01 0.000E+00
   0.450E+00 -.539E-01 -.116E-08   -.169E-07 0.802E-09 -.411E-08   -.391E+00 0.484E-01 0.000E+00
   0.134E+00 -.879E-01 -.298E-08   -.169E-07 0.802E-09 -.411E-08   -.238E+00 0.140E+00 0.000E+00
   0.627E-01 0.133E+00 -.144E-08   -.169E-07 0.130E-07 -.411E-08   -.394E-03 -.171E+00 0.000E+00
   -.362E+00 0.188E-01 -.320E-08   -.169E-07 0.130E-07 -.411E-08   0.256E+00 -.229E-01 0.000E+00
   0.646E+00 0.153E+00 -.704E-08   0.802E-09 -.169E-07 -.411E-08   -.320E+00 -.133E+00 0.000E+00
   0.280E-01 -.368E+00 0.122E-08   0.802E-09 -.169E-07 -.411E-08   -.731E-01 0.128E+00 0.000E+00
   -.374E+00 0.337E+00 -.404E-08   0.802E-09 0.802E-09 -.411E-08   0.334E-01 -.169E+00 0.000E+00
   0.142E-01 -.453E-01 -.118E-08   0.802E-09 0.802E-09 -.411E-08   0.106E-01 -.855E-02 0.000E+00
   0.280E-01 -.168E+00 -.450E-08   0.802E-09 0.130E-07 -.411E-08   -.122E+00 0.126E+00 0.000E+00
   0.264E+00 0.333E+00 -.154E-08   0.802E-09 0.130E-07 -.411E-08   -.352E+00 -.110E+00 0.000E+00
   -.461E+00 0.351E+00 -.298E-08   0.130E-07 -.169E-07 -.411E-08   0.307E+00 -.179E+00 0.000E+00
   -.189E-01 0.143E+00 -.991E-09   0.130E-07 -.169E-07 -.411E-08   0.129E+00 -.469E-01 0.000E+00
   -.280E+00 -.503E+00 0.155E-09   0.130E-07 0.802E-09 -.411E-08   0.357E+00 0.315E+00 0.000E+00
   -.169E+00 -.167E+00 -.345E-08   0.130E-07 0.802E-09 -.411E-08   0.227E+00 0.119E+00 0.000E+00
   -.175E-01 -.405E-01 -.879E-11   0.130E-07 0.130E-07 -.411E-08   -.185E-01 -.353E-01 0.000E+00
   0.312E+00 0.229E-01 -.350E-08   0.130E-07 0.130E-07 -.411E-08   -.456E-01 -.430E-01 0.000E+00
 -----------------------------------------------------------------------------------------------
   0.293E-01 -.159E-02 -.780E-07   -.197E-14 0.275E-13 0.265E-14   -.293E-01 0.161E-02 0.000E+00
 
 
 POSITION                                       TOTAL-FORCE (eV/Angst)
 -----------------------------------------------------------------------------------
      0.00000      0.00000      0.00000         0.026955     -0.080523     -0.051031
      0.00000      0.00000      3.47664         0.026955     -0.080523      0.051031
      0.00000      2.75005      0.00000        -0.011673     -0.013786     -0.092838
      0.00000      2.75005      3.47664        -0.011673     -0.013786      0.092838
      0.00000      5.50010      0.00000         0.054151      0.109634     -0.082860
      0.00000      5.50010      3.47664         0.054151      0.109634      0.082860
      2.75005      0.00000      0.00000        -0.135340     -0.017579      0.037196
      2.75005      0.00000      3.47664        -0.135340     -0.017579     -0.037196
      2.75005      2.75005      0.00000        -0.039388      0.068311      0.000394
      2.75005      2.75005      3.47664        -0.039388      0.068311     -0.000394
      2.75005      5.50010      0.00000        -0.038537     -0.068692      0.108711
      2.75005      5.50010      3.47664        -0.038537     -0.068692     -0.108711
      5.50010      0.00000      0.00000         0.047585     -0.068120     -0.011750
      5.50010      0.00000      3.47664         0.047585     -0.068120      0.011750
      5.50010      2.75005      0.00000         0.076845      0.033851     -0.015686
      5.50010      2.75005      3.47664         0.076845      0.033851      0.015686
      5.50010      5.50010      0.00000        -0.015287      0.027922      0.023978
      5.50010      5.50010      3.47664        -0.015287      0.027922     -0.023978
      1.37502      1.37502      1.73832         0.111497     -0.022634      0.000000
      1.37502      1.37502      5.21496        -0.049884      0.020381      0.000000
      1.37502      4.12507      1.73832         0.068814     -0.004925      0.000000
      1.37502      4.12507      5.21496        -0.098693      0.051577      0.000000
      1.37502      6.87512      1.73832         0.060125     -0.036034      0.000000
      1.37502      6.87512      5.21496        -0.113024     -0.004157      0.000000
      4.12507      1.37502      1.73832         0.339067      0.024531      0.000000
      4.12507      1.37502      5.21496        -0.048209     -0.245729      0.000000
      4.12507      4.12507      1.73832        -0.352276      0.169062      0.000000
      4.12507      4.12507      5.21496         0.020311     -0.055762      0.000000
      4.12507      6.87512      1.73832        -0.096600     -0.032772      0.000000
      4.12507      6.87512      5.21496        -0.082818      0.227972      0.000000
      6.87512      1.37502      1.73832        -0.160487      0.170156      0.000000
      6.87512      1.37502      5.21496         0.101105      0.097591      0.000000
      6.87512      4.12507      1.73832         0.069796     -0.195704      0.000000
      6.87512      4.12507      5.21496         0.056224     -0.048364      0.000000
      6.87512      6.87512      1.73832        -0.030783     -0.076706      0.000000
      6.87512      6.87512      5.21496         0.275214     -0.020516      0.000000
 -----------------------------------------------------------------------------------
    total drift:                               -0.000014      0.000018     -0.000000


--------------------------------------------------------------------------------------------------------



  FREE ENERGIE OF THE ION-ELECTRON SYSTEM (eV)
  ---------------------------------------------------
  free  energy   TOTEN  =      -236.59784523 eV

  energy  without entropy=     -236.60807088  energy(sigma->0) =     -236.60125378
 


--------------------------------------------------------------------------------------------------------


    POTLOK:  cpu time    0.7616: real time    1.4142


--------------------------------------------------------------------------------------------------------


     LOOP+:  cpu time 1059.7759: real time 1081.1972
    4ORBIT:  cpu time    0.0000: real time    0.0000
 


 total charge     
 
# of ion       s       p       d       tot
------------------------------------------
    1        0.406   0.427   0.000   0.832
    2        0.405   0.427   0.000   0.832
    3        0.405   0.427   0.000   0.832
    4        0.405   0.427   0.000   0.832
    5        0.404   0.427   0.000   0.831
    6        0.404   0.427   0.000   0.831
    7        0.405   0.428   0.000   0.833
    8        0.405   0.428   0.000   0.833
    9        0.405   0.428   0.000   0.833
   10        0.405   0.428   0.000   0.832
   11        0.405   0.425   0.000   0.830
   12        0.405   0.426   0.000   0.831
   13        0.405   0.429   0.000   0.834
   14        0.406   0.429   0.000   0.835
   15        0.405   0.429   0.000   0.834
   16        0.405   0.429   0.000   0.834
   17        0.405   0.430   0.000   0.835
   18        0.405   0.429   0.000   0.834
   19        0.333   0.353   5.138   5.824
   20        0.334   0.350   5.140   5.824
   21        0.335   0.354   5.133   5.822
   22        0.332   0.350   5.145   5.828
   23        0.330   0.349   5.150   5.829
   24        0.336   0.356   5.126   5.818
   25        0.339   0.358   5.110   5.807
   26        0.338   0.358   5.113   5.809
   27        0.337   0.352   5.128   5.817
   28        0.333   0.356   5.132   5.821
   29        0.331   0.357   5.131   5.820
   30        0.333   0.353   5.138   5.824
   31        0.333   0.355   5.128   5.816
   32        0.331   0.355   5.137   5.823
   33        0.335   0.351   5.138   5.824
   34        0.331   0.358   5.124   5.814
   35        0.333   0.358   5.127   5.818
   36        0.335   0.351   5.133   5.819
--------------------------------------------------
tot         13.298  14.072  92.372 119.743
 


 magnetization (x)
 
# of ion       s       p       d       tot
------------------------------------------
    1       -0.013  -0.025   0.000  -0.037
    2       -0.013  -0.025   0.000  -0.038
    3       -0.010  -0.018   0.000  -0.029
    4       -0.010  -0.018   0.000  -0.028
    5       -0.017  -0.027   0.000  -0.044
    6       -0.016  -0.027   0.000  -0.043
    7       -0.007  -0.011   0.000  -0.018
    8       -0.007  -0.011   0.000  -0.018
    9       -0.009  -0.019   0.000  -0.029
   10       -0.009  -0.019   0.000  -0.028
   11       -0.015  -0.026   0.000  -0.041
   12       -0.014  -0.026   0.000  -0.041
   13       -0.002  -0.001   0.000  -0.003
   14       -0.002  -0.002   0.000  -0.004
   15       -0.002  -0.002   0.000  -0.003
   16       -0.002  -0.002   0.000  -0.004
   17       -0.010  -0.017   0.000  -0.027
   18       -0.009  -0.017   0.000  -0.027
   19        0.027   0.022   2.221   2.270
   20        0.024   0.012   2.366   2.402
   21        0.015   0.020   2.266   2.301
   22        0.010   0.008   2.217   2.236
   23        0.007   0.001   2.164   2.172
   24        0.018   0.030   2.313   2.362
   25       -0.032  -0.023  -2.551  -2.607
   26       -0.030  -0.016  -2.543  -2.589
   27        0.034   0.018   2.499   2.551
   28        0.033   0.024   2.295   2.352
   29        0.013   0.017   2.191   2.221
   30       -0.021  -0.017  -2.275  -2.312
   31       -0.015  -0.012  -2.401  -2.428
   32        0.017   0.016   2.187   2.221
   33       -0.027  -0.017  -2.327  -2.371
   34        0.006   0.016   2.251   2.273
   35        0.029   0.026   2.233   2.287
   36        0.026   0.014   2.411   2.451
--------------------------------------------------
tot         -0.031  -0.154  17.516  17.331
 

 total amount of memory used by VASP MPI-rank0   809947. kBytes
=======================================================================

   base      :      30000. kBytes
   nonl-proj :      34307. kBytes
   fftplans  :      21726. kBytes
   grid      :      14732. kBytes
   one-center:        279. kBytes
   wavefun   :     708903. kBytes
 
  
  
 General timing and accounting informations for this job:
 ========================================================
  
                  Total CPU time used (sec):     1088.325
                            User time (sec):     1067.181
                          System time (sec):       21.144
                         Elapsed time (sec):     1112.200
  
                   Maximum memory used (kb):      957396.
                   Average memory used (kb):           0.
  
                          Minor page faults:       360379
                          Major page faults:           19
                 Voluntary context switches:         3176
