  36  36   1   0
  0.1314651E+02  0.8250148E-09  0.8250148E-09  0.6953274E-09  0.2000000E-15
  1.000000000000000E-004
  CAR 
 AlMn_pv                                 
     11.51433122     -4.52787289  301      7.72686245      1.00000000
     -4.528  0.0000E+00  0.0000E+00  0.0000E+00  0.0000E+00
     -4.474  0.0000E+00  0.0000E+00  0.0000E+00  0.0000E+00
     -4.421  0.0000E+00  0.0000E+00  0.0000E+00  0.0000E+00
     -4.367  0.0000E+00  0.0000E+00  0.0000E+00  0.0000E+00
     -4.314  0.0000E+00  0.0000E+00  0.0000E+00  0.0000E+00
     -4.261  0.0000E+00  0.0000E+00  0.0000E+00  0.0000E+00
     -4.207  0.0000E+00  0.0000E+00  0.0000E+00  0.0000E+00
     -4.154 -0.5779E-29 -0.2788E-29 -0.3090E-30 -0.1491E-30
     -4.100 -0.3960E-27 -0.1958E-27 -0.2149E-28 -0.1062E-28
     -4.047 -0.2392E-25 -0.1212E-25 -0.1301E-26 -0.6586E-27
     -3.993 -0.1245E-23 -0.6462E-24 -0.6788E-25 -0.3521E-25
     -3.940 -0.5610E-22 -0.2983E-22 -0.3068E-23 -0.1631E-23
     -3.886 -0.2188E-20 -0.1192E-20 -0.1201E-21 -0.6539E-22
     -3.833 -0.7387E-19 -0.4124E-19 -0.4070E-20 -0.2271E-20
     -3.779 -0.2158E-17 -0.1235E-17 -0.1195E-18 -0.6830E-19
     -3.726 -0.5458E-16 -0.3200E-16 -0.3038E-17 -0.1779E-17
     -3.672 -0.1160E-14 -0.6969E-15 -0.6508E-16 -0.3904E-16
     -3.619 -0.2187E-13 -0.1350E-13 -0.1234E-14 -0.7607E-15
     -3.565 -0.3577E-12 -0.2257E-12 -0.2036E-13 -0.1283E-13
     -3.512 -0.5058E-11 -0.3271E-11 -0.2908E-12 -0.1877E-12
     -3.458 -0.6190E-10 -0.4102E-10 -0.3601E-11 -0.2381E-11
     -3.405 -0.6557E-09 -0.4452E-09 -0.3866E-10 -0.2619E-10
     -3.351 -0.6012E-08 -0.4183E-08 -0.3602E-09 -0.2499E-09
     -3.298 -0.4775E-07 -0.3404E-07 -0.2913E-08 -0.2070E-08
     -3.244 -0.3285E-06 -0.2399E-06 -0.2048E-07 -0.1490E-07
     -3.191 -0.1959E-05 -0.1466E-05 -0.1252E-06 -0.9328E-07
     -3.138 -0.1013E-04 -0.7764E-05 -0.6668E-06 -0.5084E-06
     -3.084 -0.4540E-04 -0.3566E-04 -0.3095E-05 -0.2415E-05
     -3.031 -0.1764E-03 -0.1420E-03 -0.1253E-04 -0.1001E-04
     -2.977 -0.5934E-03 -0.4894E-03 -0.4426E-04 -0.3618E-04
     -2.924 -0.1722E-02 -0.1457E-02 -0.1364E-03 -0.1141E-03
     -2.870 -0.4285E-02 -0.3723E-02 -0.3655E-03 -0.3132E-03
     -2.817 -0.9008E-02 -0.8064E-02 -0.8472E-03 -0.7444E-03
     -2.763 -0.1552E-01 -0.1442E-01 -0.1677E-02 -0.1515E-02
     -2.710 -0.2020E-01 -0.1989E-01 -0.2757E-02 -0.2579E-02
     -2.656 -0.1389E-01 -0.1633E-01 -0.3500E-02 -0.3452E-02
     -2.603  0.1796E-01  0.1015E-01 -0.2540E-02 -0.2909E-02
     -2.549  0.8969E-01  0.7460E-01  0.2256E-02  0.1080E-02
     -2.496  0.2047E+00  0.1830E+00  0.1320E-01  0.1087E-01
     -2.442  0.3463E+00  0.3223E+00  0.3172E-01  0.2810E-01
     -2.389  0.4822E+00  0.4617E+00  0.5751E-01  0.5279E-01
     -2.335  0.5863E+00  0.5720E+00  0.8886E-01  0.8337E-01
     -2.282  0.6638E+00  0.6523E+00  0.1244E+00  0.1183E+00
     -2.228  0.7542E+00  0.7377E+00  0.1647E+00  0.1577E+00
     -2.175  0.8957E+00  0.8702E+00  0.2126E+00  0.2042E+00
     -2.122  0.1077E+01  0.1048E+01  0.2702E+00  0.2603E+00
     -2.068  0.1225E+01  0.1207E+01  0.3356E+00  0.3249E+00
     -2.015  0.1259E+01  0.1263E+01  0.4030E+00  0.3924E+00
     -1.961  0.1171E+01  0.1193E+01  0.4656E+00  0.4562E+00
     -1.908  0.1054E+01  0.1073E+01  0.5220E+00  0.5135E+00
     -1.854  0.1034E+01  0.1032E+01  0.5773E+00  0.5687E+00
     -1.801  0.1174E+01  0.1148E+01  0.6401E+00  0.6301E+00
     -1.747  0.1420E+01  0.1382E+01  0.7160E+00  0.7040E+00
     -1.694  0.1645E+01  0.1615E+01  0.8040E+00  0.7904E+00
     -1.640  0.1752E+01  0.1742E+01  0.8976E+00  0.8835E+00
     -1.587  0.1730E+01  0.1738E+01  0.9902E+00  0.9765E+00
     -1.533  0.1658E+01  0.1671E+01  0.1079E+01  0.1066E+01
     -1.480  0.1635E+01  0.1637E+01  0.1166E+01  0.1153E+01
     -1.426  0.1703E+01  0.1689E+01  0.1257E+01  0.1244E+01
     -1.373  0.1806E+01  0.1789E+01  0.1354E+01  0.1339E+01
     -1.319  0.1837E+01  0.1834E+01  0.1452E+01  0.1437E+01
     -1.266  0.1742E+01  0.1760E+01  0.1545E+01  0.1532E+01
     -1.212  0.1599E+01  0.1623E+01  0.1631E+01  0.1618E+01
     -1.159  0.1566E+01  0.1570E+01  0.1715E+01  0.1702E+01
     -1.106  0.1744E+01  0.1715E+01  0.1808E+01  0.1794E+01
     -1.052  0.2078E+01  0.2028E+01  0.1919E+01  0.1902E+01
     -0.999  0.2402E+01  0.2357E+01  0.2047E+01  0.2028E+01
     -0.945  0.2588E+01  0.2564E+01  0.2186E+01  0.2166E+01
     -0.892  0.2631E+01  0.2627E+01  0.2326E+01  0.2306E+01
     -0.838  0.2607E+01  0.2611E+01  0.2466E+01  0.2446E+01
     -0.785  0.2563E+01  0.2571E+01  0.2603E+01  0.2583E+01
     -0.731  0.2471E+01  0.2488E+01  0.2735E+01  0.2716E+01
     -0.678  0.2285E+01  0.2319E+01  0.2857E+01  0.2840E+01
     -0.624  0.2038E+01  0.2084E+01  0.2966E+01  0.2952E+01
     -0.571  0.1859E+01  0.1898E+01  0.3066E+01  0.3053E+01
     -0.517  0.1886E+01  0.1896E+01  0.3166E+01  0.3155E+01
     -0.464  0.2157E+01  0.2127E+01  0.3282E+01  0.3268E+01
     -0.410  0.2577E+01  0.2517E+01  0.3420E+01  0.3403E+01
     -0.357  0.2994E+01  0.2929E+01  0.3580E+01  0.3560E+01
     -0.303  0.3288E+01  0.3244E+01  0.3756E+01  0.3733E+01
     -0.250  0.3424E+01  0.3413E+01  0.3939E+01  0.3916E+01
     -0.196  0.3429E+01  0.3444E+01  0.4122E+01  0.4100E+01
     -0.143  0.3360E+01  0.3383E+01  0.4302E+01  0.4281E+01
     -0.090  0.3271E+01  0.3288E+01  0.4477E+01  0.4456E+01
     -0.036  0.3191E+01  0.3206E+01  0.4647E+01  0.4628E+01
      0.017  0.3133E+01  0.3156E+01  0.4815E+01  0.4797E+01
      0.071  0.3103E+01  0.3133E+01  0.4981E+01  0.4964E+01
      0.124  0.3112E+01  0.3132E+01  0.5147E+01  0.5132E+01
      0.178  0.3175E+01  0.3163E+01  0.5317E+01  0.5301E+01
      0.231  0.3288E+01  0.3241E+01  0.5493E+01  0.5474E+01
      0.285  0.3408E+01  0.3348E+01  0.5675E+01  0.5653E+01
      0.338  0.3461E+01  0.3422E+01  0.5860E+01  0.5836E+01
      0.392  0.3381E+01  0.3382E+01  0.6041E+01  0.6017E+01
      0.445  0.3180E+01  0.3208E+01  0.6211E+01  0.6189E+01
      0.499  0.2971E+01  0.2992E+01  0.6370E+01  0.6349E+01
      0.552  0.2909E+01  0.2894E+01  0.6525E+01  0.6503E+01
      0.606  0.3071E+01  0.3018E+01  0.6689E+01  0.6665E+01
      0.659  0.3389E+01  0.3321E+01  0.6871E+01  0.6842E+01
      0.713  0.3716E+01  0.3655E+01  0.7069E+01  0.7038E+01
      0.766  0.3943E+01  0.3895E+01  0.7280E+01  0.7246E+01
      0.820  0.4046E+01  0.4007E+01  0.7497E+01  0.7460E+01
      0.873  0.4041E+01  0.4010E+01  0.7713E+01  0.7675E+01
      0.926  0.3926E+01  0.3915E+01  0.7923E+01  0.7884E+01
      0.980  0.3719E+01  0.3730E+01  0.8121E+01  0.8084E+01
      1.033  0.3502E+01  0.3518E+01  0.8309E+01  0.8272E+01
      1.087  0.3385E+01  0.3386E+01  0.8490E+01  0.8453E+01
      1.140  0.3407E+01  0.3386E+01  0.8672E+01  0.8634E+01
      1.194  0.3491E+01  0.3462E+01  0.8859E+01  0.8819E+01
      1.247  0.3531E+01  0.3507E+01  0.9047E+01  0.9007E+01
      1.301  0.3513E+01  0.3485E+01  0.9235E+01  0.9193E+01
      1.354  0.3503E+01  0.3454E+01  0.9423E+01  0.9378E+01
      1.408  0.3538E+01  0.3471E+01  0.9612E+01  0.9563E+01
      1.461  0.3567E+01  0.3504E+01  0.9803E+01  0.9751E+01
      1.515  0.3534E+01  0.3490E+01  0.9992E+01  0.9937E+01
      1.568  0.3500E+01  0.3449E+01  0.1018E+02  0.1012E+02
      1.622  0.3627E+01  0.3515E+01  0.1037E+02  0.1031E+02
      1.675  0.4031E+01  0.3828E+01  0.1059E+02  0.1051E+02
      1.729  0.4645E+01  0.4380E+01  0.1084E+02  0.1075E+02
      1.782  0.5224E+01  0.4983E+01  0.1112E+02  0.1102E+02
      1.836  0.5515E+01  0.5382E+01  0.1141E+02  0.1130E+02
      1.889  0.5429E+01  0.5427E+01  0.1170E+02  0.1159E+02
      1.942  0.5084E+01  0.5166E+01  0.1197E+02  0.1187E+02
      1.996  0.4711E+01  0.4789E+01  0.1222E+02  0.1213E+02
      2.049  0.4513E+01  0.4502E+01  0.1247E+02  0.1237E+02
      2.103  0.4599E+01  0.4438E+01  0.1271E+02  0.1260E+02
      2.156  0.4961E+01  0.4638E+01  0.1298E+02  0.1285E+02
      2.210  0.5475E+01  0.5058E+01  0.1327E+02  0.1312E+02
      2.263  0.5919E+01  0.5550E+01  0.1359E+02  0.1342E+02
      2.317  0.6068E+01  0.5894E+01  0.1391E+02  0.1373E+02
      2.370  0.5827E+01  0.5899E+01  0.1422E+02  0.1405E+02
      2.424  0.5302E+01  0.5537E+01  0.1451E+02  0.1435E+02
      2.477  0.4744E+01  0.4982E+01  0.1476E+02  0.1461E+02
      2.531  0.4392E+01  0.4506E+01  0.1499E+02  0.1485E+02
      2.584  0.4363E+01  0.4312E+01  0.1523E+02  0.1508E+02
      2.638  0.4620E+01  0.4440E+01  0.1548E+02  0.1532E+02
      2.691  0.5033E+01  0.4781E+01  0.1574E+02  0.1558E+02
      2.745  0.5459E+01  0.5174E+01  0.1604E+02  0.1585E+02
      2.798  0.5801E+01  0.5506E+01  0.1635E+02  0.1615E+02
      2.852  0.6013E+01  0.5735E+01  0.1667E+02  0.1645E+02
      2.905  0.6095E+01  0.5862E+01  0.1699E+02  0.1677E+02
      2.958  0.6099E+01  0.5899E+01  0.1732E+02  0.1708E+02
      3.012  0.6138E+01  0.5885E+01  0.1765E+02  0.1740E+02
      3.065  0.6311E+01  0.5912E+01  0.1799E+02  0.1771E+02
      3.119  0.6585E+01  0.6054E+01  0.1834E+02  0.1804E+02
      3.172  0.6776E+01  0.6279E+01  0.1870E+02  0.1837E+02
      3.226  0.6680E+01  0.6440E+01  0.1906E+02  0.1872E+02
      3.279  0.6246E+01  0.6384E+01  0.1939E+02  0.1906E+02
      3.333  0.5618E+01  0.6081E+01  0.1969E+02  0.1938E+02
      3.386  0.5012E+01  0.5629E+01  0.1996E+02  0.1969E+02
      3.440  0.4576E+01  0.5173E+01  0.2020E+02  0.1996E+02
      3.493  0.4355E+01  0.4809E+01  0.2044E+02  0.2022E+02
      3.547  0.4347E+01  0.4580E+01  0.2067E+02  0.2046E+02
      3.600  0.4564E+01  0.4513E+01  0.2091E+02  0.2071E+02
      3.654  0.5014E+01  0.4654E+01  0.2118E+02  0.2095E+02
      3.707  0.5638E+01  0.5035E+01  0.2148E+02  0.2122E+02
      3.761  0.6272E+01  0.5610E+01  0.2182E+02  0.2152E+02
      3.814  0.6743E+01  0.6224E+01  0.2218E+02  0.2186E+02
      3.868  0.7006E+01  0.6703E+01  0.2255E+02  0.2221E+02
      3.921  0.7220E+01  0.6993E+01  0.2294E+02  0.2259E+02
      3.974  0.7652E+01  0.7226E+01  0.2335E+02  0.2297E+02
      4.028  0.8510E+01  0.7644E+01  0.2380E+02  0.2338E+02
      4.081  0.9823E+01  0.8441E+01  0.2433E+02  0.2384E+02
      4.135  0.1143E+02  0.9643E+01  0.2494E+02  0.2435E+02
      4.188  0.1305E+02  0.1109E+02  0.2564E+02  0.2494E+02
      4.242  0.1439E+02  0.1250E+02  0.2641E+02  0.2561E+02
      4.295  0.1522E+02  0.1358E+02  0.2722E+02  0.2634E+02
      4.349  0.1543E+02  0.1412E+02  0.2805E+02  0.2709E+02
      4.402  0.1506E+02  0.1408E+02  0.2885E+02  0.2785E+02
      4.456  0.1435E+02  0.1355E+02  0.2962E+02  0.2857E+02
      4.509  0.1361E+02  0.1280E+02  0.3035E+02  0.2926E+02
      4.563  0.1310E+02  0.1214E+02  0.3105E+02  0.2990E+02
      4.616  0.1294E+02  0.1180E+02  0.3174E+02  0.3054E+02
      4.670  0.1309E+02  0.1190E+02  0.3244E+02  0.3117E+02
      4.723  0.1352E+02  0.1238E+02  0.3316E+02  0.3183E+02
      4.777  0.1416E+02  0.1315E+02  0.3392E+02  0.3254E+02
      4.830  0.1497E+02  0.1412E+02  0.3472E+02  0.3329E+02
      4.884  0.1587E+02  0.1522E+02  0.3557E+02  0.3411E+02
      4.937  0.1685E+02  0.1638E+02  0.3647E+02  0.3498E+02
      4.991  0.1799E+02  0.1758E+02  0.3743E+02  0.3592E+02
      5.044  0.1942E+02  0.1885E+02  0.3847E+02  0.3693E+02
      5.097  0.2105E+02  0.2018E+02  0.3960E+02  0.3801E+02
      5.151  0.2247E+02  0.2142E+02  0.4080E+02  0.3915E+02
      5.204  0.2315E+02  0.2218E+02  0.4204E+02  0.4034E+02
      5.258  0.2279E+02  0.2211E+02  0.4325E+02  0.4152E+02
      5.311  0.2164E+02  0.2115E+02  0.4441E+02  0.4265E+02
      5.365  0.2031E+02  0.1970E+02  0.4550E+02  0.4371E+02
      5.418  0.1937E+02  0.1840E+02  0.4653E+02  0.4469E+02
      5.472  0.1903E+02  0.1765E+02  0.4755E+02  0.4563E+02
      5.525  0.1903E+02  0.1741E+02  0.4857E+02  0.4657E+02
      5.579  0.1894E+02  0.1729E+02  0.4958E+02  0.4749E+02
      5.632  0.1849E+02  0.1696E+02  0.5057E+02  0.4840E+02
      5.686  0.1777E+02  0.1633E+02  0.5152E+02  0.4927E+02
      5.739  0.1706E+02  0.1557E+02  0.5243E+02  0.5010E+02
      5.793  0.1651E+02  0.1491E+02  0.5332E+02  0.5090E+02
      5.846  0.1605E+02  0.1450E+02  0.5417E+02  0.5168E+02
      5.900  0.1555E+02  0.1439E+02  0.5501E+02  0.5244E+02
      5.953  0.1510E+02  0.1460E+02  0.5581E+02  0.5323E+02
      6.007  0.1512E+02  0.1511E+02  0.5662E+02  0.5403E+02
      6.060  0.1596E+02  0.1588E+02  0.5748E+02  0.5488E+02
      6.113  0.1759E+02  0.1685E+02  0.5842E+02  0.5578E+02
      6.167  0.1962E+02  0.1803E+02  0.5947E+02  0.5675E+02
      6.220  0.2170E+02  0.1940E+02  0.6063E+02  0.5779E+02
      6.274  0.2374E+02  0.2100E+02  0.6190E+02  0.5891E+02
      6.327  0.2594E+02  0.2289E+02  0.6328E+02  0.6013E+02
      6.381  0.2846E+02  0.2516E+02  0.6480E+02  0.6148E+02
      6.434  0.3121E+02  0.2788E+02  0.6647E+02  0.6297E+02
      6.488  0.3380E+02  0.3081E+02  0.6828E+02  0.6462E+02
      6.541  0.3573E+02  0.3331E+02  0.7019E+02  0.6640E+02
      6.595  0.3658E+02  0.3457E+02  0.7215E+02  0.6825E+02
      6.648  0.3614E+02  0.3401E+02  0.7408E+02  0.7006E+02
      6.702  0.3445E+02  0.3176E+02  0.7592E+02  0.7176E+02
      6.755  0.3176E+02  0.2861E+02  0.7762E+02  0.7329E+02
      6.809  0.2852E+02  0.2553E+02  0.7915E+02  0.7466E+02
      6.862  0.2530E+02  0.2311E+02  0.8050E+02  0.7589E+02
      6.916  0.2259E+02  0.2132E+02  0.8171E+02  0.7703E+02
      6.969  0.2061E+02  0.1977E+02  0.8281E+02  0.7809E+02
      7.023  0.1933E+02  0.1816E+02  0.8384E+02  0.7906E+02
      7.076  0.1845E+02  0.1650E+02  0.8483E+02  0.7995E+02
      7.129  0.1758E+02  0.1497E+02  0.8577E+02  0.8075E+02
      7.183  0.1634E+02  0.1373E+02  0.8664E+02  0.8148E+02
      7.236  0.1457E+02  0.1285E+02  0.8742E+02  0.8217E+02
      7.290  0.1247E+02  0.1232E+02  0.8809E+02  0.8283E+02
      7.343  0.1050E+02  0.1204E+02  0.8865E+02  0.8347E+02
      7.397  0.9076E+01  0.1185E+02  0.8914E+02  0.8410E+02
      7.450  0.8445E+01  0.1163E+02  0.8959E+02  0.8473E+02
      7.504  0.8536E+01  0.1136E+02  0.9004E+02  0.8533E+02
      7.557  0.9023E+01  0.1120E+02  0.9053E+02  0.8593E+02
      7.611  0.9449E+01  0.1126E+02  0.9103E+02  0.8653E+02
      7.664  0.9469E+01  0.1152E+02  0.9154E+02  0.8715E+02
      7.718  0.9108E+01  0.1184E+02  0.9202E+02  0.8778E+02
      7.771  0.8832E+01  0.1214E+02  0.9250E+02  0.8843E+02
      7.825  0.9262E+01  0.1252E+02  0.9299E+02  0.8910E+02
      7.878  0.1071E+02  0.1314E+02  0.9356E+02  0.8980E+02
      7.932  0.1288E+02  0.1398E+02  0.9425E+02  0.9055E+02
      7.985  0.1502E+02  0.1477E+02  0.9506E+02  0.9134E+02
      8.039  0.1638E+02  0.1508E+02  0.9593E+02  0.9215E+02
      8.092  0.1664E+02  0.1467E+02  0.9682E+02  0.9293E+02
      8.145  0.1598E+02  0.1363E+02  0.9768E+02  0.9366E+02
      8.199  0.1479E+02  0.1234E+02  0.9847E+02  0.9432E+02
      8.252  0.1333E+02  0.1123E+02  0.9918E+02  0.9492E+02
      8.306  0.1174E+02  0.1066E+02  0.9981E+02  0.9549E+02
      8.359  0.1020E+02  0.1082E+02  0.1004E+03  0.9607E+02
      8.413  0.9061E+01  0.1173E+02  0.1008E+03  0.9670E+02
      8.466  0.8797E+01  0.1324E+02  0.1013E+03  0.9741E+02
      8.520  0.9764E+01  0.1509E+02  0.1018E+03  0.9821E+02
      8.573  0.1194E+02  0.1705E+02  0.1025E+03  0.9912E+02
      8.627  0.1488E+02  0.1894E+02  0.1033E+03  0.1001E+03
      8.680  0.1789E+02  0.2070E+02  0.1042E+03  0.1012E+03
      8.734  0.2025E+02  0.2223E+02  0.1053E+03  0.1024E+03
      8.787  0.2147E+02  0.2340E+02  0.1065E+03  0.1037E+03
      8.841  0.2136E+02  0.2399E+02  0.1076E+03  0.1050E+03
      8.894  0.1999E+02  0.2377E+02  0.1087E+03  0.1062E+03
      8.948  0.1764E+02  0.2260E+02  0.1096E+03  0.1074E+03
      9.001  0.1465E+02  0.2051E+02  0.1104E+03  0.1085E+03
      9.055  0.1141E+02  0.1769E+02  0.1110E+03  0.1095E+03
      9.108  0.8270E+01  0.1447E+02  0.1114E+03  0.1103E+03
      9.161  0.5507E+01  0.1121E+02  0.1117E+03  0.1109E+03
      9.215  0.3283E+01  0.8231E+01  0.1119E+03  0.1113E+03
      9.268  0.1659E+01  0.5704E+01  0.1120E+03  0.1116E+03
      9.322  0.6131E+00  0.3686E+01  0.1120E+03  0.1118E+03
      9.375  0.5009E-01  0.2163E+01  0.1120E+03  0.1119E+03
      9.429 -0.1728E+00  0.1102E+01  0.1120E+03  0.1120E+03
      9.482 -0.2027E+00  0.4507E+00  0.1120E+03  0.1120E+03
      9.536 -0.1538E+00  0.1196E+00  0.1120E+03  0.1120E+03
      9.589 -0.9296E-01 -0.9018E-02  0.1120E+03  0.1120E+03
      9.643 -0.4734E-01 -0.4200E-01  0.1120E+03  0.1120E+03
      9.696 -0.2071E-01 -0.4399E-01  0.1120E+03  0.1120E+03
      9.750 -0.7837E-02 -0.3894E-01  0.1120E+03  0.1120E+03
      9.803 -0.2570E-02 -0.3100E-01  0.1120E+03  0.1120E+03
      9.857 -0.7303E-03 -0.2132E-01  0.1120E+03  0.1120E+03
      9.910 -0.1796E-03 -0.1233E-01  0.1120E+03  0.1120E+03
      9.964 -0.3821E-04 -0.5953E-02  0.1120E+03  0.1120E+03
     10.017 -0.7024E-05 -0.2406E-02  0.1120E+03  0.1120E+03
     10.071 -0.1116E-05 -0.8180E-03  0.1120E+03  0.1120E+03
     10.124 -0.1531E-06 -0.2351E-03  0.1120E+03  0.1120E+03
     10.177 -0.1815E-07 -0.5735E-04  0.1120E+03  0.1120E+03
     10.231 -0.1858E-08 -0.1192E-04  0.1120E+03  0.1120E+03
     10.284 -0.1644E-09 -0.2118E-05  0.1120E+03  0.1120E+03
     10.338 -0.1257E-10 -0.3222E-06  0.1120E+03  0.1120E+03
     10.391 -0.8302E-12 -0.4207E-07  0.1120E+03  0.1120E+03
     10.445 -0.4723E-13 -0.4721E-08  0.1120E+03  0.1120E+03
     10.498 -0.2547E-14 -0.4559E-09  0.1120E+03  0.1120E+03
     10.552  0.0000E+00 -0.3792E-10  0.1120E+03  0.1120E+03
     10.605  0.0000E+00 -0.2719E-11  0.1120E+03  0.1120E+03
     10.659  0.0000E+00 -0.1681E-12  0.1120E+03  0.1120E+03
     10.712  0.0000E+00 -0.9080E-14  0.1120E+03  0.1120E+03
     10.766  0.0000E+00 -0.4429E-15  0.1120E+03  0.1120E+03
     10.819  0.0000E+00  0.0000E+00  0.1120E+03  0.1120E+03
     10.873  0.0000E+00  0.0000E+00  0.1120E+03  0.1120E+03
     10.926  0.0000E+00  0.0000E+00  0.1120E+03  0.1120E+03
     10.980  0.0000E+00  0.0000E+00  0.1120E+03  0.1120E+03
     11.033  0.0000E+00  0.0000E+00  0.1120E+03  0.1120E+03
     11.087  0.0000E+00  0.0000E+00  0.1120E+03  0.1120E+03
     11.140  0.0000E+00  0.0000E+00  0.1120E+03  0.1120E+03
     11.193  0.0000E+00  0.0000E+00  0.1120E+03  0.1120E+03
     11.247  0.0000E+00  0.0000E+00  0.1120E+03  0.1120E+03
     11.300  0.0000E+00  0.0000E+00  0.1120E+03  0.1120E+03
     11.354  0.0000E+00  0.0000E+00  0.1120E+03  0.1120E+03
     11.407  0.0000E+00  0.0000E+00  0.1120E+03  0.1120E+03
     11.461  0.0000E+00  0.0000E+00  0.1120E+03  0.1120E+03
     11.514  0.0000E+00  0.0000E+00  0.1120E+03  0.1120E+03
     11.51433122     -4.52787289  301      7.72686245      1.00000000
     -4.528  0.0000E+00  0.0000E+00  0.0000E+00  0.0000E+00  0.0000E+00  0.0000E+00
     -4.474  0.0000E+00  0.0000E+00  0.0000E+00  0.0000E+00  0.0000E+00  0.0000E+00
     -4.421  0.0000E+00  0.0000E+00  0.0000E+00  0.0000E+00  0.0000E+00  0.0000E+00
     -4.367  0.0000E+00  0.0000E+00  0.0000E+00  0.0000E+00  0.0000E+00  0.0000E+00
     -4.314  0.0000E+00  0.0000E+00  0.0000E+00  0.0000E+00  0.0000E+00  0.0000E+00
     -4.261  0.0000E+00  0.0000E+00  0.0000E+00  0.0000E+00  0.0000E+00  0.0000E+00
     -4.207  0.0000E+00  0.0000E+00  0.0000E+00  0.0000E+00  0.0000E+00  0.0000E+00
     -4.154 -0.6696E-31 -0.3227E-31 -0.1170E-35 -0.1678E-35  0.0000E+00  0.0000E+00
     -4.100 -0.4588E-29 -0.2266E-29 -0.8019E-34 -0.1178E-33  0.0000E+00  0.0000E+00
     -4.047 -0.2772E-27 -0.1402E-27 -0.1414E-31 -0.1184E-31  0.0000E+00  0.0000E+00
     -3.993 -0.1443E-25 -0.7480E-26 -0.8618E-30 -0.6945E-30  0.0000E+00  0.0000E+00
     -3.940 -0.6500E-24 -0.3453E-24 -0.4635E-28 -0.3594E-28  0.0000E+00  0.0000E+00
     -3.886 -0.2535E-22 -0.1380E-22 -0.2182E-26 -0.1633E-26  0.0000E+00  0.0000E+00
     -3.833 -0.8558E-21 -0.4773E-21 -0.8971E-25 -0.6514E-25  0.0000E+00  0.0000E+00
     -3.779 -0.2501E-19 -0.1429E-19 -0.3219E-23 -0.2280E-23  0.0000E+00  0.0000E+00
     -3.726 -0.6324E-18 -0.3703E-18 -0.1006E-21 -0.6996E-22  0.0000E+00  0.0000E+00
     -3.672 -0.1344E-16 -0.8065E-17 -0.2731E-20 -0.1867E-20  0.0000E+00  0.0000E+00
     -3.619 -0.2533E-15 -0.1562E-15 -0.6176E-19 -0.4387E-19  0.0000E+00  0.0000E+00
     -3.565 -0.4144E-14 -0.2612E-14 -0.1289E-17 -0.8756E-18  0.0000E+00  0.0000E+00
     -3.512 -0.5859E-13 -0.3785E-13 -0.2288E-16 -0.1561E-16  0.0000E+00  0.0000E+00
     -3.458 -0.7170E-12 -0.4746E-12 -0.3524E-15 -0.2420E-15  0.0000E+00  0.0000E+00
     -3.405 -0.7594E-11 -0.5151E-11 -0.4701E-14 -0.3261E-14  0.0000E+00  0.0000E+00
     -3.351 -0.6963E-10 -0.4839E-10 -0.5428E-13 -0.3814E-13  0.0000E+00  0.0000E+00
     -3.298 -0.5529E-09 -0.3937E-09 -0.5423E-12 -0.3869E-12  0.0000E+00  0.0000E+00
     -3.244 -0.3803E-08 -0.2775E-08 -0.4686E-11 -0.3400E-11  0.0000E+00  0.0000E+00
     -3.191 -0.2268E-07 -0.1695E-07 -0.3501E-10 -0.2588E-10  0.0000E+00  0.0000E+00
     -3.138 -0.1172E-06 -0.8974E-07 -0.2260E-09 -0.1704E-09  0.0000E+00  0.0000E+00
     -3.084 -0.5253E-06 -0.4120E-06 -0.1260E-08 -0.9703E-09  0.0000E+00  0.0000E+00
     -3.031 -0.2040E-05 -0.1640E-05 -0.6064E-08 -0.4772E-08  0.0000E+00  0.0000E+00
     -2.977 -0.6860E-05 -0.5651E-05 -0.2515E-07 -0.2024E-07  0.0000E+00  0.0000E+00
     -2.924 -0.1990E-04 -0.1681E-04 -0.8969E-07 -0.7389E-07  0.0000E+00  0.0000E+00
     -2.870 -0.4947E-04 -0.4292E-04 -0.2740E-06 -0.2314E-06  0.0000E+00  0.0000E+00
     -2.817 -0.1039E-03 -0.9289E-04 -0.7122E-06 -0.6175E-06  0.0000E+00  0.0000E+00
     -2.763 -0.1788E-03 -0.1659E-03 -0.1554E-05 -0.1388E-05  0.0000E+00  0.0000E+00
     -2.710 -0.2323E-03 -0.2283E-03 -0.2776E-05 -0.2569E-05  0.0000E+00  0.0000E+00
     -2.656 -0.1586E-03 -0.1862E-03 -0.3803E-05 -0.3710E-05  0.0000E+00  0.0000E+00
     -2.603  0.2100E-03  0.1202E-03 -0.3179E-05 -0.3507E-05  0.0000E+00  0.0000E+00
     -2.549  0.1038E-02  0.8636E-03  0.1255E-05  0.1309E-06  0.0000E+00  0.0000E+00
     -2.496  0.2363E-02  0.2112E-02  0.1126E-04  0.9148E-05  0.0000E+00  0.0000E+00
     -2.442  0.3993E-02  0.3713E-02  0.2681E-04  0.2391E-04  0.0000E+00  0.0000E+00
     -2.389  0.5556E-02  0.5313E-02  0.4633E-04  0.4299E-04  0.0000E+00  0.0000E+00
     -2.335  0.6747E-02  0.6572E-02  0.6984E-04  0.6587E-04  0.0000E+00  0.0000E+00
     -2.282  0.7628E-02  0.7478E-02  0.1031E-03  0.9723E-04  0.0000E+00  0.0000E+00
     -2.228  0.8649E-02  0.8429E-02  0.1570E-03  0.1475E-03  0.0000E+00  0.0000E+00
     -2.175  0.1025E-01  0.9902E-02  0.2372E-03  0.2242E-03  0.0000E+00  0.0000E+00
     -2.122  0.1230E-01  0.1189E-01  0.3321E-03  0.3192E-03  0.0000E+00  0.0000E+00
     -2.068  0.1397E-01  0.1366E-01  0.4113E-03  0.4042E-03  0.0000E+00  0.0000E+00
     -2.015  0.1435E-01  0.1427E-01  0.4466E-03  0.4484E-03  0.0000E+00  0.0000E+00
     -1.961  0.1334E-01  0.1344E-01  0.4417E-03  0.4486E-03  0.0000E+00  0.0000E+00
     -1.908  0.1197E-01  0.1206E-01  0.4407E-03  0.4434E-03  0.0000E+00  0.0000E+00
     -1.854  0.1169E-01  0.1155E-01  0.5005E-03  0.4904E-03  0.0000E+00  0.0000E+00
     -1.801  0.1320E-01  0.1279E-01  0.6445E-03  0.6204E-03  0.0000E+00  0.0000E+00
     -1.747  0.1587E-01  0.1537E-01  0.8400E-03  0.8087E-03  0.0000E+00  0.0000E+00
     -1.694  0.1833E-01  0.1796E-01  0.1019E-02  0.9905E-03  0.0000E+00  0.0000E+00
     -1.640  0.1945E-01  0.1938E-01  0.1128E-02  0.1108E-02  0.0000E+00  0.0000E+00
     -1.587  0.1916E-01  0.1935E-01  0.1164E-02  0.1151E-02  0.0000E+00  0.0000E+00
     -1.533  0.1833E-01  0.1861E-01  0.1178E-02  0.1163E-02  0.0000E+00  0.0000E+00
     -1.480  0.1805E-01  0.1823E-01  0.1238E-02  0.1212E-02  0.0000E+00  0.0000E+00
     -1.426  0.1879E-01  0.1877E-01  0.1366E-02  0.1330E-02  0.0000E+00  0.0000E+00
     -1.373  0.1994E-01  0.1981E-01  0.1510E-02  0.1476E-02  0.0000E+00  0.0000E+00
     -1.319  0.2032E-01  0.2024E-01  0.1575E-02  0.1562E-02  0.0000E+00  0.0000E+00
     -1.266  0.1932E-01  0.1938E-01  0.1520E-02  0.1532E-02  0.0000E+00  0.0000E+00
     -1.212  0.1777E-01  0.1787E-01  0.1432E-02  0.1447E-02  0.0000E+00  0.0000E+00
     -1.159  0.1740E-01  0.1733E-01  0.1475E-02  0.1461E-02  0.0000E+00  0.0000E+00
     -1.106  0.1926E-01  0.1895E-01  0.1750E-02  0.1690E-02  0.0000E+00  0.0000E+00
     -1.052  0.2275E-01  0.2233E-01  0.2193E-02  0.2104E-02  0.0000E+00  0.0000E+00
     -0.999  0.2609E-01  0.2582E-01  0.2626E-02  0.2540E-02  0.0000E+00  0.0000E+00
     -0.945  0.2789E-01  0.2799E-01  0.2909E-02  0.2846E-02  0.0000E+00  0.0000E+00
     -0.892  0.2814E-01  0.2864E-01  0.3043E-02  0.2996E-02  0.0000E+00  0.0000E+00
     -0.838  0.2765E-01  0.2850E-01  0.3118E-02  0.3067E-02  0.0000E+00  0.0000E+00
     -0.785  0.2695E-01  0.2805E-01  0.3185E-02  0.3124E-02  0.0000E+00  0.0000E+00
     -0.731  0.2578E-01  0.2706E-01  0.3183E-02  0.3128E-02  0.0000E+00  0.0000E+00
     -0.678  0.2374E-01  0.2510E-01  0.3023E-02  0.2992E-02  0.0000E+00  0.0000E+00
     -0.624  0.2126E-01  0.2260E-01  0.2720E-02  0.2710E-02  0.0000E+00  0.0000E+00
     -0.571  0.1970E-01  0.2088E-01  0.2450E-02  0.2426E-02  0.0000E+00  0.0000E+00
     -0.517  0.2042E-01  0.2129E-01  0.2438E-02  0.2365E-02  0.0000E+00  0.0000E+00
     -0.464  0.2362E-01  0.2407E-01  0.2803E-02  0.2672E-02  0.0000E+00  0.0000E+00
     -0.410  0.2817E-01  0.2822E-01  0.3468E-02  0.3308E-02  0.0000E+00  0.0000E+00
     -0.357  0.3244E-01  0.3230E-01  0.4220E-02  0.4082E-02  0.0000E+00  0.0000E+00
     -0.303  0.3534E-01  0.3530E-01  0.4833E-02  0.4757E-02  0.0000E+00  0.0000E+00
     -0.250  0.3666E-01  0.3693E-01  0.5184E-02  0.5173E-02  0.0000E+00  0.0000E+00
     -0.196  0.3675E-01  0.3737E-01  0.5285E-02  0.5308E-02  0.0000E+00  0.0000E+00
     -0.143  0.3612E-01  0.3694E-01  0.5252E-02  0.5259E-02  0.0000E+00  0.0000E+00
     -0.090  0.3520E-01  0.3612E-01  0.5195E-02  0.5163E-02  0.0000E+00  0.0000E+00
     -0.036  0.3440E-01  0.3538E-01  0.5146E-02  0.5095E-02  0.0000E+00  0.0000E+00
      0.017  0.3406E-01  0.3501E-01  0.5066E-02  0.5042E-02  0.0000E+00  0.0000E+00
      0.071  0.3430E-01  0.3500E-01  0.4943E-02  0.4972E-02  0.0000E+00  0.0000E+00
      0.124  0.3501E-01  0.3517E-01  0.4874E-02  0.4931E-02  0.0000E+00  0.0000E+00
      0.178  0.3592E-01  0.3543E-01  0.5005E-02  0.5041E-02  0.0000E+00  0.0000E+00
      0.231  0.3676E-01  0.3586E-01  0.5392E-02  0.5386E-02  0.0000E+00  0.0000E+00
      0.285  0.3725E-01  0.3644E-01  0.5899E-02  0.5885E-02  0.0000E+00  0.0000E+00
      0.338  0.3704E-01  0.3676E-01  0.6266E-02  0.6300E-02  0.0000E+00  0.0000E+00
      0.392  0.3573E-01  0.3613E-01  0.6292E-02  0.6400E-02  0.0000E+00  0.0000E+00
      0.445  0.3346E-01  0.3428E-01  0.6023E-02  0.6164E-02  0.0000E+00  0.0000E+00
      0.499  0.3123E-01  0.3198E-01  0.5754E-02  0.5846E-02  0.0000E+00  0.0000E+00
      0.552  0.3050E-01  0.3080E-01  0.5830E-02  0.5815E-02  0.0000E+00  0.0000E+00
      0.606  0.3206E-01  0.3185E-01  0.6372E-02  0.6263E-02  0.0000E+00  0.0000E+00
      0.659  0.3528E-01  0.3479E-01  0.7195E-02  0.7058E-02  0.0000E+00  0.0000E+00
      0.713  0.3862E-01  0.3810E-01  0.7988E-02  0.7883E-02  0.0000E+00  0.0000E+00
      0.766  0.4086E-01  0.4041E-01  0.8571E-02  0.8509E-02  0.0000E+00  0.0000E+00
      0.820  0.4167E-01  0.4124E-01  0.8946E-02  0.8911E-02  0.0000E+00  0.0000E+00
      0.873  0.4114E-01  0.4079E-01  0.9139E-02  0.9135E-02  0.0000E+00  0.0000E+00
      0.926  0.3942E-01  0.3929E-01  0.9095E-02  0.9147E-02  0.0000E+00  0.0000E+00
      0.980  0.3687E-01  0.3703E-01  0.8786E-02  0.8899E-02  0.0000E+00  0.0000E+00
      1.033  0.3447E-01  0.3482E-01  0.8369E-02  0.8492E-02  0.0000E+00  0.0000E+00
      1.087  0.3332E-01  0.3370E-01  0.8118E-02  0.8181E-02  0.0000E+00  0.0000E+00
      1.140  0.3367E-01  0.3403E-01  0.8169E-02  0.8141E-02  0.0000E+00  0.0000E+00
      1.194  0.3455E-01  0.3504E-01  0.8383E-02  0.8292E-02  0.0000E+00  0.0000E+00
      1.247  0.3487E-01  0.3557E-01  0.8538E-02  0.8414E-02  0.0000E+00  0.0000E+00
      1.301  0.3449E-01  0.3529E-01  0.8599E-02  0.8425E-02  0.0000E+00  0.0000E+00
      1.354  0.3408E-01  0.3481E-01  0.8722E-02  0.8461E-02  0.0000E+00  0.0000E+00
      1.408  0.3394E-01  0.3464E-01  0.9004E-02  0.8658E-02  0.0000E+00  0.0000E+00
      1.461  0.3350E-01  0.3436E-01  0.9342E-02  0.8965E-02  0.0000E+00  0.0000E+00
      1.515  0.3222E-01  0.3325E-01  0.9617E-02  0.9242E-02  0.0000E+00  0.0000E+00
      1.568  0.3082E-01  0.3162E-01  0.9959E-02  0.9530E-02  0.0000E+00  0.0000E+00
      1.622  0.3100E-01  0.3102E-01  0.1072E-01  0.1012E-01  0.0000E+00  0.0000E+00
      1.675  0.3399E-01  0.3298E-01  0.1213E-01  0.1130E-01  0.0000E+00  0.0000E+00
      1.729  0.3915E-01  0.3743E-01  0.1397E-01  0.1302E-01  0.0000E+00  0.0000E+00
      1.782  0.4420E-01  0.4244E-01  0.1558E-01  0.1478E-01  0.0000E+00  0.0000E+00
      1.836  0.4682E-01  0.4555E-01  0.1630E-01  0.1590E-01  0.0000E+00  0.0000E+00
      1.889  0.4624E-01  0.4547E-01  0.1590E-01  0.1596E-01  0.0000E+00  0.0000E+00
      1.942  0.4353E-01  0.4283E-01  0.1473E-01  0.1511E-01  0.0000E+00  0.0000E+00
      1.996  0.4058E-01  0.3944E-01  0.1348E-01  0.1388E-01  0.0000E+00  0.0000E+00
      2.049  0.3891E-01  0.3701E-01  0.1278E-01  0.1291E-01  0.0000E+00  0.0000E+00
      2.103  0.3925E-01  0.3638E-01  0.1293E-01  0.1259E-01  0.0000E+00  0.0000E+00
      2.156  0.4158E-01  0.3764E-01  0.1382E-01  0.1303E-01  0.0000E+00  0.0000E+00
      2.210  0.4514E-01  0.4040E-01  0.1502E-01  0.1404E-01  0.0000E+00  0.0000E+00
      2.263  0.4847E-01  0.4381E-01  0.1586E-01  0.1516E-01  0.0000E+00  0.0000E+00
      2.317  0.4982E-01  0.4661E-01  0.1580E-01  0.1577E-01  0.0000E+00  0.0000E+00
      2.370  0.4814E-01  0.4742E-01  0.1475E-01  0.1539E-01  0.0000E+00  0.0000E+00
      2.424  0.4380E-01  0.4555E-01  0.1321E-01  0.1410E-01  0.0000E+00  0.0000E+00
      2.477  0.3844E-01  0.4154E-01  0.1197E-01  0.1254E-01  0.0000E+00  0.0000E+00
      2.531  0.3399E-01  0.3697E-01  0.1168E-01  0.1157E-01  0.0000E+00  0.0000E+00
      2.584  0.3174E-01  0.3363E-01  0.1247E-01  0.1175E-01  0.0000E+00  0.0000E+00
      2.638  0.3189E-01  0.3255E-01  0.1403E-01  0.1304E-01  0.0000E+00  0.0000E+00
      2.691  0.3361E-01  0.3356E-01  0.1584E-01  0.1493E-01  0.0000E+00  0.0000E+00
      2.745  0.3557E-01  0.3554E-01  0.1752E-01  0.1680E-01  0.0000E+00  0.0000E+00
      2.798  0.3667E-01  0.3714E-01  0.1890E-01  0.1827E-01  0.0000E+00  0.0000E+00