Automatically generated mesh
      24
Reciprocal lattice
    0.00000000000000    0.00000000000000    0.00000000000000             1
    0.20000000000000    0.00000000000000    0.00000000000000             4
    0.40000000000000    0.00000000000000    0.00000000000000             4
    0.20000000000000    0.20000000000000    0.00000000000000             4
    0.40000000000000    0.20000000000000    0.00000000000000             8
    0.40000000000000    0.40000000000000    0.00000000000000             4
    0.00000000000000    0.00000000000000    0.16666666666667             2
    0.20000000000000    0.00000000000000    0.16666666666667             8
    0.40000000000000    0.00000000000000    0.16666666666667             8
    0.20000000000000    0.20000000000000    0.16666666666667             8
    0.40000000000000    0.20000000000000    0.16666666666667            16
    0.40000000000000    0.40000000000000    0.16666666666667             8
    0.00000000000000    0.00000000000000    0.33333333333333             2
    0.20000000000000    0.00000000000000    0.33333333333333             8
    0.40000000000000    0.00000000000000    0.33333333333333             8
    0.20000000000000    0.20000000000000    0.33333333333333             8
    0.40000000000000    0.20000000000000    0.33333333333333            16
    0.40000000000000    0.40000000000000    0.33333333333333             8
    0.00000000000000    0.00000000000000    0.50000000000000             1
    0.20000000000000    0.00000000000000    0.50000000000000             4
    0.40000000000000    0.00000000000000    0.50000000000000             4
    0.20000000000000    0.20000000000000    0.50000000000000             4
    0.40000000000000    0.20000000000000    0.50000000000000             8
    0.40000000000000    0.40000000000000    0.50000000000000             4
