       N       E                     dE             d eps       ncg     rms          ort
DAV:   1     0.135158066338E+04    0.13516E+04   -0.59040E+04  2688   0.143E+03
DAV:   2    -0.602725495063E+02   -0.14119E+04   -0.13789E+04  2688   0.437E+02
DAV:   3    -0.238787165526E+03   -0.17851E+03   -0.16029E+03  2688   0.168E+02
DAV:   4    -0.266750751660E+03   -0.27964E+02   -0.25004E+02  2688   0.727E+01
DAV:   5    -0.269670763364E+03   -0.29200E+01   -0.28054E+01  2688   0.214E+01
DAV:   6    -0.269902940812E+03   -0.23218E+00   -0.22772E+00  2688   0.552E+00
DAV:   7    -0.269926183859E+03   -0.23243E-01   -0.23023E-01  2688   0.153E+00
DAV:   8    -0.269928011009E+03   -0.18271E-02   -0.18145E-02  2688   0.388E-01
SDA:   9    -0.700041973540E+02    0.19992E+03   -0.18145E-02  2688   0.222E+04 0.000E+00
CGA:  10    -0.213042283917E+03   -0.14304E+03   -0.14484E+03  2688   0.886E+02 0.300E+03
CGA:  11    -0.221605720796E+03   -0.85634E+01   -0.88000E+01  2688   0.634E+02-0.158E+01
CGA:  12    -0.230740763267E+03   -0.91350E+01   -0.89799E+01  2688   0.821E+02-0.921E+00
CGA:  13    -0.235346294665E+03   -0.46055E+01   -0.46501E+01  2688   0.877E+01 0.103E+01
CGA:  14    -0.236068731810E+03   -0.72244E+00   -0.72820E+00  2688   0.536E+01-0.335E-01
CGA:  15    -0.236931950240E+03   -0.86322E+00   -0.86354E+00  2688   0.417E+01 0.142E-01
CGA:  16    -0.237293639137E+03   -0.36169E+00   -0.35943E+00  2688   0.169E+01 0.181E-01
CGA:  17    -0.237410545111E+03   -0.11691E+00   -0.11530E+00  2688   0.115E+01 0.157E-01
CGA:  18    -0.237623370559E+03   -0.21283E+00   -0.21278E+00  2688   0.662E+00 0.783E-03
CGA:  19    -0.237686119014E+03   -0.62748E-01   -0.62896E-01  2688   0.281E+00-0.895E-03
CGA:  20    -0.237737719574E+03   -0.51601E-01   -0.51588E-01  2688   0.365E+00 0.306E-03
CGA:  21    -0.237786998190E+03   -0.49279E-01   -0.49262E-01  2688   0.219E+00-0.388E-03
CGA:  22    -0.237798719846E+03   -0.11722E-01   -0.11698E-01  2688   0.727E-01 0.983E-04
CGA:  23    -0.237813145410E+03   -0.14426E-01   -0.14441E-01  2688   0.993E-01-0.345E-03
CGA:  24    -0.237827275851E+03   -0.14130E-01   -0.14129E-01  2688   0.630E-01-0.253E-03
CGA:  25    -0.237835514077E+03   -0.82382E-02   -0.82342E-02  2688   0.398E-01-0.213E-03
CGA:  26    -0.237844859650E+03   -0.93456E-02   -0.93754E-02  2688   0.222E-01-0.315E-03
CGA:  27    -0.237847681549E+03   -0.28219E-02   -0.28207E-02  2688   0.165E-01-0.153E-04
CGA:  28    -0.237849722389E+03   -0.20408E-02   -0.20391E-02  2688   0.220E-01-0.502E-05
CGA:  29    -0.237851877645E+03   -0.21553E-02   -0.21556E-02  2688   0.129E-01 0.667E-05
CGA:  30    -0.237853684247E+03   -0.18066E-02   -0.18062E-02  2688   0.768E-02-0.139E-04
CGA:  31    -0.237855457237E+03   -0.17730E-02   -0.17732E-02  2688   0.500E-02 0.190E-04
CGA:  32    -0.237856089746E+03   -0.63251E-03   -0.63344E-03  2688   0.402E-02 0.459E-04
CGA:  33    -0.237856530790E+03   -0.44104E-03   -0.44293E-03  2688   0.390E-02 0.398E-04
CGA:  34    -0.237856941784E+03   -0.41099E-03   -0.41216E-03  2688   0.314E-02 0.344E-04
CGA:  35    -0.237857384463E+03   -0.44268E-03   -0.44305E-03  2688   0.184E-02 0.301E-04
CGA:  36    -0.237857791025E+03   -0.40656E-03   -0.40467E-03  2688   0.108E-02 0.284E-04
CGA:  37    -0.237857923111E+03   -0.13209E-03   -0.13247E-03  2688   0.102E-02 0.107E-04
CGA:  38    -0.237858023874E+03   -0.10076E-03   -0.10090E-03  2688   0.998E-03 0.452E-05
CGA:  39    -0.237858169240E+03   -0.14537E-03   -0.14536E-03  2688   0.721E-03-0.228E-05
SDA:  40    -0.237858280826E+03   -0.11159E-03   -0.11167E-03  2688   0.420E-03-0.140E-04
CGA:  41    -0.237858349243E+03   -0.68417E-04   -0.68398E-04  2688   0.505E-03 0.141E-05
CGA:  42    -0.237858389562E+03   -0.40320E-04   -0.40244E-04  2688   0.263E-03-0.992E-06
CGA:  43    -0.237858415312E+03   -0.25750E-04   -0.25666E-04  2688   0.200E-03-0.179E-05
CGA:  44    -0.237858460045E+03   -0.44733E-04   -0.45196E-04  2688   0.150E-03-0.562E-05
CGA:  45    -0.237858506463E+03   -0.46418E-04   -0.46238E-04  2688   0.153E-03 0.976E-06
CGA:  46    -0.237858531102E+03   -0.24640E-04   -0.24642E-04  2688   0.169E-03-0.635E-06
CGA:  47    -0.237858554037E+03   -0.22935E-04   -0.22913E-04  2688   0.105E-03-0.102E-05
CGA:  48    -0.237858562415E+03   -0.83774E-05   -0.83624E-05  2688   0.102E-03-0.531E-07
CGA:  49    -0.237858586663E+03   -0.24249E-04   -0.24003E-04  2688   0.108E-03 0.329E-05
CGA:  50    -0.237858599470E+03   -0.12806E-04   -0.12892E-04  2688   0.579E-04 0.213E-05
CGA:  51    -0.237858617256E+03   -0.17786E-04   -0.17497E-04  2688   0.244E-04 0.228E-05
CGA:  52    -0.237858623488E+03   -0.62328E-05   -0.61911E-05  2688   0.890E-04 0.493E-06
CGA:  53    -0.237858631740E+03   -0.82513E-05   -0.82472E-05  2688   0.338E-04 0.434E-06
CGA:  54    -0.237858636528E+03   -0.47882E-05   -0.48153E-05  2688   0.325E-04 0.142E-05
CGA:  55    -0.237858642951E+03   -0.64233E-05   -0.63683E-05  2688   0.266E-04 0.188E-05
CGA:  56    -0.237858647233E+03   -0.42819E-05   -0.42801E-05  2688   0.344E-04-0.568E-07
CGA:  57    -0.237858649556E+03   -0.23231E-05   -0.23282E-05  2688   0.141E-04-0.998E-08
CGA:  58    -0.237858651985E+03   -0.24287E-05   -0.24231E-05  2688   0.230E-04 0.360E-06
CGA:  59    -0.237858656501E+03   -0.45162E-05   -0.44771E-05  2688   0.125E-04 0.128E-05
CGA:  60    -0.237858657373E+03   -0.87225E-06   -0.89544E-06  2688   0.107E-04 0.239E-06
CGA:  61    -0.237858659976E+03   -0.26028E-05   -0.26243E-05  2688   0.969E-05-0.236E-06
CGA:  62    -0.237858660768E+03   -0.79148E-06   -0.79325E-06  2688   0.314E-05 0.430E-07
CGA:  63    -0.237858661505E+03   -0.73746E-06   -0.72275E-06  2688   0.955E-05 0.188E-06
CGA:  64    -0.237858662300E+03   -0.79449E-06   -0.78822E-06  2688   0.229E-05 0.845E-08
CGA:  65    -0.237858662874E+03   -0.57455E-06   -0.62316E-06  2688   0.442E-05-0.416E-06
CGA:  66    -0.237858663165E+03   -0.29133E-06   -0.28162E-06  2688   0.261E-05-0.104E-06
CGA:  67    -0.237858663410E+03   -0.24446E-06   -0.25997E-06  2688   0.154E-05 0.270E-06
CGA:  68    -0.237858663586E+03   -0.17600E-06   -0.18880E-06  2688   0.817E-06 0.278E-06
CGA:  69    -0.237858663730E+03   -0.14459E-06   -0.14431E-06  2688   0.159E-05 0.949E-07
CGA:  70    -0.237858663857E+03   -0.12697E-06   -0.13945E-06  2688   0.469E-06 0.163E-06
SDA:  71    -0.237858663899E+03   -0.41407E-07   -0.50346E-07  2688   0.387E-06 0.175E-06
   1 F= -.23785866E+03 E0= -.23786663E+03  d E =0.239071E-01  mag=     4.2130
