 vasp.5.4.4.18Apr17-6-g9f103f2a35 (build Dec 20 2018 12:05:58) complex          
  
 executed on             LinuxIFC date 2019.06.20  14:40:05
 running on   32 total cores
 distrk:  each k-point on    8 cores,    4 groups
 distr:  one band on NCORES_PER_BAND=   4 cores,    2 groups


--------------------------------------------------------------------------------------------------------


 INCAR:
 POTCAR:    PAW_PBE Al 04Jan2001                  
 POTCAR:    PAW_PBE Mn 06Sep2000                  

 ----------------------------------------------------------------------------- 
|                                                                             |
|           W    W    AA    RRRRR   N    N  II  N    N   GGGG   !!!           |
|           W    W   A  A   R    R  NN   N  II  NN   N  G    G  !!!           |
|           W    W  A    A  R    R  N N  N  II  N N  N  G       !!!           |
|           W WW W  AAAAAA  RRRRR   N  N N  II  N  N N  G  GGG   !            |
|           WW  WW  A    A  R   R   N   NN  II  N   NN  G    G                |
|           W    W  A    A  R    R  N    N  II  N    N   GGGG   !!!           |
|                                                                             |
|      You have enabled k-point parallelism (KPAR>1).                         |
|      This developmental code was originally  written by Paul Kent at ORNL,  |
|      and carefully double checked in Vienna.                                |
|      GW as well as linear response parallelism added by Martijn Marsman     |
|      and Georg Kresse.                                                      |
|      Carefully verify results versus KPAR=1.                                |
|      Report problems to Paul Kent and Vienna.                               |
|                                                                             |
 ----------------------------------------------------------------------------- 

 POTCAR:    PAW_PBE Al 04Jan2001                  
   VRHFIN =Al: s2p1                                                             
   LEXCH  = PE                                                                  
   EATOM  =    53.5387 eV,    3.9350 Ry                                         
                                                                                
   TITEL  = PAW_PBE Al 04Jan2001                                                
   LULTRA =        F    use ultrasoft PP ?                                      
   IUNSCR =        1    unscreen: 0-lin 1-nonlin 2-no                           
   RPACOR =    1.500    partial core radius                                     
   POMASS =   26.981; ZVAL   =    3.000    mass and valenz                      
   RCORE  =    1.900    outmost cutoff radius                                   
   RWIGS  =    2.650; RWIGS  =    1.402    wigner-seitz radius (au A)           
   ENMAX  =  240.300; ENMIN  =  180.225 eV                                      
   ICORE  =        2    local potential                                         
   LCOR   =        T    correct aug charges                                     
   LPAW   =        T    paw PP                                                  
   EAUG   =  291.052                                                            
   DEXC   =    0.000                                                            
   RMAX   =    1.939    core radius for proj-oper                               
   RAUG   =    1.300    factor for augmentation sphere                          
   RDEP   =    1.966    radius for radial grids                                 
   RDEPT  =    1.856    core radius for aug-charge                              
                                                                                
   Atomic configuration                                                         
    6 entries                                                                   
     n  l   j            E        occ.                                          
     1  0  0.50     -1511.1048   2.0000                                         
     2  0  0.50      -108.1629   2.0000                                         
     2  1  1.50       -69.6402   6.0000                                         
     3  0  0.50        -7.7528   2.0000                                         
     3  1  1.50        -2.7121   1.0000                                         
     3  2  2.50        -2.7212   0.0000                                         
   Description                                                                  
     l       E           TYP  RCUT    TYP  RCUT                                 
     0     -7.7528455     23  1.900                                             
     0     -3.3096929     23  1.900                                             
     1     -2.7120682     23  1.900                                             
     1     13.6058260     23  1.900                                             
     2     -2.7211652      7  1.900                                             
  local pseudopotential read in
  partial core-charges read in
  partial kinetic energy density read in
  atomic valenz-charges read in
  non local Contribution for L=           0  read in
    real space projection operators read in
  non local Contribution for L=           0  read in
    real space projection operators read in
  non local Contribution for L=           1  read in
    real space projection operators read in
  non local Contribution for L=           1  read in
    real space projection operators read in
    PAW grid and wavefunctions read in
 
   number of l-projection  operators is LMAX  =           4
   number of lm-projection operators is LMMAX =           8
 
 POTCAR:    PAW_PBE Mn 06Sep2000                  
   VRHFIN =Mn: d6 s1                                                            
   LEXCH  = PE                                                                  
   EATOM  =   416.7541 eV,   30.6306 Ry                                         
                                                                                
   TITEL  = PAW_PBE Mn 06Sep2000                                                
   LULTRA =        F    use ultrasoft PP ?                                      
   IUNSCR =        1    unscreen: 0-lin 1-nonlin 2-no                           
   RPACOR =    2.000    partial core radius                                     
   POMASS =   54.938; ZVAL   =    7.000    mass and valenz                      
   RCORE  =    2.300    outmost cutoff radius                                   
   RWIGS  =    2.500; RWIGS  =    1.323    wigner-seitz radius (au A)           
   ENMAX  =  269.864; ENMIN  =  202.398 eV                                      
   RCLOC  =    1.725    cutoff for local pot                                    
   LCOR   =        T    correct aug charges                                     
   LPAW   =        T    paw PP                                                  
   EAUG   =  500.711                                                            
   DEXC   =    0.000                                                            
   RMAX   =    2.343    core radius for proj-oper                               
   RAUG   =    1.300    factor for augmentation sphere                          
   RDEP   =    2.338    radius for radial grids                                 
   RDEPT  =    1.911    core radius for aug-charge                              
                                                                                
   Atomic configuration                                                         
    9 entries                                                                   
     n  l   j            E        occ.                                          
     1  0  0.50     -6424.8288   2.0000                                         
     2  0  0.50      -739.1154   2.0000                                         
     2  1  1.50      -625.3949   6.0000                                         
     3  0  0.50       -81.6100   2.0000                                         
     3  1  1.50       -50.4667   6.0000                                         
     3  2  2.50        -3.3745   6.0000                                         
     4  0  0.50        -4.1331   1.0000                                         
     4  1  0.50        -4.0817   0.0000                                         
     4  3  2.50        -1.3606   0.0000                                         
   Description                                                                  
     l       E           TYP  RCUT    TYP  RCUT                                 
     2     -3.3744664     23  2.300                                             
     2     -4.7350490     23  2.300                                             
     0     -4.1331408     23  2.300                                             
     0      7.6656614     23  2.300                                             
     1     -2.7211652     23  2.300                                             
     1     20.4087390     23  2.300                                             
  local pseudopotential read in
  partial core-charges read in
  partial kinetic energy density read in
  atomic valenz-charges read in
  non local Contribution for L=           2  read in
    real space projection operators read in
  non local Contribution for L=           2  read in
    real space projection operators read in
  non local Contribution for L=           0  read in
    real space projection operators read in
  non local Contribution for L=           0  read in
    real space projection operators read in
  non local Contribution for L=           1  read in
    real space projection operators read in
  non local Contribution for L=           1  read in
    real space projection operators read in
    PAW grid and wavefunctions read in
 
   number of l-projection  operators is LMAX  =           6
   number of lm-projection operators is LMMAX =          18
 

 ----------------------------------------------------------------------------- 
|                                                                             |
|  ADVICE TO THIS USER RUNNING 'VASP/VAMP'   (HEAR YOUR MASTER'S VOICE ...):  |
|                                                                             |
|      You have a (more or less) 'large supercell' and for larger cells       |
|      it might be more efficient to use real space projection opertators     |
|      So try LREAL= Auto  in the INCAR   file.                               |
|      Mind:          For very  accurate calculation you might also keep the  |
|      reciprocal projection scheme          (i.e. LREAL=.FALSE.)             |
|                                                                             |
 ----------------------------------------------------------------------------- 

  PAW_PBE Al 04Jan2001                  :
 energy of atom  1       EATOM=  -53.5387
 kinetic energy error for atom=    0.0005 (will be added to EATOM!!)
  PAW_PBE Mn 06Sep2000                  :
 energy of atom  2       EATOM= -416.7541
 kinetic energy error for atom=    0.0080 (will be added to EATOM!!)
 
 
 POSCAR: NewRef: 18, @ ['Mn', array([1.37502469, 
  positions in cartesian coordinates
  velocities in cartesian coordinates
  No initial velocities read in
 exchange correlation table for  LEXCH =        8
   RHO(1)=    0.500       N(1)  =     2000
   RHO(2)=  100.500       N(2)  =     4000
 


--------------------------------------------------------------------------------------------------------


 ion  position               nearest neighbor table
   1  0.000  0.000  0.000-  20 2.61  24 2.61  32 2.61  36 2.61  31 2.61  23 2.61  35 2.61  19 2.61
                             3 2.75   7 2.75   5 2.75  13 2.75
   2  0.000  0.000  0.500-  19 2.61  23 2.61  31 2.61  35 2.61  20 2.61  32 2.61  24 2.61  36 2.61
                             4 2.75   8 2.75   6 2.75  14 2.75
   3  0.000  0.333  0.000-  20 2.61  32 2.61  22 2.61  34 2.61  19 2.61  31 2.61  33 2.61  21 2.61
                             9 2.75   1 2.75   5 2.75  15 2.75
   4  0.000  0.333  0.500-  19 2.61  31 2.61  21 2.61  33 2.61  32 2.61  20 2.61  22 2.61  34 2.61
                            10 2.75   2 2.75   6 2.75  16 2.75
   5  0.000  0.667  0.000-  22 2.61  34 2.61  24 2.61  36 2.61  21 2.61  33 2.61  35 2.61  23 2.61
                             3 2.75  11 2.75   1 2.75  17 2.75
   6  0.000  0.667  0.500-  21 2.61  33 2.61  23 2.61  35 2.61  34 2.61  22 2.61  24 2.61  36 2.61
                             4 2.75  12 2.75   2 2.75  18 2.75
   7  0.333  0.000  0.000-  20 2.61  24 2.61  26 2.61  30 2.61  23 2.61  19 2.61  29 2.61  25 2.61
                            13 2.75   1 2.75   9 2.75  11 2.75
   8  0.333  0.000  0.500-  19 2.61  23 2.61  25 2.61  29 2.61  20 2.61  24 2.61  26 2.61  30 2.61
                            14 2.75   2 2.75  10 2.75  12 2.75
   9  0.333  0.333  0.000-  20 2.61  22 2.61  26 2.61  19 2.61  28 2.61  21 2.61  25 2.61  27 2.61
                             3 2.75   7 2.75  11 2.75  15 2.75
  10  0.333  0.333  0.500-  19 2.61  21 2.61  25 2.61  20 2.61  27 2.61  26 2.61  22 2.61  28 2.61
                             4 2.75   8 2.75  12 2.75  16 2.75
  11  0.333  0.667  0.000-  22 2.61  24 2.61  28 2.61  21 2.61  30 2.61  23 2.61  27 2.61  29 2.61
                            17 2.75   5 2.75   9 2.75   7 2.75
  12  0.333  0.667  0.500-  21 2.61  23 2.61  27 2.61  22 2.61  29 2.61  28 2.61  24 2.61  30 2.61
                            18 2.75   6 2.75  10 2.75   8 2.75
  13  0.667  0.000  0.000-  26 2.61  30 2.61  32 2.61  36 2.61  29 2.61  25 2.61  35 2.61  31 2.61
                             7 2.75  15 2.75   1 2.75  17 2.75
  14  0.667  0.000  0.500-  25 2.61  29 2.61  31 2.61  35 2.61  26 2.61  30 2.61  32 2.61  36 2.61
                             8 2.75  16 2.75   2 2.75  18 2.75
  15  0.667  0.333  0.000-  26 2.61  28 2.61  32 2.61  25 2.61  34 2.61  27 2.61  31 2.61  33 2.61
                            17 2.75   9 2.75  13 2.75   3 2.75
  16  0.667  0.333  0.500-  25 2.61  27 2.61  31 2.61  26 2.61  33 2.61  32 2.61  28 2.61  34 2.61
                            18 2.75  10 2.75  14 2.75   4 2.75
  17  0.667  0.667  0.000-  28 2.61  30 2.61  34 2.61  27 2.61  36 2.61  29 2.61  33 2.61  35 2.61
                            11 2.75  15 2.75  13 2.75   5 2.75
  18  0.667  0.667  0.500-  27 2.61  29 2.61  33 2.61  28 2.61  35 2.61  34 2.61  30 2.61  36 2.61
                            12 2.75  16 2.75  14 2.75   6 2.75
  19  0.167  0.167  0.250-  10 2.61   8 2.61   4 2.61   9 2.61   2 2.61   7 2.61   3 2.61   1 2.61
                            21 2.75  25 2.75  23 2.75  31 2.75
  20  0.167  0.167  0.750-   9 2.61   7 2.61   3 2.61  10 2.61   1 2.61   4 2.61   8 2.61   2 2.61
                            22 2.75  26 2.75  24 2.75  32 2.75
  21  0.167  0.500  0.250-  12 2.61  10 2.61   6 2.61  11 2.61   4 2.61   9 2.61   5 2.61   3 2.61
                            19 2.75  23 2.75  27 2.75  33 2.75
  22  0.167  0.500  0.750-  11 2.61   9 2.61   5 2.61  12 2.61   3 2.61   6 2.61  10 2.61   4 2.61
                            20 2.75  24 2.75  28 2.75  34 2.75
  23  0.167  0.833  0.250-   8 2.61  12 2.61   2 2.61   6 2.61  11 2.61   7 2.61   5 2.61   1 2.61
                            21 2.75  29 2.75  19 2.75  35 2.75
  24  0.167  0.833  0.750-   7 2.61  11 2.61   1 2.61   5 2.61   8 2.61  12 2.61   2 2.61   6 2.61
                            22 2.75  30 2.75  20 2.75  36 2.75
  25  0.500  0.167  0.250-  16 2.61  14 2.61  10 2.61  15 2.61   8 2.61  13 2.61   9 2.61   7 2.61
                            19 2.75  27 2.75  31 2.75  29 2.75
  26  0.500  0.167  0.750-  15 2.61  13 2.61   9 2.61  16 2.61   7 2.61  10 2.61  14 2.61   8 2.61
                            20 2.75  28 2.75  32 2.75  30 2.75
  27  0.500  0.500  0.250-  18 2.61  16 2.61  12 2.61  17 2.61  10 2.61  15 2.61  11 2.61   9 2.61
                            21 2.75  25 2.75  29 2.75  33 2.75
  28  0.500  0.500  0.750-  17 2.61  15 2.61  11 2.61  18 2.61   9 2.61  12 2.61  16 2.61  10 2.61
                            22 2.75  26 2.75  30 2.75  34 2.75
  29  0.500  0.833  0.250-  14 2.61  18 2.61   8 2.61  12 2.61  17 2.61  13 2.61  11 2.61   7 2.61
                            23 2.75  27 2.75  35 2.75  25 2.75
  30  0.500  0.833  0.750-  13 2.61  17 2.61   7 2.61  11 2.61  14 2.61  18 2.61   8 2.61  12 2.61
                            24 2.75  28 2.75  36 2.75  26 2.75
  31  0.833  0.167  0.250-   4 2.61  16 2.61  14 2.61   2 2.61  15 2.61   3 2.61  13 2.61   1 2.61
                            25 2.75  33 2.75  19 2.75  35 2.75
  32  0.833  0.167  0.750-   3 2.61  15 2.61  13 2.61   1 2.61   4 2.61  16 2.61   2 2.61  14 2.61
                            26 2.75  34 2.75  20 2.75  36 2.75
  33  0.833  0.500  0.250-   6 2.61  18 2.61  16 2.61   4 2.61  17 2.61   5 2.61  15 2.61   3 2.61
                            27 2.75  31 2.75  35 2.75  21 2.75
  34  0.833  0.500  0.750-   5 2.61  17 2.61  15 2.61   3 2.61   6 2.61  18 2.61   4 2.61  16 2.61
                            28 2.75  32 2.75  36 2.75  22 2.75
  35  0.833  0.833  0.250-   2 2.61   6 2.61  14 2.61  18 2.61  13 2.61   5 2.61  17 2.61   1 2.61
                            29 2.75  33 2.75  31 2.75  23 2.75
  36  0.833  0.833  0.750-   1 2.61   5 2.61  13 2.61  17 2.61   2 2.61  14 2.61   6 2.61  18 2.61
                            30 2.75  34 2.75  32 2.75  24 2.75
 
  LATTYP: Found a simple tetragonal cell.
 ALAT       =     8.2501481662
 C/A-ratio  =     0.8428059861
  
  Lattice vectors:
  
 A1 = (   8.2501481662,   0.0000000000,   0.0000000000)
 A2 = (   0.0000000000,   8.2501481662,   0.0000000000)
 A3 = (   0.0000000000,   0.0000000000,   6.9532742610)


Analysis of symmetry for initial positions (statically):
=====================================================================
 Subroutine PRICEL returns following result:
 
  LATTYP: Found a simple tetragonal cell.
 ALAT       =     2.7500493888
 C/A-ratio  =     1.2642089792
  
  Lattice vectors:
  
 A1 = (   2.7500493888,   0.0000000000,   0.0000000000)
 A2 = (   0.0000000000,   2.7500493888,   0.0000000000)
 A3 = (   0.0000000000,   0.0000000000,   3.4766371305)
 
  18 primitive cells build up your supercell.
 

 Routine SETGRP: Setting up the symmetry group for a 
 simple tetragonal supercell.


 Subroutine GETGRP returns: Found 16 space group operations
 (whereof 16 operations were pure point group operations)
 out of a pool of 16 trial point group operations.


The static configuration has the point symmetry D_4h.


Analysis of symmetry for dynamics (positions and initial velocities):
=====================================================================
 Subroutine PRICEL returns following result:
 
  LATTYP: Found a simple tetragonal cell.
 ALAT       =     2.7500493888
 C/A-ratio  =     1.2642089792
  
  Lattice vectors:
  
 A1 = (   2.7500493888,   0.0000000000,   0.0000000000)
 A2 = (   0.0000000000,   2.7500493888,   0.0000000000)
 A3 = (   0.0000000000,   0.0000000000,   3.4766371305)
 
  18 primitive cells build up your supercell.
 

 Routine SETGRP: Setting up the symmetry group for a 
 simple tetragonal supercell.


 Subroutine GETGRP returns: Found 16 space group operations
 (whereof 16 operations were pure point group operations)
 out of a pool of 16 trial point group operations.


The dynamic configuration has the point symmetry D_4h.


Analysis of structural, dynamic, and magnetic symmetry:
=====================================================================
 Subroutine PRICEL returns:
 Original cell was already a primitive cell.
 

 Routine SETGRP: Setting up the symmetry group for a 
 simple tetragonal supercell.


 Subroutine GETGRP returns: Found 16 space group operations
 (whereof  2 operations were pure point group operations)
 out of a pool of 16 trial point group operations.


The magnetic configuration has the point symmetry C_1h.
 The point group associated with its full space group is D_4h.


 Subroutine INISYM returns: Found 16 space group operations
 (whereof  2 operations are pure point group operations),
 and found     1 'primitive' translations

 
 
 KPOINTS: automatic KPOINTS                       

Automatic generation of k-mesh.
 generate k-points for:    5    5    6
Space group operators:
 irot       det(A)        alpha          n_x          n_y          n_z        tau_x        tau_y        tau_z
    1     1.000000     0.000001     1.000000     0.000000     0.000000     0.000000     0.000000     0.000000
    2    -1.000000   180.000000     0.707107     0.707107     0.000000     0.000000     0.000000     0.000000
    3    -1.000000     0.000001     1.000000     0.000000     0.000000     0.666667     0.333333     0.500000
    4     1.000000    90.000000     0.000000     0.000000    -1.000000     0.000000     0.333333     0.000000
    5    -1.000000    90.000000     0.000000     0.000000    -1.000000     0.666667     0.000000     0.500000
    6     1.000000   179.999999     0.000000     0.000000     1.000000     0.666667     0.333333     0.000000
    7    -1.000000   179.999999     0.000000     0.000000     1.000000     0.000000     0.000000     0.500000
    8     1.000000    90.000000     0.000000     0.000000     1.000000     0.666667     0.000000     0.000000
    9    -1.000000    90.000000     0.000000     0.000000     1.000000     0.000000     0.333333     0.500000
   10     1.000000   180.000000     0.000000     1.000000     0.000000     0.666667     0.000000     0.500000
   11    -1.000000   180.000000     0.000000     1.000000     0.000000     0.000000     0.333333     0.000000
   12     1.000000   180.000000     0.707107     0.707107     0.000000     0.666667     0.333333     0.500000
   13     1.000000   180.000000     1.000000     0.000000     0.000000     0.000000     0.333333     0.500000
   14    -1.000000   180.000000     1.000000     0.000000     0.000000     0.666667     0.000000     0.000000
   15     1.000000   180.000000     0.707107    -0.707107     0.000000     0.000000     0.000000     0.500000
   16    -1.000000   180.000000     0.707107    -0.707107     0.000000     0.666667     0.333333     0.000000
 
 Subroutine IBZKPT returns following result:
 ===========================================
 
 Found     24 irreducible k-points:
 
 Following reciprocal coordinates:
            Coordinates               Weight
  0.000000  0.000000  0.000000      1.000000
  0.200000  0.000000  0.000000      4.000000
  0.400000  0.000000  0.000000      4.000000
  0.200000  0.200000  0.000000      4.000000
  0.400000  0.200000  0.000000      8.000000
  0.400000  0.400000  0.000000      4.000000
  0.000000  0.000000  0.166667      2.000000
  0.200000  0.000000  0.166667      8.000000
  0.400000  0.000000  0.166667      8.000000
  0.200000  0.200000  0.166667      8.000000
  0.400000  0.200000  0.166667     16.000000
  0.400000  0.400000  0.166667      8.000000
  0.000000  0.000000  0.333333      2.000000
  0.200000  0.000000  0.333333      8.000000
  0.400000  0.000000  0.333333      8.000000
  0.200000  0.200000  0.333333      8.000000
  0.400000  0.200000  0.333333     16.000000
  0.400000  0.400000  0.333333      8.000000
  0.000000  0.000000  0.500000      1.000000
  0.200000  0.000000  0.500000      4.000000
  0.400000  0.000000  0.500000      4.000000
  0.200000  0.200000  0.500000      4.000000
  0.400000  0.200000  0.500000      8.000000
  0.400000  0.400000  0.500000      4.000000
 
 Following cartesian coordinates:
            Coordinates               Weight
  0.000000  0.000000  0.000000      1.000000
  0.024242  0.000000  0.000000      4.000000
  0.048484  0.000000  0.000000      4.000000
  0.024242  0.024242  0.000000      4.000000
  0.048484  0.024242  0.000000      8.000000
  0.048484  0.048484  0.000000      4.000000
  0.000000  0.000000  0.023970      2.000000
  0.024242  0.000000  0.023970      8.000000
  0.048484  0.000000  0.023970      8.000000
  0.024242  0.024242  0.023970      8.000000
  0.048484  0.024242  0.023970     16.000000
  0.048484  0.048484  0.023970      8.000000
  0.000000  0.000000  0.047939      2.000000
  0.024242  0.000000  0.047939      8.000000
  0.048484  0.000000  0.047939      8.000000
  0.024242  0.024242  0.047939      8.000000
  0.048484  0.024242  0.047939     16.000000
  0.048484  0.048484  0.047939      8.000000
  0.000000  0.000000  0.071909      1.000000
  0.024242  0.000000  0.071909      4.000000
  0.048484  0.000000  0.071909      4.000000
  0.024242  0.024242  0.071909      4.000000
  0.048484  0.024242  0.071909      8.000000
  0.048484  0.048484  0.071909      4.000000
 


--------------------------------------------------------------------------------------------------------




 Dimension of arrays:
   k-points           NKPTS =     24   k-points in BZ     NKDIM =     24   number of bands    NBANDS=    112
   number of dos      NEDOS =    301   number of ions     NIONS =     36
   non local maximal  LDIM  =      6   non local SUM 2l+1 LMDIM =     18
   total plane-waves  NPLWV = 139968
   max r-space proj   IRMAX =      1   max aug-charges    IRDMAX=  92271
   dimension x,y,z NGX =    54 NGY =   54 NGZ =   48
   dimension x,y,z NGXF=   108 NGYF=  108 NGZF=   96
   support grid    NGXF=   216 NGYF=  216 NGZF=  192
   ions per type =              18  18
   NGX,Y,Z   is equivalent  to a cutoff of  10.88, 10.88, 11.48 a.u.
   NGXF,Y,Z  is equivalent  to a cutoff of  21.76, 21.76, 22.95 a.u.

 SYSTEM =  AlMn_pv                                 
 POSCAR =  NewRef: 18, @ ['Mn', array([1.37502469, 

 Startparameter for this run:
   NWRITE =      2    write-flag & timer
   PREC   = accura    normal or accurate (medium, high low for compatibility)
   ISTART =      0    job   : 0-new  1-cont  2-samecut
   ICHARG =      2    charge: 1-file 2-atom 10-const
   ISPIN  =      2    spin polarized calculation?
   LNONCOLLINEAR =      F non collinear calculations
   LSORBIT =      F    spin-orbit coupling
   INIWAV =      1    electr: 0-lowe 1-rand  2-diag
   LASPH  =      F    aspherical Exc in radial PAW
   METAGGA=      F    non-selfconsistent MetaGGA calc.

 Electronic Relaxation 1
   ENCUT  =  404.8 eV  29.75 Ry    5.45 a.u.  13.53 13.53 11.41*2*pi/ulx,y,z
   ENINI  =  404.8     initial cutoff
   ENAUG  =  500.7 eV  augmentation charge cutoff
   NELM   =    100;   NELMIN=  4; NELMDL= -8     # of ELM steps 
   EDIFF  = 0.1E-06   stopping-criterion for ELM
   LREAL  =      F    real-space projection
   NLSPLINE    = F    spline interpolate recip. space projectors
   LCOMPAT=      F    compatible to vasp.4.4
   GGA_COMPAT  = T    GGA compatible to vasp.4.4-vasp.4.6
   LMAXPAW     = -100 max onsite density
   LMAXMIX     =    2 max onsite mixed and CHGCAR
   VOSKOWN=      0    Vosko Wilk Nusair interpolation
   ROPT   =    0.00000   0.00000
 Ionic relaxation
   EDIFFG = 0.1E-05   stopping-criterion for IOM
   NSW    =      0    number of steps for IOM
   NBLOCK =      1;   KBLOCK =      1    inner block; outer block 
   IBRION =     -1    ionic relax: 0-MD 1-quasi-New 2-CG
   NFREE  =      0    steps in history (QN), initial steepest desc. (CG)
   ISIF   =      2    stress and relaxation
   IWAVPR =     10    prediction:  0-non 1-charg 2-wave 3-comb
   ISYM   =      2    0-nonsym 1-usesym 2-fastsym
   LCORR  =      T    Harris-Foulkes like correction to forces

   POTIM  = 0.2000    time-step for ionic-motion
   TEIN   =    0.0    initial temperature
   TEBEG  =    0.0;   TEEND  =   0.0 temperature during run
   SMASS  =  -3.00    Nose mass-parameter (am)
   estimated Nose-frequenzy (Omega)   =  0.10E-29 period in steps =****** mass=  -0.156E-26a.u.
   SCALEE = 1.0000    scale energy and forces
   NPACO  =    256;   APACO  = 16.0  distance and # of slots for P.C.
   PSTRESS=    0.0 pullay stress

  Mass of Ions in am
   POMASS =  26.98 54.94
  Ionic Valenz
   ZVAL   =   3.00  7.00
  Atomic Wigner-Seitz radii
   RWIGS  =  -1.00 -1.00
  virtual crystal weights 
   VCA    =   1.00  1.00
   NELECT =     180.0000    total number of electrons
   NUPDOWN=      -1.0000    fix difference up-down

 DOS related values:
   EMIN   =  10.00;   EMAX   =-10.00  energy-range for DOS
   EFERMI =   0.00
   ISMEAR =     1;   SIGMA  =   0.20  broadening in eV -4-tet -1-fermi 0-gaus

 Electronic relaxation 2 (details)
   IALGO  =     58    algorithm
   LDIAG  =      T    sub-space diagonalisation (order eigenvalues)
   LSUBROT=      F    optimize rotation matrix (better conditioning)
   TURBO    =      0    0=normal 1=particle mesh
   IRESTART =      0    0=no restart 2=restart with 2 vectors
   NREBOOT  =      0    no. of reboots
   NMIN     =      0    reboot dimension
   EREF     =   0.00    reference energy to select bands
   IMIX   =      4    mixing-type and parameters
     AMIX     =   0.40;   BMIX     =  1.00
     AMIX_MAG =   1.60;   BMIX_MAG =  1.00
     AMIN     =   0.10
     WC   =   100.;   INIMIX=   1;  MIXPRE=   1;  MAXMIX= -45

 Intra band minimization:
   WEIMIN = 0.0000     energy-eigenvalue tresh-hold
   EBREAK =  0.22E-09  absolut break condition
   DEPER  =   0.30     relativ break condition  

   TIME   =   0.40     timestep for ELM

  volume/ion in A,a.u.               =      13.15        88.72
  Fermi-wavevector in a.u.,A,eV,Ry     =   1.186118  2.241439 19.141722  1.406877
  Thomas-Fermi vector in A             =   2.322298
 
 Write flags
   LWAVE        =      F    write WAVECAR
   LDOWNSAMPLE  =      F    k-point downsampling of WAVECAR
   LCHARG       =      F    write CHGCAR
   LVTOT        =      F    write LOCPOT, total local potential
   LVHAR        =      F    write LOCPOT, Hartree potential only
   LELF         =      F    write electronic localiz. function (ELF)
   LORBIT       =     10    0 simple, 1 ext, 2 COOP (PROOUT), +10 PAW based schemes


 Dipole corrections
   LMONO  =      F    monopole corrections only (constant potential shift)
   LDIPOL =      F    correct potential (dipole corrections)
   IDIPOL =      0    1-x, 2-y, 3-z, 4-all directions 
   EPSILON=  1.0000000 bulk dielectric constant

 Exchange correlation treatment:
   GGA     =    --    GGA type
   LEXCH   =     8    internal setting for exchange type
   VOSKOWN=      0    Vosko Wilk Nusair interpolation
   LHFCALC =     F    Hartree Fock is set to
   LHFONE  =     F    Hartree Fock one center treatment
   AEXX    =    0.0000 exact exchange contribution

 Linear response parameters
   LEPSILON=     F    determine dielectric tensor
   LRPA    =     F    only Hartree local field effects (RPA)
   LNABLA  =     F    use nabla operator in PAW spheres
   LVEL    =     F    velocity operator in full k-point grid
   LINTERFAST=   F  fast interpolation
   KINTER  =     0    interpolate to denser k-point grid
   CSHIFT  =0.1000    complex shift for real part using Kramers Kronig
   OMEGAMAX=  -1.0    maximum frequency
   DEG_THRESHOLD= 0.2000000E-02 threshold for treating states as degnerate
   RTIME   =   -0.100 relaxation time in fs
  (WPLASMAI=    0.000 imaginary part of plasma frequency in eV, 0.658/RTIME)
   DFIELD  = 0.0000000 0.0000000 0.0000000 field for delta impulse in time
 
 Orbital magnetization related:
   ORBITALMAG=     F  switch on orbital magnetization
   LCHIMAG   =     F  perturbation theory with respect to B field
   DQ        =  0.001000  dq finite difference perturbation B field
   LLRAUG    =     F  two centre corrections for induced B field



--------------------------------------------------------------------------------------------------------


 Static calculation
 charge density and potential will be updated during run
 spin polarized calculation
 Conjugate gradient for all bands (Freysoldt, et al. PRB 79, 241103 (2009))
 preconditioned conjugated gradient                                        
 perform sub-space diagonalisation
    before iterative eigenvector-optimisation
 modified Broyden-mixing scheme, WC =      100.0
 initial mixing is a Kerker type mixing with AMIX =  0.4000 and BMIX =      1.0000
 Hartree-type preconditioning will be used
 using additional bands           22
 reciprocal scheme for non local part
 use partial core corrections
 no Harris-corrections to forces 
 use gradient corrections 
 use of overlap-Matrix (Vanderbilt PP)
 Methfessel and Paxton  Order N= 1 SIGMA  =   0.20


--------------------------------------------------------------------------------------------------------


  energy-cutoff  :      404.80
  volume of cell :      473.27
      direct lattice vectors                 reciprocal lattice vectors
     8.250148166  0.000000000  0.000000000     0.121209944  0.000000000  0.000000000
     0.000000000  8.250148166  0.000000000     0.000000000  0.121209944  0.000000000
     0.000000000  0.000000000  6.953274261     0.000000000  0.000000000  0.143817137

  length of vectors
     8.250148166  8.250148166  6.953274261     0.121209944  0.121209944  0.143817137


 
 k-points in units of 2pi/SCALE and weight: automatic KPOINTS                       
   0.00000000  0.00000000  0.00000000       0.007
   0.02424199  0.00000000  0.00000000       0.027
   0.04848398  0.00000000  0.00000000       0.027
   0.02424199  0.02424199  0.00000000       0.027
   0.04848398  0.02424199  0.00000000       0.053
   0.04848398  0.04848398  0.00000000       0.027
   0.00000000  0.00000000  0.02396952       0.013
   0.02424199  0.00000000  0.02396952       0.053
   0.04848398  0.00000000  0.02396952       0.053
   0.02424199  0.02424199  0.02396952       0.053
   0.04848398  0.02424199  0.02396952       0.107
   0.04848398  0.04848398  0.02396952       0.053
   0.00000000  0.00000000  0.04793905       0.013
   0.02424199  0.00000000  0.04793905       0.053
   0.04848398  0.00000000  0.04793905       0.053
   0.02424199  0.02424199  0.04793905       0.053
   0.04848398  0.02424199  0.04793905       0.107
   0.04848398  0.04848398  0.04793905       0.053
   0.00000000  0.00000000  0.07190857       0.007
   0.02424199  0.00000000  0.07190857       0.027
   0.04848398  0.00000000  0.07190857       0.027
   0.02424199  0.02424199  0.07190857       0.027
   0.04848398  0.02424199  0.07190857       0.053
   0.04848398  0.04848398  0.07190857       0.027
 
 k-points in reciprocal lattice and weights: automatic KPOINTS                       
   0.00000000  0.00000000  0.00000000       0.007
   0.20000000  0.00000000  0.00000000       0.027
   0.40000000  0.00000000  0.00000000       0.027
   0.20000000  0.20000000  0.00000000       0.027
   0.40000000  0.20000000  0.00000000       0.053
   0.40000000  0.40000000  0.00000000       0.027
   0.00000000  0.00000000  0.16666667       0.013
   0.20000000  0.00000000  0.16666667       0.053
   0.40000000  0.00000000  0.16666667       0.053
   0.20000000  0.20000000  0.16666667       0.053
   0.40000000  0.20000000  0.16666667       0.107
   0.40000000  0.40000000  0.16666667       0.053
   0.00000000  0.00000000  0.33333333       0.013
   0.20000000  0.00000000  0.33333333       0.053
   0.40000000  0.00000000  0.33333333       0.053
   0.20000000  0.20000000  0.33333333       0.053
   0.40000000  0.20000000  0.33333333       0.107
   0.40000000  0.40000000  0.33333333       0.053
   0.00000000  0.00000000  0.50000000       0.007
   0.20000000  0.00000000  0.50000000       0.027
   0.40000000  0.00000000  0.50000000       0.027
   0.20000000  0.20000000  0.50000000       0.027
   0.40000000  0.20000000  0.50000000       0.053
   0.40000000  0.40000000  0.50000000       0.027
 
 position of ions in fractional coordinates (direct lattice) 
   0.00000000  0.00000000  0.00000000
   0.00000000  0.00000000  0.50000000
   0.00000000  0.33333333  0.00000000
   0.00000000  0.33333333  0.50000000
   0.00000000  0.66666667  0.00000000
   0.00000000  0.66666667  0.50000000
   0.33333333  0.00000000  0.00000000
   0.33333333  0.00000000  0.50000000
   0.33333333  0.33333333  0.00000000
   0.33333333  0.33333333  0.50000000
   0.33333333  0.66666667  0.00000000
   0.33333333  0.66666667  0.50000000
   0.66666667  0.00000000  0.00000000
   0.66666667  0.00000000  0.50000000
   0.66666667  0.33333333  0.00000000
   0.66666667  0.33333333  0.50000000
   0.66666667  0.66666667  0.00000000
   0.66666667  0.66666667  0.50000000
   0.16666667  0.16666667  0.25000000
   0.16666667  0.16666667  0.75000000
   0.16666667  0.50000000  0.25000000
   0.16666667  0.50000000  0.75000000
   0.16666667  0.83333333  0.25000000
   0.16666667  0.83333333  0.75000000
   0.50000000  0.16666667  0.25000000
   0.50000000  0.16666667  0.75000000
   0.50000000  0.50000000  0.25000000
   0.50000000  0.50000000  0.75000000
   0.50000000  0.83333333  0.25000000
   0.50000000  0.83333333  0.75000000
   0.83333333  0.16666667  0.25000000
   0.83333333  0.16666667  0.75000000
   0.83333333  0.50000000  0.25000000
   0.83333333  0.50000000  0.75000000
   0.83333333  0.83333333  0.25000000
   0.83333333  0.83333333  0.75000000
 
 position of ions in cartesian coordinates  (Angst):
   0.00000000  0.00000000  0.00000000
   0.00000000  0.00000000  3.47663713
   0.00000000  2.75004939  0.00000000
   0.00000000  2.75004939  3.47663713
   0.00000000  5.50009878  0.00000000
   0.00000000  5.50009878  3.47663713
   2.75004939  0.00000000  0.00000000
   2.75004939  0.00000000  3.47663713
   2.75004939  2.75004939  0.00000000
   2.75004939  2.75004939  3.47663713
   2.75004939  5.50009878  0.00000000
   2.75004939  5.50009878  3.47663713
   5.50009878  0.00000000  0.00000000
   5.50009878  0.00000000  3.47663713
   5.50009878  2.75004939  0.00000000
   5.50009878  2.75004939  3.47663713
   5.50009878  5.50009878  0.00000000
   5.50009878  5.50009878  3.47663713
   1.37502469  1.37502469  1.73831857
   1.37502469  1.37502469  5.21495570
   1.37502469  4.12507408  1.73831857
   1.37502469  4.12507408  5.21495570
   1.37502469  6.87512347  1.73831857
   1.37502469  6.87512347  5.21495570
   4.12507408  1.37502469  1.73831857
   4.12507408  1.37502469  5.21495570
   4.12507408  4.12507408  1.73831857
   4.12507408  4.12507408  5.21495570
   4.12507408  6.87512347  1.73831857
   4.12507408  6.87512347  5.21495570
   6.87512347  1.37502469  1.73831857
   6.87512347  1.37502469  5.21495570
   6.87512347  4.12507408  1.73831857
   6.87512347  4.12507408  5.21495570
   6.87512347  6.87512347  1.73831857
   6.87512347  6.87512347  5.21495570
 


--------------------------------------------------------------------------------------------------------


 k-point  1 :   0.0000 0.0000 0.0000  plane waves:    8799
 k-point  2 :   0.2000 0.0000 0.0000  plane waves:    8753
 k-point  3 :   0.4000 0.0000 0.0000  plane waves:    8757
 k-point  4 :   0.2000 0.2000 0.0000  plane waves:    8767
 k-point  5 :   0.4000 0.2000 0.0000  plane waves:    8761
 k-point  6 :   0.4000 0.4000 0.0000  plane waves:    8731
 k-point  7 :   0.0000 0.0000 0.1667  plane waves:    8763
 k-point  8 :   0.2000 0.0000 0.1667  plane waves:    8771
 k-point  9 :   0.4000 0.0000 0.1667  plane waves:    8747
 k-point 10 :   0.2000 0.2000 0.1667  plane waves:    8764
 k-point 11 :   0.4000 0.2000 0.1667  plane waves:    8768
 k-point 12 :   0.4000 0.4000 0.1667  plane waves:    8740
 k-point 13 :   0.0000 0.0000 0.3333  plane waves:    8743
 k-point 14 :   0.2000 0.0000 0.3333  plane waves:    8736
 k-point 15 :   0.4000 0.0000 0.3333  plane waves:    8753
 k-point 16 :   0.2000 0.2000 0.3333  plane waves:    8753
 k-point 17 :   0.4000 0.2000 0.3333  plane waves:    8743
 k-point 18 :   0.4000 0.4000 0.3333  plane waves:    8755
 k-point 19 :   0.0000 0.0000 0.5000  plane waves:    8742
 k-point 20 :   0.2000 0.0000 0.5000  plane waves:    8756
 k-point 21 :   0.4000 0.0000 0.5000  plane waves:    8744
 k-point 22 :   0.2000 0.2000 0.5000  plane waves:    8762
 k-point 23 :   0.4000 0.2000 0.5000  plane waves:    8732
 k-point 24 :   0.4000 0.4000 0.5000  plane waves:    8736

 maximum and minimum number of plane-waves per node :      2206     2165

 maximum number of plane-waves:      8799
 maximum index in each direction: 
   IXMAX=   13   IYMAX=   13   IZMAX=   11
   IXMIN=  -13   IYMIN=  -13   IZMIN=  -11


 parallel 3D FFT for wavefunctions:
    minimum data exchange during FFTs selected (reduces bandwidth)
 parallel 3D FFT for charge:
    minimum data exchange during FFTs selected (reduces bandwidth)


 total amount of memory used by VASP MPI-rank0   383621. kBytes
=======================================================================

   base      :      30000. kBytes
   nonl-proj :      16518. kBytes
   fftplans  :      21726. kBytes
   grid      :      14732. kBytes
   one-center:        279. kBytes
   wavefun   :     300366. kBytes
 
     INWAV:  cpu time    0.0000: real time    0.0000
 Broyden mixing: mesh for mixing (old mesh)
   NGX = 27   NGY = 27   NGZ = 23
  (NGX  =108   NGY  =108   NGZ  = 96)
  gives a total of  16767 points

 initial charge density was supplied:
 charge density of overlapping atoms calculated
 number of electron     180.0000000 magnetization       6.0000000
 keeping initial charge density in first step


--------------------------------------------------------------------------------------------------------


 Maximum index for augmentation-charges        11261 (set IRDMAX)


--------------------------------------------------------------------------------------------------------


 First call to EWALD:  gamma=   0.227
 Maximum number of real-space cells 3x 3x 3
 Maximum number of reciprocal cells 3x 3x 3

    FEWALD:  cpu time    0.0085: real time    0.0085


--------------------------------------- Iteration      1(   1)  ---------------------------------------


    POTLOK:  cpu time    0.2482: real time    0.2616
    SETDIJ:  cpu time    0.3192: real time    0.3191
    TRIAL :  cpu time    8.4590: real time    8.5619
    CORREC:  cpu time    0.0031: real time    0.0032
    --------------------------------------------
      LOOP:  cpu time    9.1307: real time    9.2548

 eigenvalue-minimisations  : 10752
 total energy-change (2. order) : 0.1351581E+04  (-0.5903974E+04)
 number of electron     180.0000000 magnetization       6.0000000
 augmentation part      180.0000000 magnetization       6.0000000

 Free energy of the ion-electron system (eV)
  ---------------------------------------------------
  alpha Z        PSCENC =       532.25742704
  Ewald energy   TEWEN  =     -8601.05107233
  -Hartree energ DENC   =     -1903.73857242
  -exchange      EXHF   =         0.00000000
  -V(xc)+E(xc)   XCENC  =      -664.10578080
  PAW double counting   =      8494.55058411    -7650.81563588
  entropy T*S    EENTRO =        -0.01641098
  eigenvalues    EBANDS =      2679.38411618
  atomic energy  EATOM  =      8465.11600846
  ---------------------------------------------------
  free energy    TOTEN  =      1351.58066338 eV

  energy without entropy =     1351.59707436  energy(sigma->0) =     1351.58613371


--------------------------------------------------------------------------------------------------------




--------------------------------------- Iteration      1(   2)  ---------------------------------------


    TRIAL :  cpu time    9.1003: real time    9.1687
    CORREC:  cpu time    0.0038: real time    0.0040
    --------------------------------------------
      LOOP:  cpu time    9.1292: real time    9.1981

 eigenvalue-minimisations  : 10752
 total energy-change (2. order) :-0.1411853E+04  (-0.1378890E+04)
 number of electron     180.0000000 magnetization       6.0000000
 augmentation part      180.0000000 magnetization       6.0000000

 Free energy of the ion-electron system (eV)
  ---------------------------------------------------
  alpha Z        PSCENC =       532.25742704
  Ewald energy   TEWEN  =     -8601.05107233
  -Hartree energ DENC   =     -1903.73857242
  -exchange      EXHF   =         0.00000000
  -V(xc)+E(xc)   XCENC  =      -664.10578080
  PAW double counting   =      8494.55058411    -7650.81563588
  entropy T*S    EENTRO =        -0.00475454
  eigenvalues    EBANDS =      1267.51924686
  atomic energy  EATOM  =      8465.11600846
  ---------------------------------------------------
  free energy    TOTEN  =       -60.27254951 eV

  energy without entropy =      -60.26779496  energy(sigma->0) =      -60.27096466


--------------------------------------------------------------------------------------------------------




--------------------------------------- Iteration      1(   3)  ---------------------------------------


    TRIAL :  cpu time   11.7770: real time   11.8285
    CORREC:  cpu time    0.0046: real time    0.0047
    --------------------------------------------
      LOOP:  cpu time   11.7824: real time   11.8361

 eigenvalue-minimisations  : 16384
 total energy-change (2. order) :-0.1785146E+03  (-0.1602874E+03)
 number of electron     180.0000000 magnetization       6.0000000
 augmentation part      180.0000000 magnetization       6.0000000

 Free energy of the ion-electron system (eV)
  ---------------------------------------------------
  alpha Z        PSCENC =       532.25742704
  Ewald energy   TEWEN  =     -8601.05107233
  -Hartree energ DENC   =     -1903.73857242
  -exchange      EXHF   =         0.00000000
  -V(xc)+E(xc)   XCENC  =      -664.10578080
  PAW double counting   =      8494.55058411    -7650.81563588
  entropy T*S    EENTRO =         0.01238883
  eigenvalues    EBANDS =      1088.98748747
  atomic energy  EATOM  =      8465.11600846
  ---------------------------------------------------
  free energy    TOTEN  =      -238.78716553 eV

  energy without entropy =     -238.79955435  energy(sigma->0) =     -238.79129514


--------------------------------------------------------------------------------------------------------




--------------------------------------- Iteration      1(   4)  ---------------------------------------


    TRIAL :  cpu time   13.0224: real time   13.2234
    CORREC:  cpu time    0.0049: real time    0.0050
    --------------------------------------------
      LOOP:  cpu time   13.0284: real time   13.2315

 eigenvalue-minimisations  : 17480
 total energy-change (2. order) :-0.2796359E+02  (-0.2500442E+02)
 number of electron     180.0000000 magnetization       6.0000000
 augmentation part      180.0000000 magnetization       6.0000000

 Free energy of the ion-electron system (eV)
  ---------------------------------------------------
  alpha Z        PSCENC =       532.25742704
  Ewald energy   TEWEN  =     -8601.05107233
  -Hartree energ DENC   =     -1903.73857242
  -exchange      EXHF   =         0.00000000
  -V(xc)+E(xc)   XCENC  =      -664.10578080
  PAW double counting   =      8494.55058411    -7650.81563588
  entropy T*S    EENTRO =         0.02515069
  eigenvalues    EBANDS =      1061.01113947
  atomic energy  EATOM  =      8465.11600846
  ---------------------------------------------------
  free energy    TOTEN  =      -266.75075166 eV

  energy without entropy =     -266.77590235  energy(sigma->0) =     -266.75913522


--------------------------------------------------------------------------------------------------------




--------------------------------------- Iteration      1(   5)  ---------------------------------------


    TRIAL :  cpu time   12.6354: real time   13.4249
    CORREC:  cpu time    0.0048: real time    0.0050
    --------------------------------------------
      LOOP:  cpu time   12.6414: real time   13.4331

 eigenvalue-minimisations  : 17944
 total energy-change (2. order) :-0.2920012E+01  (-0.2805400E+01)
 number of electron     180.0000000 magnetization       6.0000000
 augmentation part      180.0000000 magnetization       6.0000000

 Free energy of the ion-electron system (eV)
  ---------------------------------------------------
  alpha Z        PSCENC =       532.25742704
  Ewald energy   TEWEN  =     -8601.05107233
  -Hartree energ DENC   =     -1903.73857242
  -exchange      EXHF   =         0.00000000
  -V(xc)+E(xc)   XCENC  =      -664.10578080
  PAW double counting   =      8494.55058411    -7650.81563588
  entropy T*S    EENTRO =         0.02853389
  eigenvalues    EBANDS =      1058.08774456
  atomic energy  EATOM  =      8465.11600846
  ---------------------------------------------------
  free energy    TOTEN  =      -269.67076336 eV

  energy without entropy =     -269.69929725  energy(sigma->0) =     -269.68027466


--------------------------------------------------------------------------------------------------------




--------------------------------------- Iteration      1(   6)  ---------------------------------------


    TRIAL :  cpu time   12.6240: real time   12.7247
    CORREC:  cpu time    0.0050: real time    0.0051
    --------------------------------------------
      LOOP:  cpu time   12.6301: real time   12.7330

 eigenvalue-minimisations  : 17792
 total energy-change (2. order) :-0.2321774E+00  (-0.2277176E+00)
 number of electron     180.0000000 magnetization       6.0000000
 augmentation part      180.0000000 magnetization       6.0000000

 Free energy of the ion-electron system (eV)
  ---------------------------------------------------
  alpha Z        PSCENC =       532.25742704
  Ewald energy   TEWEN  =     -8601.05107233
  -Hartree energ DENC   =     -1903.73857242
  -exchange      EXHF   =         0.00000000
  -V(xc)+E(xc)   XCENC  =      -664.10578080
  PAW double counting   =      8494.55058411    -7650.81563588
  entropy T*S    EENTRO =         0.03008577
  eigenvalues    EBANDS =      1057.85401523
  atomic energy  EATOM  =      8465.11600846
  ---------------------------------------------------
  free energy    TOTEN  =      -269.90294081 eV

  energy without entropy =     -269.93302659  energy(sigma->0) =     -269.91296940


--------------------------------------------------------------------------------------------------------




--------------------------------------- Iteration      1(   7)  ---------------------------------------


    TRIAL :  cpu time   13.3130: real time   13.3910
    CORREC:  cpu time    0.0049: real time    0.0051
    --------------------------------------------
      LOOP:  cpu time   13.3188: real time   13.3993

 eigenvalue-minimisations  : 18216
 total energy-change (2. order) :-0.2324305E-01  (-0.2302329E-01)
 number of electron     180.0000000 magnetization       6.0000000
 augmentation part      180.0000000 magnetization       6.0000000

 Free energy of the ion-electron system (eV)
  ---------------------------------------------------
  alpha Z        PSCENC =       532.25742704
  Ewald energy   TEWEN  =     -8601.05107233
  -Hartree energ DENC   =     -1903.73857242
  -exchange      EXHF   =         0.00000000
  -V(xc)+E(xc)   XCENC  =      -664.10578080
  PAW double counting   =      8494.55058411    -7650.81563588
  entropy T*S    EENTRO =         0.03053743
  eigenvalues    EBANDS =      1057.83032053
  atomic energy  EATOM  =      8465.11600846
  ---------------------------------------------------
  free energy    TOTEN  =      -269.92618386 eV

  energy without entropy =     -269.95672129  energy(sigma->0) =     -269.93636300


--------------------------------------------------------------------------------------------------------




--------------------------------------- Iteration      1(   8)  ---------------------------------------


    TRIAL :  cpu time   12.3548: real time   13.1900
    CORREC:  cpu time    0.0052: real time    0.0053
    CHARGE:  cpu time    0.7291: real time    0.7297
    --------------------------------------------
      LOOP:  cpu time   13.0905: real time   13.9292

 eigenvalue-minimisations  : 17392
 total energy-change (2. order) :-0.1827149E-02  (-0.1814527E-02)
 number of electron     179.9999997 magnetization       4.5285690
 augmentation part       42.8050704 magnetization       2.6027424

 Free energy of the ion-electron system (eV)
  ---------------------------------------------------
  alpha Z        PSCENC =       532.25742704
  Ewald energy   TEWEN  =     -8601.05107233
  -Hartree energ DENC   =     -1903.73857242
  -exchange      EXHF   =         0.00000000
  -V(xc)+E(xc)   XCENC  =      -664.10578080
  PAW double counting   =      8494.55058411    -7650.81563588
  entropy T*S    EENTRO =         0.03066894
  eigenvalues    EBANDS =      1057.82836187
  atomic energy  EATOM  =      8465.11600846
  ---------------------------------------------------
  free energy    TOTEN  =      -269.92801101 eV

  energy without entropy =     -269.95867995  energy(sigma->0) =     -269.93823399


--------------------------------------------------------------------------------------------------------




--------------------------------------- Iteration      1(   9)  ---------------------------------------


    POTLOK:  cpu time    0.2511: real time    0.2513
    SETDIJ:  cpu time    0.3237: real time    0.3237
    TRIAL :  cpu time    4.2630: real time    4.2778
    CORREC:  cpu time    2.4158: real time    2.4953
    CHARGE:  cpu time    0.7153: real time    1.3638
    --------------------------------------------
      LOOP:  cpu time    7.9823: real time    8.7266

 eigenvalue-minimisations  :     0
 total energy-change (2. order) : 0.1999238E+03  (-0.1448426E+03)
 number of electron     179.9999996 magnetization       4.5257045
 augmentation part       55.0739231 magnetization       2.9787927

 Free energy of the ion-electron system (eV)
  ---------------------------------------------------
  alpha Z        PSCENC =       532.25742704
  Ewald energy   TEWEN  =     -8601.05107233
  -Hartree energ DENC   =      -849.05145814
  -exchange      EXHF   =         0.00000000
  -V(xc)+E(xc)   XCENC  =      -694.00142908
  PAW double counting   =     12781.63108564   -11835.46057502
  entropy T*S    EENTRO =         0.03267766
  eigenvalues    EBANDS =       130.52514714
  atomic energy  EATOM  =      8465.11600846
  ---------------------------------------------------
  free energy    TOTEN  =       -70.00419735 eV

  energy without entropy =      -70.03687502  energy(sigma->0) =      -70.01508991


--------------------------------------------------------------------------------------------------------




--------------------------------------- Iteration      1(  10)  ---------------------------------------


    POTLOK:  cpu time    0.2474: real time    0.2474
    SETDIJ:  cpu time    0.3592: real time    0.3592
    TRIAL :  cpu time    4.2564: real time    4.2629
    CORREC:  cpu time    2.1018: real time    2.1026
    CHARGE:  cpu time    0.7317: real time    0.7319
    --------------------------------------------
      LOOP:  cpu time    7.6991: real time    7.7074

 eigenvalue-minimisations  :     0
 total energy-change (2. order) :-0.1430381E+03  (-0.8800028E+01)
 number of electron     179.9999996 magnetization       4.7660362
 augmentation part       58.3162332 magnetization       3.2581323

 Free energy of the ion-electron system (eV)
  ---------------------------------------------------
  alpha Z        PSCENC =       532.25742704
  Ewald energy   TEWEN  =     -8601.05107233
  -Hartree energ DENC   =     -1408.56548573
  -exchange      EXHF   =         0.00000000
  -V(xc)+E(xc)   XCENC  =      -674.48106526
  PAW double counting   =     13779.62221549   -12954.94652996
  entropy T*S    EENTRO =         0.04105177
  eigenvalues    EBANDS =       648.97354071
  atomic energy  EATOM  =      8465.11600846
  ---------------------------------------------------
  free energy    TOTEN  =      -213.04228392 eV

  energy without entropy =     -213.08333569  energy(sigma->0) =     -213.05596784


--------------------------------------------------------------------------------------------------------




--------------------------------------- Iteration      1(  11)  ---------------------------------------


    POTLOK:  cpu time    0.2502: real time    0.2591
    SETDIJ:  cpu time    0.3183: real time    0.3188
    TRIAL :  cpu time    4.2339: real time    4.2667
    CORREC:  cpu time    2.1070: real time    2.1211
    CHARGE:  cpu time    0.7106: real time    0.7110
    --------------------------------------------
      LOOP:  cpu time    7.6215: real time    7.6793

 eigenvalue-minimisations  :     0
 total energy-change (2. order) :-0.8563437E+01  (-0.8979890E+01)
 number of electron     179.9999996 magnetization       4.6354522
 augmentation part       59.0693303 magnetization       3.1623941

 Free energy of the ion-electron system (eV)
  ---------------------------------------------------
  alpha Z        PSCENC =       532.25742704
  Ewald energy   TEWEN  =     -8601.05107233
  -Hartree energ DENC   =     -1603.36739196
  -exchange      EXHF   =         0.00000000
  -V(xc)+E(xc)   XCENC  =      -667.43409547
  PAW double counting   =     14533.72362915   -13740.97114464
  entropy T*S    EENTRO =         0.02506779
  eigenvalues    EBANDS =       860.07986719
  atomic energy  EATOM  =      8465.11600846
  ---------------------------------------------------
  free energy    TOTEN  =      -221.60572080 eV

  energy without entropy =     -221.63078859  energy(sigma->0) =     -221.61407673


--------------------------------------------------------------------------------------------------------




--------------------------------------- Iteration      1(  12)  ---------------------------------------


    POTLOK:  cpu time    0.2441: real time    0.2624
    SETDIJ:  cpu time    0.3164: real time    0.3165
    TRIAL :  cpu time    4.2250: real time    4.2284
    CORREC:  cpu time    2.1260: real time    2.1972
    CHARGE:  cpu time    0.7087: real time    0.7097
    --------------------------------------------
      LOOP:  cpu time    7.6502: real time    7.7454

 eigenvalue-minimisations  :     0
 total energy-change (2. order) :-0.9135042E+01  (-0.4650092E+01)
 number of electron     179.9999996 magnetization       4.6865184
 augmentation part       57.9715610 magnetization       3.1935784

 Free energy of the ion-electron system (eV)
  ---------------------------------------------------
  alpha Z        PSCENC =       532.25742704
  Ewald energy   TEWEN  =     -8601.05107233
  -Hartree energ DENC   =     -1711.12203468
  -exchange      EXHF   =         0.00000000
  -V(xc)+E(xc)   XCENC  =      -664.16793020
  PAW double counting   =     14416.62417261   -13615.68238910
  entropy T*S    EENTRO =         0.02790917
  eigenvalues    EBANDS =       947.25998715
  atomic energy  EATOM  =      8465.11600846
  ---------------------------------------------------
  free energy    TOTEN  =      -230.74076327 eV

  energy without entropy =     -230.76867244  energy(sigma->0) =     -230.75006633


--------------------------------------------------------------------------------------------------------




--------------------------------------- Iteration      1(  13)  ---------------------------------------


    POTLOK:  cpu time    0.2471: real time    0.2474
    SETDIJ:  cpu time    0.3539: real time    0.3579
    TRIAL :  cpu time    4.1720: real time    4.2302
    CORREC:  cpu time    2.0984: real time    2.1002
    CHARGE:  cpu time    0.7122: real time    0.7122
    --------------------------------------------
      LOOP:  cpu time    7.5864: real time    7.6507

 eigenvalue-minimisations  :     0
 total energy-change (2. order) :-0.4605531E+01  (-0.7281960E+00)
 number of electron     179.9999996 magnetization       4.5367223
 augmentation part       57.3748233 magnetization       3.1499719

 Free energy of the ion-electron system (eV)
  ---------------------------------------------------
  alpha Z        PSCENC =       532.25742704
  Ewald energy   TEWEN  =     -8601.05107233
  -Hartree energ DENC   =     -1687.64887787
  -exchange      EXHF   =         0.00000000
  -V(xc)+E(xc)   XCENC  =      -665.36172317
  PAW double counting   =     14188.96462285   -13364.82922291
  entropy T*S    EENTRO =         0.02453477
  eigenvalues    EBANDS =       897.17863410
  atomic energy  EATOM  =      8465.11600846
  ---------------------------------------------------
  free energy    TOTEN  =      -235.34629467 eV

  energy without entropy =     -235.37082943  energy(sigma->0) =     -235.35447292


--------------------------------------------------------------------------------------------------------




--------------------------------------- Iteration      1(  14)  ---------------------------------------


    POTLOK:  cpu time    0.2475: real time    0.2475
    SETDIJ:  cpu time    1.0571: real time    1.0695
    TRIAL :  cpu time    4.2466: real time    4.2575
    CORREC:  cpu time    2.0855: real time    2.0872
    CHARGE:  cpu time    0.7417: real time    0.7704
    --------------------------------------------
      LOOP:  cpu time    8.7114: real time    8.7653

 eigenvalue-minimisations  :     0
 total energy-change (2. order) :-0.7224371E+00  (-0.8635447E+00)
 number of electron     179.9999996 magnetization       4.5920728
 augmentation part       57.3131817 magnetization       3.0924317

 Free energy of the ion-electron system (eV)
  ---------------------------------------------------
  alpha Z        PSCENC =       532.25742704
  Ewald energy   TEWEN  =     -8601.05107233
  -Hartree energ DENC   =     -1655.31728944
  -exchange      EXHF   =         0.00000000
  -V(xc)+E(xc)   XCENC  =      -666.57259705
  PAW double counting   =     13888.09270149   -13054.66974078
  entropy T*S    EENTRO =         0.02356081
  eigenvalues    EBANDS =       856.05129603
  atomic energy  EATOM  =      8465.11600846
  ---------------------------------------------------
  free energy    TOTEN  =      -236.06873181 eV

  energy without entropy =     -236.09229262  energy(sigma->0) =     -236.07658541


--------------------------------------------------------------------------------------------------------




--------------------------------------- Iteration      1(  15)  ---------------------------------------


    POTLOK:  cpu time    0.2482: real time    0.2482
    SETDIJ:  cpu time    0.3527: real time    0.3526
    TRIAL :  cpu time    4.2294: real time    4.2572
    CORREC:  cpu time    2.0157: real time    2.8216
    CHARGE:  cpu time    0.7101: real time    0.7102
    --------------------------------------------
      LOOP:  cpu time    7.5575: real time    8.3921

 eigenvalue-minimisations  :     0
 total energy-change (2. order) :-0.8632184E+00  (-0.3594279E+00)
 number of electron     179.9999996 magnetization       4.5984596
 augmentation part       57.8820123 magnetization       3.1026007

 Free energy of the ion-electron system (eV)
  ---------------------------------------------------
  alpha Z        PSCENC =       532.25742704
  Ewald energy   TEWEN  =     -8601.05107233
  -Hartree energ DENC   =     -1640.23564907
  -exchange      EXHF   =         0.00000000
  -V(xc)+E(xc)   XCENC  =      -667.07379524
  PAW double counting   =     13298.63065158   -12460.75016617
  entropy T*S    EENTRO =         0.02285799
  eigenvalues    EBANDS =       836.15108468
  atomic energy  EATOM  =      8465.11600846
  ---------------------------------------------------
  free energy    TOTEN  =      -236.93195024 eV

  energy without entropy =     -236.95480823  energy(sigma->0) =     -236.93956957


--------------------------------------------------------------------------------------------------------




--------------------------------------- Iteration      1(  16)  ---------------------------------------


    POTLOK:  cpu time    0.2473: real time    0.2473
    SETDIJ:  cpu time    0.3344: real time    0.3344
    TRIAL :  cpu time    4.1699: real time    4.1817
    CORREC:  cpu time    2.0823: real time    2.0838
    CHARGE:  cpu time    0.7056: real time    0.7060
    --------------------------------------------
      LOOP:  cpu time    7.5681: real time    7.5829

 eigenvalue-minimisations  :     0
 total energy-change (2. order) :-0.3616889E+00  (-0.1153025E+00)
 number of electron     179.9999996 magnetization       4.5007733
 augmentation part       58.1151036 magnetization       3.0768819

 Free energy of the ion-electron system (eV)
  ---------------------------------------------------
  alpha Z        PSCENC =       532.25742704
  Ewald energy   TEWEN  =     -8601.05107233
  -Hartree energ DENC   =     -1663.47116399
  -exchange      EXHF   =         0.00000000
  -V(xc)+E(xc)   XCENC  =      -666.15163605
  PAW double counting   =     13101.96428308   -12269.09744130
  entropy T*S    EENTRO =         0.02087215
  eigenvalues    EBANDS =       863.11709797
  atomic energy  EATOM  =      8465.11600846
  ---------------------------------------------------
  free energy    TOTEN  =      -237.29363914 eV

  energy without entropy =     -237.31451128  energy(sigma->0) =     -237.30059652


--------------------------------------------------------------------------------------------------------




--------------------------------------- Iteration      1(  17)  ---------------------------------------


    POTLOK:  cpu time    0.2472: real time    0.2472
    SETDIJ:  cpu time    0.3367: real time    0.3524
    TRIAL :  cpu time    4.1844: real time    4.9672
    CORREC:  cpu time    2.1530: real time    2.1547
    CHARGE:  cpu time    0.7060: real time    0.7065
    --------------------------------------------
      LOOP:  cpu time    7.6312: real time    8.4325

 eigenvalue-minimisations  :     0
 total energy-change (2. order) :-0.1169060E+00  (-0.2127846E+00)
 number of electron     179.9999996 magnetization       4.4608112
 augmentation part       58.1817435 magnetization       3.0893592

 Free energy of the ion-electron system (eV)
  ---------------------------------------------------
  alpha Z        PSCENC =       532.25742704
  Ewald energy   TEWEN  =     -8601.05107233
  -Hartree energ DENC   =     -1673.66596350
  -exchange      EXHF   =         0.00000000
  -V(xc)+E(xc)   XCENC  =      -665.72017342
  PAW double counting   =     13057.97995853   -12227.46508241
  entropy T*S    EENTRO =         0.02074960
  eigenvalues    EBANDS =       875.11748038
  atomic energy  EATOM  =      8465.11600846
  ---------------------------------------------------
  free energy    TOTEN  =      -237.41054511 eV

  energy without entropy =     -237.43129471  energy(sigma->0) =     -237.41746165


--------------------------------------------------------------------------------------------------------




--------------------------------------- Iteration      1(  18)  ---------------------------------------


    POTLOK:  cpu time    0.2481: real time    0.2481
    SETDIJ:  cpu time    0.3536: real time    0.3540
    TRIAL :  cpu time    4.1795: real time    4.2096
    CORREC:  cpu time    2.1286: real time    2.1391
    CHARGE:  cpu time    0.7072: real time    0.7077
    --------------------------------------------
      LOOP:  cpu time    7.6204: real time    7.6624

 eigenvalue-minimisations  :     0
 total energy-change (2. order) :-0.2128254E+00  (-0.6289645E-01)
 number of electron     179.9999996 magnetization       4.4609494
 augmentation part       57.9726936 magnetization       3.0834556

 Free energy of the ion-electron system (eV)
  ---------------------------------------------------
  alpha Z        PSCENC =       532.25742704
  Ewald energy   TEWEN  =     -8601.05107233
  -Hartree energ DENC   =     -1674.13553475
  -exchange      EXHF   =         0.00000000
  -V(xc)+E(xc)   XCENC  =      -665.43553273
  PAW double counting   =     12998.67897779   -12169.00061434
  entropy T*S    EENTRO =         0.02111095
  eigenvalues    EBANDS =       875.92622072
  atomic energy  EATOM  =      8465.11600846
  ---------------------------------------------------
  free energy    TOTEN  =      -237.62337056 eV

  energy without entropy =     -237.64448151  energy(sigma->0) =     -237.63040754


--------------------------------------------------------------------------------------------------------




--------------------------------------- Iteration      1(  19)  ---------------------------------------


    POTLOK:  cpu time    0.2476: real time    0.2476
    SETDIJ:  cpu time    0.3192: real time    0.3193
    TRIAL :  cpu time    4.2119: real time    4.2364
    CORREC:  cpu time    2.0842: real time    2.0853
    CHARGE:  cpu time    0.7119: real time    0.7125
    --------------------------------------------
      LOOP:  cpu time    7.5783: real time    7.6051

 eigenvalue-minimisations  :     0
 total energy-change (2. order) :-0.6274846E-01  (-0.5158830E-01)
 number of electron     179.9999996 magnetization       4.4096739
 augmentation part       57.8001800 magnetization       3.0686045

 Free energy of the ion-electron system (eV)
  ---------------------------------------------------
  alpha Z        PSCENC =       532.25742704
  Ewald energy   TEWEN  =     -8601.05107233
  -Hartree energ DENC   =     -1663.21727227
  -exchange      EXHF   =         0.00000000
  -V(xc)+E(xc)   XCENC  =      -665.73552232
  PAW double counting   =     12976.72130364   -12144.87011670
  entropy T*S    EENTRO =         0.02164052
  eigenvalues    EBANDS =       863.07201451
  atomic energy  EATOM  =      8465.11600846
  ---------------------------------------------------
  free energy    TOTEN  =      -237.68611901 eV

  energy without entropy =     -237.70775954  energy(sigma->0) =     -237.69333252


--------------------------------------------------------------------------------------------------------




--------------------------------------- Iteration      1(  20)  ---------------------------------------


    POTLOK:  cpu time    0.2472: real time    0.2475
    SETDIJ:  cpu time    0.3228: real time    0.3233
    TRIAL :  cpu time    4.2227: real time    4.3004
    CORREC:  cpu time    2.0763: real time    2.1286
    CHARGE:  cpu time    0.7301: real time    0.7302
    --------------------------------------------
      LOOP:  cpu time    7.6019: real time    7.7335

 eigenvalue-minimisations  :     0
 total energy-change (2. order) :-0.5160056E-01  (-0.4926215E-01)
 number of electron     179.9999996 magnetization       4.4147974
 augmentation part       57.8696828 magnetization       3.0719854

 Free energy of the ion-electron system (eV)
  ---------------------------------------------------
  alpha Z        PSCENC =       532.25742704
  Ewald energy   TEWEN  =     -8601.05107233
  -Hartree energ DENC   =     -1656.11076616
  -exchange      EXHF   =         0.00000000
  -V(xc)+E(xc)   XCENC  =      -665.91184010
  PAW double counting   =     12969.72717709   -12136.30047178
  entropy T*S    EENTRO =         0.02279753
  eigenvalues    EBANDS =       854.51417770
  atomic energy  EATOM  =      8465.11600846
  ---------------------------------------------------
  free energy    TOTEN  =      -237.73771957 eV

  energy without entropy =     -237.76051710  energy(sigma->0) =     -237.74531875


--------------------------------------------------------------------------------------------------------




--------------------------------------- Iteration      1(  21)  ---------------------------------------


    POTLOK:  cpu time    0.2467: real time    0.2467
    SETDIJ:  cpu time    0.3209: real time    0.3210
    TRIAL :  cpu time    4.9388: real time    4.9507
    CORREC:  cpu time    2.1049: real time    2.1188
    CHARGE:  cpu time    0.7294: real time    0.7297
    --------------------------------------------
      LOOP:  cpu time    8.3458: real time    8.3729

 eigenvalue-minimisations  :     0
 total energy-change (2. order) :-0.4927862E-01  (-0.1169760E-01)
 number of electron     179.9999996 magnetization       4.3908530
 augmentation part       57.9272231 magnetization       3.0616290

 Free energy of the ion-electron system (eV)
  ---------------------------------------------------
  alpha Z        PSCENC =       532.25742704
  Ewald energy   TEWEN  =     -8601.05107233
  -Hartree energ DENC   =     -1662.35680705
  -exchange      EXHF   =         0.00000000
  -V(xc)+E(xc)   XCENC  =      -665.60669367
  PAW double counting   =     12989.85500578   -12157.63007156
  entropy T*S    EENTRO =         0.02283622
  eigenvalues    EBANDS =       861.60640761
  atomic energy  EATOM  =      8465.11600846
  ---------------------------------------------------
  free energy    TOTEN  =      -237.78699819 eV

  energy without entropy =     -237.80983441  energy(sigma->0) =     -237.79461026


--------------------------------------------------------------------------------------------------------




--------------------------------------- Iteration      1(  22)  ---------------------------------------


    POTLOK:  cpu time    0.2515: real time    0.2516
    SETDIJ:  cpu time    0.3261: real time    0.3260
    TRIAL :  cpu time    4.1792: real time    4.2013
    CORREC:  cpu time    2.0743: real time    2.0794
    CHARGE:  cpu time    0.7243: real time    0.7416
    --------------------------------------------
      LOOP:  cpu time    7.5570: real time    7.6023

 eigenvalue-minimisations  :     0
 total energy-change (2. order) :-0.1172166E-01  (-0.1444099E-01)
 number of electron     179.9999996 magnetization       4.3754812
 augmentation part       58.0072827 magnetization       3.0589670

 Free energy of the ion-electron system (eV)
  ---------------------------------------------------
  alpha Z        PSCENC =       532.25742704
  Ewald energy   TEWEN  =     -8601.05107233
  -Hartree energ DENC   =     -1665.97408844
  -exchange      EXHF   =         0.00000000
  -V(xc)+E(xc)   XCENC  =      -665.46244306
  PAW double counting   =     12997.87388086   -12166.35881241
  entropy T*S    EENTRO =         0.02345983
  eigenvalues    EBANDS =       865.77754383
  atomic energy  EATOM  =      8465.11600846
  ---------------------------------------------------
  free energy    TOTEN  =      -237.79871985 eV

  energy without entropy =     -237.82217968  energy(sigma->0) =     -237.80653979


--------------------------------------------------------------------------------------------------------




--------------------------------------- Iteration      1(  23)  ---------------------------------------


    POTLOK:  cpu time    0.2470: real time    0.2470
    SETDIJ:  cpu time    0.3254: real time    0.3254
    TRIAL :  cpu time    4.1470: real time    4.9387
    CORREC:  cpu time    2.0652: real time    2.0740
    CHARGE:  cpu time    0.7304: real time    0.7304
    --------------------------------------------
      LOOP:  cpu time    7.5191: real time    8.3204

 eigenvalue-minimisations  :     0
 total energy-change (2. order) :-0.1442556E-01  (-0.1412935E-01)
 number of electron     179.9999996 magnetization       4.3693974
 augmentation part       57.9737405 magnetization       3.0497297

 Free energy of the ion-electron system (eV)
  ---------------------------------------------------
  alpha Z        PSCENC =       532.25742704
  Ewald energy   TEWEN  =     -8601.05107233
  -Hartree energ DENC   =     -1670.44752819
  -exchange      EXHF   =         0.00000000
  -V(xc)+E(xc)   XCENC  =      -665.26616440
  PAW double counting   =     13003.27721514   -12172.63780230
  entropy T*S    EENTRO =         0.02439568
  eigenvalues    EBANDS =       870.91531134
  atomic energy  EATOM  =      8465.11600846
  ---------------------------------------------------
  free energy    TOTEN  =      -237.81314541 eV

  energy without entropy =     -237.83754109  energy(sigma->0) =     -237.82127730


--------------------------------------------------------------------------------------------------------




--------------------------------------- Iteration      1(  24)  ---------------------------------------


    POTLOK:  cpu time    0.2471: real time    0.2472
    SETDIJ:  cpu time    0.3219: real time    0.3219
    TRIAL :  cpu time    4.2253: real time    4.2407
    CORREC:  cpu time    2.0840: real time    2.1597
    CHARGE:  cpu time    0.8660: real time    1.5274
    --------------------------------------------
      LOOP:  cpu time    7.7564: real time    8.5100

 eigenvalue-minimisations  :     0
 total energy-change (2. order) :-0.1413044E-01  (-0.8234242E-02)
 number of electron     179.9999996 magnetization       4.3603140
 augmentation part       57.9074314 magnetization       3.0432234

 Free energy of the ion-electron system (eV)
  ---------------------------------------------------
  alpha Z        PSCENC =       532.25742704
  Ewald energy   TEWEN  =     -8601.05107233
  -Hartree energ DENC   =     -1668.56139419
  -exchange      EXHF   =         0.00000000
  -V(xc)+E(xc)   XCENC  =      -665.28369196
  PAW double counting   =     12996.68902243   -12165.56063709
  entropy T*S    EENTRO =         0.02477218
  eigenvalues    EBANDS =       868.54266612
  atomic energy  EATOM  =      8465.11600846
  ---------------------------------------------------
  free energy    TOTEN  =      -237.82727585 eV

  energy without entropy =     -237.85204803  energy(sigma->0) =     -237.83553324


--------------------------------------------------------------------------------------------------------




--------------------------------------- Iteration      1(  25)  ---------------------------------------


    POTLOK:  cpu time    0.2477: real time    0.2477
    SETDIJ:  cpu time    0.3232: real time    0.3231
    TRIAL :  cpu time    4.2761: real time    4.2795
    CORREC:  cpu time    2.0697: real time    2.0719
    CHARGE:  cpu time    0.7194: real time    0.7194
    --------------------------------------------
      LOOP:  cpu time    7.6397: real time    7.6459

 eigenvalue-minimisations  :     0
 total energy-change (2. order) :-0.8238227E-02  (-0.9375357E-02)
 number of electron     179.9999996 magnetization       4.3532930
 augmentation part       57.9257420 magnetization       3.0459172

 Free energy of the ion-electron system (eV)
  ---------------------------------------------------
  alpha Z        PSCENC =       532.25742704
  Ewald energy   TEWEN  =     -8601.05107233
  -Hartree energ DENC   =     -1664.72632042
  -exchange      EXHF   =         0.00000000
  -V(xc)+E(xc)   XCENC  =      -665.37218213
  PAW double counting   =     12988.34449424   -12156.37362298
  entropy T*S    EENTRO =         0.02514293
  eigenvalues    EBANDS =       863.94498186
  atomic energy  EATOM  =      8465.11600846
  ---------------------------------------------------
  free energy    TOTEN  =      -237.83551408 eV

  energy without entropy =     -237.86065701  energy(sigma->0) =     -237.84389505


--------------------------------------------------------------------------------------------------------




--------------------------------------- Iteration      1(  26)  ---------------------------------------


    POTLOK:  cpu time    0.2470: real time    0.2471
    SETDIJ:  cpu time    0.3164: real time    0.3279
    TRIAL :  cpu time    4.1750: real time    4.2245
    CORREC:  cpu time    2.1121: real time    2.1133
    CHARGE:  cpu time    0.7090: real time    0.7225
    --------------------------------------------
      LOOP:  cpu time    7.5785: real time    7.6552

 eigenvalue-minimisations  :     0
 total energy-change (2. order) :-0.9345572E-02  (-0.2820742E-02)
 number of electron     179.9999996 magnetization       4.3477175
 augmentation part       57.9677528 magnetization       3.0469402

 Free energy of the ion-electron system (eV)
  ---------------------------------------------------
  alpha Z        PSCENC =       532.25742704
  Ewald energy   TEWEN  =     -8601.05107233
  -Hartree energ DENC   =     -1665.05801869
  -exchange      EXHF   =         0.00000000
  -V(xc)+E(xc)   XCENC  =      -665.27535608
  PAW double counting   =     12987.46056476   -12155.58124133
  entropy T*S    EENTRO =         0.02522127
  eigenvalues    EBANDS =       864.26168560
  atomic energy  EATOM  =      8465.11600846
  ---------------------------------------------------
[...]
  8.439  14.381   0.000   0.000  -0.000   0.001   0.001  -0.001
 14.381  24.507   0.000   0.001  -0.000   0.001   0.002  -0.001
  0.000   0.000   1.996  -0.000   0.000   5.749  -0.000   0.000
  0.000   0.001  -0.000   1.996   0.000  -0.000   5.747   0.000
 -0.000  -0.000   0.000   0.000   1.996   0.000   0.000   5.749
  0.001   0.001   5.749  -0.000   0.000  16.475  -0.000   0.001
  0.001   0.002  -0.000   5.747   0.000  -0.000  16.471   0.000
 -0.001  -0.001   0.000   0.000   5.749   0.001   0.000  16.475
 total augmentation occupancy for first ion, spin component:           1
  4.376  -1.249  -0.003   0.001   0.003   0.000  -0.000  -0.000
 -1.249   0.376  -0.000  -0.000   0.000  -0.000  -0.000   0.000
 -0.003  -0.000   1.413  -0.001  -0.007  -0.101   0.000   0.000
  0.001  -0.000  -0.001   1.507   0.001   0.000  -0.102  -0.000
  0.003   0.000  -0.007   0.001   1.413   0.000  -0.000  -0.101
  0.000  -0.000  -0.101   0.000   0.000   0.008  -0.000   0.000
 -0.000  -0.000   0.000  -0.102  -0.000  -0.000   0.007   0.000
 -0.000   0.000   0.000  -0.000  -0.101   0.000   0.000   0.008
 total augmentation occupancy for first ion, spin component:           2
 -0.058   0.018  -0.017  -0.073   0.017   0.001   0.002  -0.001
  0.018  -0.006  -0.002  -0.016   0.002   0.000   0.002  -0.000
 -0.017  -0.002  -0.025   0.022   0.013   0.002  -0.000  -0.000
 -0.073  -0.016   0.022  -0.035  -0.022  -0.000   0.002   0.000
  0.017   0.002   0.013  -0.022  -0.025  -0.000   0.000   0.002
  0.001   0.000   0.002  -0.000  -0.000  -0.000  -0.000  -0.000
  0.002   0.002  -0.000   0.002   0.000  -0.000  -0.000   0.000
 -0.001  -0.000  -0.000   0.000   0.002  -0.000   0.000  -0.000


------------------------ aborting loop because EDIFF is reached ----------------------------------------


 


 total charge     
 
# of ion       s       p       d       tot
------------------------------------------
    1        0.405   0.428   0.000   0.833
    2        0.405   0.428   0.000   0.834
    3        0.405   0.428   0.000   0.834
    4        0.406   0.428   0.000   0.834
    5        0.405   0.427   0.000   0.832
    6        0.405   0.427   0.000   0.832
    7        0.405   0.427   0.000   0.833
    8        0.405   0.427   0.000   0.832
    9        0.405   0.427   0.000   0.832
   10        0.405   0.427   0.000   0.833
   11        0.405   0.427   0.000   0.833
   12        0.405   0.427   0.000   0.833
   13        0.406   0.428   0.000   0.834
   14        0.405   0.428   0.000   0.834
   15        0.405   0.428   0.000   0.834
   16        0.405   0.428   0.000   0.833
   17        0.405   0.427   0.000   0.832
   18        0.405   0.427   0.000   0.832
   19        0.333   0.355   5.130   5.819
   20        0.334   0.353   5.155   5.842
   21        0.334   0.351   5.132   5.817
   22        0.333   0.353   5.139   5.826
   23        0.334   0.351   5.136   5.822
   24        0.333   0.353   5.130   5.815
   25        0.333   0.355   5.130   5.819
   26        0.334   0.353   5.155   5.842
   27        0.334   0.351   5.136   5.822
   28        0.333   0.353   5.130   5.815
   29        0.334   0.351   5.132   5.817
   30        0.333   0.353   5.139   5.826
   31        0.334   0.345   5.146   5.825
   32        0.335   0.352   5.141   5.828
   33        0.334   0.354   5.126   5.814
   34        0.335   0.358   5.092   5.784
   35        0.334   0.354   5.126   5.814
   36        0.335   0.358   5.092   5.784
--------------------------------------------------
tot         13.305  14.050  92.368 119.723
 


 magnetization (x)
 
# of ion       s       p       d       tot
------------------------------------------
    1       -0.004  -0.009   0.000  -0.013
    2       -0.004  -0.009   0.000  -0.013
    3       -0.004  -0.010   0.000  -0.014
    4       -0.004  -0.008   0.000  -0.012
    5       -0.001  -0.001   0.000  -0.002
    6       -0.001  -0.001   0.000  -0.002
    7       -0.001  -0.000   0.000  -0.001
    8       -0.001  -0.000   0.000  -0.001
    9       -0.001  -0.000   0.000  -0.001
   10       -0.001  -0.000   0.000  -0.001
   11        0.001  -0.000   0.000   0.000
   12        0.001  -0.000   0.000   0.000
   13       -0.004  -0.008   0.000  -0.012
   14       -0.004  -0.010   0.000  -0.014
   15       -0.004  -0.009   0.000  -0.013
   16       -0.004  -0.009   0.000  -0.013
   17       -0.001  -0.001   0.000  -0.002
   18       -0.001  -0.001   0.000  -0.002
   19        0.013   0.026   2.316   2.355
   20       -0.023  -0.026  -2.412  -2.460
   21        0.016   0.017   2.344   2.378
   22       -0.011  -0.014  -2.301  -2.325
   23        0.016   0.017   2.337   2.371
   24       -0.011  -0.013  -2.303  -2.328
   25        0.013   0.026   2.316   2.355
   26       -0.023  -0.026  -2.412  -2.460
   27        0.016   0.017   2.337   2.371
   28       -0.011  -0.013  -2.303  -2.328
   29        0.016   0.017   2.344   2.378
   30       -0.011  -0.014  -2.301  -2.325
   31        0.022   0.010   2.368   2.400
   32        0.029   0.025   2.089   2.144
   33        0.013   0.025   2.311   2.349
   34       -0.022  -0.027  -2.433  -2.481
   35        0.013   0.025   2.311   2.349
   36       -0.022  -0.027  -2.433  -2.481
--------------------------------------------------
tot         -0.001  -0.032   4.174   4.141
 
    FORLOC:  cpu time    0.0285: real time    0.0285
    FORNL :  cpu time    7.0730: real time    7.1037
    STRESS:  cpu time   11.4603: real time   11.5422
    FORCOR:  cpu time    0.2692: real time    0.2691
    OFIELD:  cpu time    0.0015: real time    0.0015

  FORCE on cell =-STRESS in cart. coord.  units (eV):
  Direction    XX          YY          ZZ          XY          YZ          ZX
  --------------------------------------------------------------------------------------
  Alpha Z   532.25743   532.25743   532.25743
  Ewald   -2702.40749 -2702.40749 -3196.26924    -0.00000    -0.00000    -0.00000
  Hartree   724.13729   724.13729   218.25764    -0.00000    -0.00000    -0.00000
  E(xc)    -761.37013  -761.37013  -759.24108     0.00000    -0.00000    -0.00000
  Local     241.62436   241.62436  1277.62996     0.00000     0.00000    -0.00000
  n-local  -114.12060  -111.74523  -116.04517     0.57857    -0.15807    -0.76309
  augment   524.48943   524.48943   509.29516     0.00000     0.00001     0.00001
  Kinetic  1555.50732  1564.35405  1531.92625    -2.72078     1.62784     2.56512
  Fock        0.00000     0.00000     0.00000     0.00000     0.00000     0.00000
  -------------------------------------------------------------------------------------
  Total       5.72865     5.72865    -2.18905    -0.00000     0.00000     0.00000
  in kB      19.39321    19.39321    -7.41059    -0.00000     0.00000     0.00000
  external pressure =       10.46 kB  Pullay stress =        0.00 kB


 VOLUME and BASIS-vectors are now :
 -----------------------------------------------------------------------------
  energy-cutoff  :      404.80
  volume of cell :      473.27
      direct lattice vectors                 reciprocal lattice vectors
     8.250148166  0.000000000  0.000000000     0.121209944  0.000000000  0.000000000
     0.000000000  8.250148166  0.000000000     0.000000000  0.121209944  0.000000000
     0.000000000  0.000000000  6.953274261     0.000000000  0.000000000  0.143817137

  length of vectors
     8.250148166  8.250148166  6.953274261     0.121209944  0.121209944  0.143817137


 FORCES acting on ions:
    Electron-Ion                     Ewald-Force                    Non-Local-Force
 -----------------------------------------------------------------------------------------------
   0.704E-01 -.704E-01 0.299E-01   -.239E-08 -.239E-08 0.411E-08   -.734E-01 0.734E-01 0.421E-02
   0.704E-01 -.704E-01 -.299E-01   -.239E-08 -.239E-08 0.411E-08   -.734E-01 0.734E-01 -.421E-02
   0.704E-01 0.704E-01 0.299E-01   -.239E-08 -.802E-09 0.411E-08   -.734E-01 -.734E-01 0.421E-02
   0.704E-01 0.704E-01 -.299E-01   -.239E-08 -.802E-09 0.411E-08   -.734E-01 -.734E-01 -.421E-02
   -.699E-03 -.328E-08 0.904E-02   -.239E-08 0.631E-08 0.411E-08   -.419E-02 0.122E-18 -.323E-03
   -.699E-03 -.328E-08 -.904E-02   -.239E-08 0.631E-08 0.411E-08   -.419E-02 0.000E+00 0.323E-03
   0.373E-09 0.699E-03 0.904E-02   -.802E-09 -.239E-08 0.411E-08   -.108E-18 0.419E-02 -.323E-03
   0.373E-09 0.699E-03 -.904E-02   -.802E-09 -.239E-08 0.411E-08   -.542E-19 0.419E-02 0.323E-03
   0.373E-09 -.699E-03 0.904E-02   -.802E-09 -.802E-09 0.411E-08   -.542E-19 -.419E-02 -.323E-03
   0.373E-09 -.699E-03 -.904E-02   -.802E-09 -.802E-09 0.411E-08   0.108E-18 -.419E-02 0.323E-03
   0.373E-09 -.329E-08 -.297E-01   -.802E-09 0.631E-08 0.411E-08   0.108E-18 0.108E-18 -.304E-01
   0.373E-09 -.329E-08 0.297E-01   -.802E-09 0.631E-08 0.411E-08   0.325E-18 -.108E-18 0.304E-01
   -.704E-01 -.704E-01 0.299E-01   0.631E-08 -.239E-08 0.411E-08   0.734E-01 0.734E-01 0.421E-02
   -.704E-01 -.704E-01 -.299E-01   0.631E-08 -.239E-08 0.411E-08   0.734E-01 0.734E-01 -.421E-02
   -.704E-01 0.704E-01 0.299E-01   0.631E-08 -.802E-09 0.411E-08   0.734E-01 -.734E-01 0.421E-02
   -.704E-01 0.704E-01 -.299E-01   0.631E-08 -.802E-09 0.411E-08   0.734E-01 -.734E-01 -.421E-02
   0.699E-03 -.328E-08 0.904E-02   0.631E-08 0.631E-08 0.411E-08   0.419E-02 -.217E-18 -.323E-03
   0.699E-03 -.328E-08 -.904E-02   0.631E-08 0.631E-08 0.411E-08   0.419E-02 0.949E-19 0.323E-03
   0.828E-01 0.490E-08 -.242E-08   -.169E-07 -.169E-07 -.411E-08   -.295E-01 0.000E+00 0.434E-18
   0.342E+00 0.493E-08 -.239E-08   -.169E-07 -.169E-07 -.411E-08   -.165E+00 0.000E+00 0.108E-18
   -.567E-01 -.567E-01 -.238E-08   -.169E-07 0.802E-09 -.411E-08   0.471E-01 0.471E-01 -.217E-18
   -.106E+00 -.106E+00 -.240E-08   -.169E-07 0.802E-09 -.411E-08   0.131E+00 0.131E+00 0.217E-18
   -.567E-01 0.567E-01 -.238E-08   -.169E-07 0.130E-07 -.411E-08   0.471E-01 -.471E-01 0.217E-18
   -.106E+00 0.106E+00 -.240E-08   -.169E-07 0.130E-07 -.411E-08   0.131E+00 -.131E+00 0.000E+00
   -.828E-01 0.490E-08 -.242E-08   0.802E-09 -.169E-07 -.411E-08   0.295E-01 0.000E+00 -.434E-18
   -.342E+00 0.493E-08 -.239E-08   0.802E-09 -.169E-07 -.411E-08   0.165E+00 0.867E-18 -.108E-18
   0.567E-01 -.567E-01 -.238E-08   0.802E-09 0.802E-09 -.411E-08   -.471E-01 0.471E-01 -.217E-18
   0.106E+00 -.106E+00 -.240E-08   0.802E-09 0.802E-09 -.411E-08   -.131E+00 0.131E+00 -.434E-18
   0.567E-01 0.567E-01 -.238E-08   0.802E-09 0.130E-07 -.411E-08   -.471E-01 -.471E-01 0.217E-18
   0.106E+00 0.106E+00 -.240E-08   0.802E-09 0.130E-07 -.411E-08   -.131E+00 -.131E+00 -.217E-18
   -.604E-08 0.477E-08 -.221E-08   0.130E-07 -.169E-07 -.411E-08   0.000E+00 -.529E-22 0.000E+00
   -.604E-08 0.469E-08 -.211E-08   0.130E-07 -.169E-07 -.411E-08   0.000E+00 0.000E+00 0.000E+00
   -.605E-08 0.828E-01 -.238E-08   0.130E-07 0.802E-09 -.411E-08   0.000E+00 -.295E-01 0.867E-18
   -.605E-08 0.342E+00 -.241E-08   0.130E-07 0.802E-09 -.411E-08   -.434E-18 -.165E+00 0.000E+00
   -.605E-08 -.828E-01 -.238E-08   0.130E-07 0.130E-07 -.411E-08   0.000E+00 0.295E-01 0.867E-18
   -.605E-08 -.342E+00 -.241E-08   0.130E-07 0.130E-07 -.411E-08   -.434E-18 0.165E+00 0.434E-18
 -----------------------------------------------------------------------------------------------
   -.237E-07 -.269E-07 -.795E-07   -.197E-14 0.275E-13 0.265E-14   -.167E-15 0.555E-16 0.000E+00
 
 
 POSITION                                       TOTAL-FORCE (eV/Angst)
 -----------------------------------------------------------------------------------
      0.00000      0.00000      0.00000         0.003485     -0.003485      0.032529
      0.00000      0.00000      3.47664         0.003485     -0.003485     -0.032529
      0.00000      2.75005      0.00000         0.003485      0.003485      0.032529
      0.00000      2.75005      3.47664         0.003485      0.003485     -0.032529
      0.00000      5.50010      0.00000        -0.005270      0.000000      0.008729
      0.00000      5.50010      3.47664        -0.005270      0.000000     -0.008729
      2.75005      0.00000      0.00000         0.000000      0.005270      0.008729
      2.75005      0.00000      3.47664         0.000000      0.005270     -0.008729
      2.75005      2.75005      0.00000        -0.000000     -0.005270      0.008729
      2.75005      2.75005      3.47664        -0.000000     -0.005270     -0.008729
      2.75005      5.50010      0.00000        -0.000000     -0.000000     -0.057955
      2.75005      5.50010      3.47664        -0.000000      0.000000      0.057955
      5.50010      0.00000      0.00000        -0.003485     -0.003485      0.032529
      5.50010      0.00000      3.47664        -0.003485     -0.003485     -0.032529
      5.50010      2.75005      0.00000        -0.003485      0.003485      0.032529
      5.50010      2.75005      3.47664        -0.003485      0.003485     -0.032529
      5.50010      5.50010      0.00000         0.005270     -0.000000      0.008729
      5.50010      5.50010      3.47664         0.005270     -0.000000     -0.008729
      1.37502      1.37502      1.73832         0.052814      0.000000      0.000000
      1.37502      1.37502      5.21496         0.179849      0.000000      0.000000
      1.37502      4.12507      1.73832        -0.009983     -0.009983      0.000000
      1.37502      4.12507      5.21496         0.022534      0.022534      0.000000
      1.37502      6.87512      1.73832        -0.009983      0.009983      0.000000
      1.37502      6.87512      5.21496         0.022534     -0.022534      0.000000
      4.12507      1.37502      1.73832        -0.052814      0.000000      0.000000
      4.12507      1.37502      5.21496        -0.179849     -0.000000      0.000000
      4.12507      4.12507      1.73832         0.009983     -0.009983      0.000000
      4.12507      4.12507      5.21496        -0.022534      0.022534      0.000000
      4.12507      6.87512      1.73832         0.009983      0.009983      0.000000
      4.12507      6.87512      5.21496        -0.022534     -0.022534      0.000000
      6.87512      1.37502      1.73832         0.000000      0.000000      0.000000
      6.87512      1.37502      5.21496         0.000000      0.000000      0.000000
      6.87512      4.12507      1.73832        -0.000000      0.052814      0.000000
      6.87512      4.12507      5.21496        -0.000000      0.179849      0.000000
      6.87512      6.87512      1.73832         0.000000     -0.052814      0.000000
      6.87512      6.87512      5.21496         0.000000     -0.179849      0.000000
 -----------------------------------------------------------------------------------
    total drift:                               -0.000000     -0.000000     -0.000000


--------------------------------------------------------------------------------------------------------



  FREE ENERGIE OF THE ION-ELECTRON SYSTEM (eV)
  ---------------------------------------------------
  free  energy   TOTEN  =      -237.85866390 eV

  energy  without entropy=     -237.88257104  energy(sigma->0) =     -237.86663295
 


--------------------------------------------------------------------------------------------------------


    POTLOK:  cpu time    1.4968: real time    1.4967


--------------------------------------------------------------------------------------------------------


     LOOP+:  cpu time  607.7943: real time  621.7914
    4ORBIT:  cpu time    0.0000: real time    0.0000
 


 total charge     
 
# of ion       s       p       d       tot
------------------------------------------
    1        0.405   0.428   0.000   0.833
    2        0.405   0.428   0.000   0.834
    3        0.405   0.428   0.000   0.834
    4        0.406   0.428   0.000   0.834
    5        0.405   0.427   0.000   0.832
    6        0.405   0.427   0.000   0.832
    7        0.405   0.427   0.000   0.833
    8        0.405   0.427   0.000   0.832
    9        0.405   0.427   0.000   0.832
   10        0.405   0.427   0.000   0.833
   11        0.405   0.427   0.000   0.833
   12        0.405   0.427   0.000   0.833
   13        0.406   0.428   0.000   0.834
   14        0.405   0.428   0.000   0.834
   15        0.405   0.428   0.000   0.834
   16        0.405   0.428   0.000   0.833
   17        0.405   0.427   0.000   0.832
   18        0.405   0.427   0.000   0.832
   19        0.333   0.355   5.130   5.819
   20        0.334   0.353   5.155   5.842
   21        0.334   0.351   5.132   5.817
   22        0.333   0.353   5.139   5.826
   23        0.334   0.351   5.136   5.822
   24        0.333   0.353   5.130   5.815
   25        0.333   0.355   5.130   5.819
   26        0.334   0.353   5.155   5.842
   27        0.334   0.351   5.136   5.822
   28        0.333   0.353   5.130   5.815
   29        0.334   0.351   5.132   5.817
   30        0.333   0.353   5.139   5.826
   31        0.334   0.345   5.146   5.825
   32        0.335   0.352   5.141   5.828
   33        0.334   0.354   5.126   5.814
   34        0.335   0.358   5.092   5.784
   35        0.334   0.354   5.126   5.814
   36        0.335   0.358   5.092   5.784
--------------------------------------------------
tot         13.305  14.050  92.368 119.723
 


 magnetization (x)
 
# of ion       s       p       d       tot
------------------------------------------
    1       -0.004  -0.009   0.000  -0.013
    2       -0.004  -0.009   0.000  -0.013
    3       -0.004  -0.010   0.000  -0.014
    4       -0.004  -0.008   0.000  -0.012
    5       -0.001  -0.001   0.000  -0.002
    6       -0.001  -0.001   0.000  -0.002
    7       -0.001  -0.000   0.000  -0.001
    8       -0.001  -0.000   0.000  -0.001
    9       -0.001  -0.000   0.000  -0.001
   10       -0.001  -0.000   0.000  -0.001
   11        0.001  -0.000   0.000   0.000
   12        0.001  -0.000   0.000   0.000
   13       -0.004  -0.008   0.000  -0.012
   14       -0.004  -0.010   0.000  -0.014
   15       -0.004  -0.009   0.000  -0.013
   16       -0.004  -0.009   0.000  -0.013
   17       -0.001  -0.001   0.000  -0.002
   18       -0.001  -0.001   0.000  -0.002
   19        0.013   0.026   2.316   2.355
   20       -0.023  -0.026  -2.412  -2.460
   21        0.016   0.017   2.344   2.378
   22       -0.011  -0.014  -2.301  -2.325
   23        0.016   0.017   2.337   2.371
   24       -0.011  -0.013  -2.303  -2.328
   25        0.013   0.026   2.316   2.355
   26       -0.023  -0.026  -2.412  -2.460
   27        0.016   0.017   2.337   2.371
   28       -0.011  -0.013  -2.303  -2.328
   29        0.016   0.017   2.344   2.378
   30       -0.011  -0.014  -2.301  -2.325
   31        0.022   0.010   2.368   2.400
   32        0.029   0.025   2.089   2.144
   33        0.013   0.025   2.311   2.349
   34       -0.022  -0.027  -2.433  -2.481
   35        0.013   0.025   2.311   2.349
   36       -0.022  -0.027  -2.433  -2.481
--------------------------------------------------
tot         -0.001  -0.032   4.174   4.141
 

 total amount of memory used by VASP MPI-rank0   383621. kBytes
=======================================================================

   base      :      30000. kBytes
   nonl-proj :      16518. kBytes
   fftplans  :      21726. kBytes
   grid      :      14732. kBytes
   one-center:        279. kBytes
   wavefun   :     300366. kBytes
 
  
  
 General timing and accounting informations for this job:
 ========================================================
  
                  Total CPU time used (sec):      621.491
                            User time (sec):      607.088
                          System time (sec):       14.404
                         Elapsed time (sec):      637.562
  
                   Maximum memory used (kb):      506364.
                   Average memory used (kb):           0.
  
                          Minor page faults:       357977
                          Major page faults:           18
                 Voluntary context switches:         3058
