 vasp.5.4.4.18Apr17-6-g9f103f2a35 (build Dec 20 2018 12:05:58) complex          
  
 executed on             LinuxIFC date 2019.06.20  20:14:29
 running on   32 total cores
 distrk:  each k-point on    8 cores,    4 groups
 distr:  one band on NCORES_PER_BAND=   4 cores,    2 groups


--------------------------------------------------------------------------------------------------------


 INCAR:
 POTCAR:    PAW_PBE Al 04Jan2001                  
 POTCAR:    PAW_PBE Mn 06Sep2000                  

 ----------------------------------------------------------------------------- 
|                                                                             |
|           W    W    AA    RRRRR   N    N  II  N    N   GGGG   !!!           |
|           W    W   A  A   R    R  NN   N  II  NN   N  G    G  !!!           |
|           W    W  A    A  R    R  N N  N  II  N N  N  G       !!!           |
|           W WW W  AAAAAA  RRRRR   N  N N  II  N  N N  G  GGG   !            |
|           WW  WW  A    A  R   R   N   NN  II  N   NN  G    G                |
|           W    W  A    A  R    R  N    N  II  N    N   GGGG   !!!           |
|                                                                             |
|      You have enabled k-point parallelism (KPAR>1).                         |
|      This developmental code was originally  written by Paul Kent at ORNL,  |
|      and carefully double checked in Vienna.                                |
|      GW as well as linear response parallelism added by Martijn Marsman     |
|      and Georg Kresse.                                                      |
|      Carefully verify results versus KPAR=1.                                |
|      Report problems to Paul Kent and Vienna.                               |
|                                                                             |
 ----------------------------------------------------------------------------- 

 POTCAR:    PAW_PBE Al 04Jan2001                  
   VRHFIN =Al: s2p1                                                             
   LEXCH  = PE                                                                  
   EATOM  =    53.5387 eV,    3.9350 Ry                                         
                                                                                
   TITEL  = PAW_PBE Al 04Jan2001                                                
   LULTRA =        F    use ultrasoft PP ?                                      
   IUNSCR =        1    unscreen: 0-lin 1-nonlin 2-no                           
   RPACOR =    1.500    partial core radius                                     
   POMASS =   26.981; ZVAL   =    3.000    mass and valenz                      
   RCORE  =    1.900    outmost cutoff radius                                   
   RWIGS  =    2.650; RWIGS  =    1.402    wigner-seitz radius (au A)           
   ENMAX  =  240.300; ENMIN  =  180.225 eV                                      
   ICORE  =        2    local potential                                         
   LCOR   =        T    correct aug charges                                     
   LPAW   =        T    paw PP                                                  
   EAUG   =  291.052                                                            
   DEXC   =    0.000                                                            
   RMAX   =    1.939    core radius for proj-oper                               
   RAUG   =    1.300    factor for augmentation sphere                          
   RDEP   =    1.966    radius for radial grids                                 
   RDEPT  =    1.856    core radius for aug-charge                              
                                                                                
   Atomic configuration                                                         
    6 entries                                                                   
     n  l   j            E        occ.                                          
     1  0  0.50     -1511.1048   2.0000                                         
     2  0  0.50      -108.1629   2.0000                                         
     2  1  1.50       -69.6402   6.0000                                         
     3  0  0.50        -7.7528   2.0000                                         
     3  1  1.50        -2.7121   1.0000                                         
     3  2  2.50        -2.7212   0.0000                                         
   Description                                                                  
     l       E           TYP  RCUT    TYP  RCUT                                 
     0     -7.7528455     23  1.900                                             
     0     -3.3096929     23  1.900                                             
     1     -2.7120682     23  1.900                                             
     1     13.6058260     23  1.900                                             
     2     -2.7211652      7  1.900                                             
  local pseudopotential read in
  partial core-charges read in
  partial kinetic energy density read in
  atomic valenz-charges read in
  non local Contribution for L=           0  read in
    real space projection operators read in
  non local Contribution for L=           0  read in
    real space projection operators read in
  non local Contribution for L=           1  read in
    real space projection operators read in
  non local Contribution for L=           1  read in
    real space projection operators read in
    PAW grid and wavefunctions read in
 
   number of l-projection  operators is LMAX  =           4
   number of lm-projection operators is LMMAX =           8
 
 POTCAR:    PAW_PBE Mn 06Sep2000                  
   VRHFIN =Mn: d6 s1                                                            
   LEXCH  = PE                                                                  
   EATOM  =   416.7541 eV,   30.6306 Ry                                         
                                                                                
   TITEL  = PAW_PBE Mn 06Sep2000                                                
   LULTRA =        F    use ultrasoft PP ?                                      
   IUNSCR =        1    unscreen: 0-lin 1-nonlin 2-no                           
   RPACOR =    2.000    partial core radius                                     
   POMASS =   54.938; ZVAL   =    7.000    mass and valenz                      
   RCORE  =    2.300    outmost cutoff radius                                   
   RWIGS  =    2.500; RWIGS  =    1.323    wigner-seitz radius (au A)           
   ENMAX  =  269.864; ENMIN  =  202.398 eV                                      
   RCLOC  =    1.725    cutoff for local pot                                    
   LCOR   =        T    correct aug charges                                     
   LPAW   =        T    paw PP                                                  
   EAUG   =  500.711                                                            
   DEXC   =    0.000                                                            
   RMAX   =    2.343    core radius for proj-oper                               
   RAUG   =    1.300    factor for augmentation sphere                          
   RDEP   =    2.338    radius for radial grids                                 
   RDEPT  =    1.911    core radius for aug-charge                              
                                                                                
   Atomic configuration                                                         
    9 entries                                                                   
     n  l   j            E        occ.                                          
     1  0  0.50     -6424.8288   2.0000                                         
     2  0  0.50      -739.1154   2.0000                                         
     2  1  1.50      -625.3949   6.0000                                         
     3  0  0.50       -81.6100   2.0000                                         
     3  1  1.50       -50.4667   6.0000                                         
     3  2  2.50        -3.3745   6.0000                                         
     4  0  0.50        -4.1331   1.0000                                         
     4  1  0.50        -4.0817   0.0000                                         
     4  3  2.50        -1.3606   0.0000                                         
   Description                                                                  
     l       E           TYP  RCUT    TYP  RCUT                                 
     2     -3.3744664     23  2.300                                             
     2     -4.7350490     23  2.300                                             
     0     -4.1331408     23  2.300                                             
     0      7.6656614     23  2.300                                             
     1     -2.7211652     23  2.300                                             
     1     20.4087390     23  2.300                                             
  local pseudopotential read in
  partial core-charges read in
  partial kinetic energy density read in
  atomic valenz-charges read in
  non local Contribution for L=           2  read in
    real space projection operators read in
  non local Contribution for L=           2  read in
    real space projection operators read in
  non local Contribution for L=           0  read in
    real space projection operators read in
  non local Contribution for L=           0  read in
    real space projection operators read in
  non local Contribution for L=           1  read in
    real space projection operators read in
  non local Contribution for L=           1  read in
    real space projection operators read in
    PAW grid and wavefunctions read in
 
   number of l-projection  operators is LMAX  =           6
   number of lm-projection operators is LMMAX =          18
 

 ----------------------------------------------------------------------------- 
|                                                                             |
|  ADVICE TO THIS USER RUNNING 'VASP/VAMP'   (HEAR YOUR MASTER'S VOICE ...):  |
|                                                                             |
|      You have a (more or less) 'large supercell' and for larger cells       |
|      it might be more efficient to use real space projection opertators     |
|      So try LREAL= Auto  in the INCAR   file.                               |
|      Mind:          For very  accurate calculation you might also keep the  |
|      reciprocal projection scheme          (i.e. LREAL=.FALSE.)             |
|                                                                             |
 ----------------------------------------------------------------------------- 

  PAW_PBE Al 04Jan2001                  :
 energy of atom  1       EATOM=  -53.5387
 kinetic energy error for atom=    0.0005 (will be added to EATOM!!)
  PAW_PBE Mn 06Sep2000                  :
 energy of atom  2       EATOM= -416.7541
 kinetic energy error for atom=    0.0080 (will be added to EATOM!!)
 
 
 POSCAR: NewRef: 27, @ ['Mn', array([1.37502469, 
  positions in cartesian coordinates
  velocities in cartesian coordinates
  No initial velocities read in
 exchange correlation table for  LEXCH =        8
   RHO(1)=    0.500       N(1)  =     2000
   RHO(2)=  100.500       N(2)  =     4000
 


--------------------------------------------------------------------------------------------------------


 ion  position               nearest neighbor table
   1  0.000  0.000  0.000-  28 2.61  30 2.61  34 2.61  36 2.61  46 2.61  48 2.61  52 2.61  54 2.61
                             4 2.75  10 2.75   7 2.75  19 2.75
   2  0.000  0.000  0.333-  28 2.61  34 2.61  46 2.61  52 2.61  29 2.61  47 2.61  35 2.61  53 2.61
                             5 2.75  11 2.75   8 2.75  20 2.75
   3  0.000  0.000  0.667-  29 2.61  35 2.61  47 2.61  53 2.61  30 2.61  48 2.61  36 2.61  54 2.61
                             6 2.75  12 2.75   9 2.75  21 2.75
   4  0.000  0.333  0.000-  28 2.61  30 2.61  46 2.61  48 2.61  31 2.61  33 2.61  49 2.61  51 2.61
                            13 2.75   1 2.75   7 2.75  22 2.75
   5  0.000  0.333  0.333-  28 2.61  46 2.61  31 2.61  49 2.61  47 2.61  29 2.61  32 2.61  50 2.61
                            14 2.75   2 2.75   8 2.75  23 2.75
   6  0.000  0.333  0.667-  29 2.61  47 2.61  32 2.61  50 2.61  48 2.61  30 2.61  33 2.61  51 2.61
                            15 2.75   3 2.75   9 2.75  24 2.75
   7  0.000  0.667  0.000-  31 2.61  33 2.61  49 2.61  51 2.61  34 2.61  36 2.61  52 2.61  54 2.61
                             4 2.75  16 2.75   1 2.75  25 2.75
   8  0.000  0.667  0.333-  31 2.61  49 2.61  34 2.61  52 2.61  50 2.61  32 2.61  35 2.61  53 2.61
                             5 2.75  17 2.75   2 2.75  26 2.75
   9  0.000  0.667  0.667-  32 2.61  50 2.61  35 2.61  53 2.61  51 2.61  33 2.61  36 2.61  54 2.61
                             6 2.75  18 2.75   3 2.75  27 2.75
  10  0.333  0.000  0.000-  28 2.61  30 2.61  34 2.61  36 2.61  37 2.61  39 2.61  43 2.61  45 2.61
                            19 2.75   1 2.75  13 2.75  16 2.75
  11  0.333  0.000  0.333-  28 2.61  34 2.61  37 2.61  43 2.61  29 2.61  35 2.61  38 2.61  44 2.61
                            20 2.75   2 2.75  14 2.75  17 2.75
  12  0.333  0.000  0.667-  29 2.61  35 2.61  38 2.61  44 2.61  30 2.61  36 2.61  39 2.61  45 2.61
                            21 2.75   3 2.75  15 2.75  18 2.75
  13  0.333  0.333  0.000-  28 2.61  30 2.61  31 2.61  33 2.61  37 2.61  39 2.61  40 2.61  42 2.61
                             4 2.75  10 2.75  16 2.75  22 2.75
  14  0.333  0.333  0.333-  28 2.61  31 2.61  37 2.61  29 2.61  40 2.61  38 2.61  32 2.61  41 2.61
                             5 2.75  11 2.75  17 2.75  23 2.75
  15  0.333  0.333  0.667-  29 2.61  32 2.61  38 2.61  30 2.61  41 2.61  39 2.61  33 2.61  42 2.61
                             6 2.75  12 2.75  18 2.75  24 2.75
  16  0.333  0.667  0.000-  31 2.61  33 2.61  34 2.61  36 2.61  40 2.61  42 2.61  43 2.61  45 2.61
                            25 2.75   7 2.75  13 2.75  10 2.75
  17  0.333  0.667  0.333-  31 2.61  34 2.61  40 2.61  32 2.61  43 2.61  41 2.61  35 2.61  44 2.61
                            26 2.75   8 2.75  14 2.75  11 2.75
  18  0.333  0.667  0.667-  32 2.61  35 2.61  41 2.61  33 2.61  44 2.61  42 2.61  36 2.61  45 2.61
                            27 2.75   9 2.75  15 2.75  12 2.75
  19  0.667  0.000  0.000-  37 2.61  39 2.61  43 2.61  45 2.61  46 2.61  48 2.61  52 2.61  54 2.61
                            10 2.75  22 2.75   1 2.75  25 2.75
  20  0.667  0.000  0.333-  37 2.61  43 2.61  46 2.61  52 2.61  38 2.61  44 2.61  47 2.61  53 2.61
                            11 2.75  23 2.75   2 2.75  26 2.75
  21  0.667  0.000  0.667-  38 2.61  44 2.61  47 2.61  53 2.61  39 2.61  45 2.61  48 2.61  54 2.61
                            12 2.75  24 2.75   3 2.75  27 2.75
  22  0.667  0.333  0.000-  37 2.61  39 2.61  40 2.61  42 2.61  46 2.61  48 2.61  49 2.61  51 2.61
                            25 2.75  13 2.75  19 2.75   4 2.75
  23  0.667  0.333  0.333-  37 2.61  40 2.61  46 2.61  38 2.61  49 2.61  47 2.61  41 2.61  50 2.61
                            26 2.75  14 2.75  20 2.75   5 2.75
  24  0.667  0.333  0.667-  38 2.61  41 2.61  47 2.61  39 2.61  50 2.61  48 2.61  42 2.61  51 2.61
                            27 2.75  15 2.75  21 2.75   6 2.75
  25  0.667  0.667  0.000-  40 2.61  42 2.61  43 2.61  45 2.61  49 2.61  51 2.61  52 2.61  54 2.61
                            16 2.75  22 2.75  19 2.75   7 2.75
  26  0.667  0.667  0.333-  40 2.61  43 2.61  49 2.61  41 2.61  52 2.61  50 2.61  44 2.61  53 2.61
                            17 2.75  23 2.75  20 2.75   8 2.75
  27  0.667  0.667  0.667-  41 2.61  44 2.61  50 2.61  42 2.61  53 2.61  51 2.61  45 2.61  54 2.61
                            18 2.75  24 2.75  21 2.75   9 2.75
  28  0.167  0.167  0.167-  14 2.61  11 2.61   5 2.61  13 2.61   2 2.61  10 2.61   4 2.61   1 2.61
                            31 2.75  37 2.75  34 2.75  46 2.75
  29  0.167  0.167  0.500-  15 2.61  12 2.61   6 2.61  14 2.61   3 2.61  11 2.61   5 2.61   2 2.61
                            32 2.75  38 2.75  35 2.75  47 2.75
  30  0.167  0.167  0.833-  13 2.61  15 2.61  10 2.61  12 2.61   4 2.61   6 2.61   1 2.61   3 2.61
                            33 2.75  39 2.75  36 2.75  48 2.75
  31  0.167  0.500  0.167-  17 2.61  14 2.61   8 2.61  16 2.61   5 2.61  13 2.61   7 2.61   4 2.61
                            28 2.75  34 2.75  40 2.75  49 2.75
  32  0.167  0.500  0.500-  18 2.61  15 2.61   9 2.61  17 2.61   6 2.61  14 2.61   8 2.61   5 2.61
                            29 2.75  35 2.75  41 2.75  50 2.75
  33  0.167  0.500  0.833-  16 2.61  18 2.61  13 2.61  15 2.61   7 2.61   9 2.61   4 2.61   6 2.61
                            30 2.75  36 2.75  42 2.75  51 2.75
  34  0.167  0.833  0.167-  11 2.61  17 2.61   2 2.61   8 2.61  16 2.61  10 2.61   7 2.61   1 2.61
                            31 2.75  43 2.75  28 2.75  52 2.75
  35  0.167  0.833  0.500-  12 2.61  18 2.61   3 2.61   9 2.61  17 2.61  11 2.61   8 2.61   2 2.61
                            32 2.75  44 2.75  29 2.75  53 2.75
  36  0.167  0.833  0.833-  10 2.61  12 2.61  16 2.61  18 2.61   1 2.61   3 2.61   7 2.61   9 2.61
                            33 2.75  45 2.75  30 2.75  54 2.75
  37  0.500  0.167  0.167-  23 2.61  20 2.61  14 2.61  22 2.61  11 2.61  19 2.61  13 2.61  10 2.61
                            28 2.75  40 2.75  46 2.75  43 2.75
  38  0.500  0.167  0.500-  24 2.61  21 2.61  15 2.61  23 2.61  12 2.61  20 2.61  14 2.61  11 2.61
                            29 2.75  41 2.75  47 2.75  44 2.75
  39  0.500  0.167  0.833-  22 2.61  24 2.61  19 2.61  21 2.61  13 2.61  15 2.61  10 2.61  12 2.61
                            30 2.75  42 2.75  48 2.75  45 2.75
  40  0.500  0.500  0.167-  26 2.61  23 2.61  17 2.61  25 2.61  14 2.61  22 2.61  16 2.61  13 2.61
                            31 2.75  37 2.75  43 2.75  49 2.75
  41  0.500  0.500  0.500-  27 2.61  24 2.61  18 2.61  26 2.61  15 2.61  23 2.61  17 2.61  14 2.61
                            32 2.75  38 2.75  44 2.75  50 2.75
  42  0.500  0.500  0.833-  25 2.61  27 2.61  22 2.61  24 2.61  16 2.61  18 2.61  13 2.61  15 2.61
                            33 2.75  39 2.75  45 2.75  51 2.75
  43  0.500  0.833  0.167-  20 2.61  26 2.61  11 2.61  17 2.61  25 2.61  19 2.61  16 2.61  10 2.61
                            34 2.75  40 2.75  52 2.75  37 2.75
  44  0.500  0.833  0.500-  21 2.61  27 2.61  12 2.61  18 2.61  26 2.61  20 2.61  17 2.61  11 2.61
                            35 2.75  41 2.75  53 2.75  38 2.75
  45  0.500  0.833  0.833-  19 2.61  21 2.61  25 2.61  27 2.61  10 2.61  12 2.61  16 2.61  18 2.61
                            36 2.75  42 2.75  54 2.75  39 2.75
  46  0.833  0.167  0.167-   5 2.61  23 2.61  20 2.61   2 2.61  22 2.61   4 2.61  19 2.61   1 2.61
                            37 2.75  49 2.75  28 2.75  52 2.75
  47  0.833  0.167  0.500-   6 2.61  24 2.61  21 2.61   3 2.61  23 2.61   5 2.61  20 2.61   2 2.61
                            38 2.75  50 2.75  29 2.75  53 2.75
  48  0.833  0.167  0.833-   4 2.61   6 2.61  22 2.61  24 2.61  19 2.61  21 2.61   1 2.61   3 2.61
                            39 2.75  51 2.75  30 2.75  54 2.75
  49  0.833  0.500  0.167-   8 2.61  26 2.61  23 2.61   5 2.61  25 2.61   7 2.61  22 2.61   4 2.61
                            40 2.75  46 2.75  52 2.75  31 2.75
  50  0.833  0.500  0.500-   9 2.61  27 2.61  24 2.61   6 2.61  26 2.61   8 2.61  23 2.61   5 2.61
                            41 2.75  47 2.75  53 2.75  32 2.75
  51  0.833  0.500  0.833-   7 2.61   9 2.61  25 2.61  27 2.61  22 2.61  24 2.61   4 2.61   6 2.61
                            42 2.75  48 2.75  54 2.75  33 2.75
  52  0.833  0.833  0.167-   2 2.61   8 2.61  20 2.61  26 2.61  19 2.61   7 2.61  25 2.61   1 2.61
                            43 2.75  49 2.75  46 2.75  34 2.75
  53  0.833  0.833  0.500-   3 2.61   9 2.61  21 2.61  27 2.61  20 2.61   8 2.61  26 2.61   2 2.61
                            44 2.75  50 2.75  47 2.75  35 2.75
  54  0.833  0.833  0.833-   1 2.61   3 2.61   7 2.61   9 2.61  19 2.61  21 2.61  25 2.61  27 2.61
                            45 2.75  51 2.75  48 2.75  36 2.75
 
  LATTYP: Found a simple tetragonal cell.
 ALAT       =     8.2501481662
 C/A-ratio  =     1.2642089792
  
  Lattice vectors:
  
 A1 = (   8.2501481662,   0.0000000000,   0.0000000000)
 A2 = (   0.0000000000,   8.2501481662,   0.0000000000)
 A3 = (   0.0000000000,   0.0000000000,  10.4299113916)


Analysis of symmetry for initial positions (statically):
=====================================================================
 Subroutine PRICEL returns following result:
 
  LATTYP: Found a simple tetragonal cell.
 ALAT       =     2.7500493888
 C/A-ratio  =     1.2642089792
  
  Lattice vectors:
  
 A1 = (   2.7500493888,   0.0000000000,   0.0000000000)
 A2 = (   0.0000000000,   2.7500493888,   0.0000000000)
 A3 = (   0.0000000000,   0.0000000000,   3.4766371306)
 
  27 primitive cells build up your supercell.
 

 Routine SETGRP: Setting up the symmetry group for a 
 simple tetragonal supercell.


 Subroutine GETGRP returns: Found 16 space group operations
 (whereof 16 operations were pure point group operations)
 out of a pool of 16 trial point group operations.


The static configuration has the point symmetry D_4h.


Analysis of symmetry for dynamics (positions and initial velocities):
=====================================================================
 Subroutine PRICEL returns following result:
 
  LATTYP: Found a simple tetragonal cell.
 ALAT       =     2.7500493888
 C/A-ratio  =     1.2642089792
  
  Lattice vectors:
  
 A1 = (   2.7500493888,   0.0000000000,   0.0000000000)
 A2 = (   0.0000000000,   2.7500493888,   0.0000000000)
 A3 = (   0.0000000000,   0.0000000000,   3.4766371306)
 
  27 primitive cells build up your supercell.
 

 Routine SETGRP: Setting up the symmetry group for a 
 simple tetragonal supercell.


 Subroutine GETGRP returns: Found 16 space group operations
 (whereof 16 operations were pure point group operations)
 out of a pool of 16 trial point group operations.


The dynamic configuration has the point symmetry D_4h.


Analysis of structural, dynamic, and magnetic symmetry:
=====================================================================
 Subroutine PRICEL returns:
 Original cell was already a primitive cell.
 

 Routine SETGRP: Setting up the symmetry group for a 
 simple tetragonal supercell.


 Subroutine GETGRP returns: Found  4 space group operations
 (whereof  1 operations were pure point group operations)
 out of a pool of 16 trial point group operations.


The magnetic configuration has the point symmetry C_1 .
 The point group associated with its full space group is C_2v.


 Subroutine INISYM returns: Found  4 space group operations
 (whereof  1 operations are pure point group operations),
 and found     1 'primitive' translations

 
 
 KPOINTS: automatic KPOINTS                       

Automatic generation of k-mesh.
 generate k-points for:    5    5    4
Space group operators:
 irot       det(A)        alpha          n_x          n_y          n_z        tau_x        tau_y        tau_z
    1     1.000000     0.000001     1.000000     0.000000     0.000000     0.000000     0.000000     0.000000
    2     1.000000   180.000000     0.000000     0.000000     1.000000     0.666667     0.333333     0.000000
    3    -1.000000   180.000000     0.000000     1.000000     0.000000     0.000000     0.333333     0.000000
    4    -1.000000   180.000000     1.000000     0.000000     0.000000     0.666667     0.000000     0.000000
 
 Subroutine IBZKPT returns following result:
 ===========================================
 
 Found     27 irreducible k-points:
 
 Following reciprocal coordinates:
            Coordinates               Weight
  0.000000  0.000000  0.000000      1.000000
  0.200000  0.000000  0.000000      2.000000
  0.400000  0.000000  0.000000      2.000000
  0.000000  0.200000  0.000000      2.000000
  0.200000  0.200000  0.000000      4.000000
  0.400000  0.200000  0.000000      4.000000
  0.000000  0.400000  0.000000      2.000000
  0.200000  0.400000  0.000000      4.000000
  0.400000  0.400000  0.000000      4.000000
  0.000000  0.000000  0.250000      2.000000
  0.200000  0.000000  0.250000      4.000000
  0.400000  0.000000  0.250000      4.000000
  0.000000  0.200000  0.250000      4.000000
  0.200000  0.200000  0.250000      8.000000
  0.400000  0.200000  0.250000      8.000000
  0.000000  0.400000  0.250000      4.000000
  0.200000  0.400000  0.250000      8.000000
  0.400000  0.400000  0.250000      8.000000
  0.000000  0.000000  0.500000      1.000000
  0.200000  0.000000  0.500000      2.000000
  0.400000  0.000000  0.500000      2.000000
  0.000000  0.200000  0.500000      2.000000
  0.200000  0.200000  0.500000      4.000000
  0.400000  0.200000  0.500000      4.000000
  0.000000  0.400000  0.500000      2.000000
  0.200000  0.400000  0.500000      4.000000
  0.400000  0.400000  0.500000      4.000000
 
 Following cartesian coordinates:
            Coordinates               Weight
  0.000000  0.000000  0.000000      1.000000
  0.024242  0.000000  0.000000      2.000000
  0.048484  0.000000  0.000000      2.000000
  0.000000  0.024242  0.000000      2.000000
  0.024242  0.024242  0.000000      4.000000
  0.048484  0.024242  0.000000      4.000000
  0.000000  0.048484  0.000000      2.000000
  0.024242  0.048484  0.000000      4.000000
  0.048484  0.048484  0.000000      4.000000
  0.000000  0.000000  0.023970      2.000000
  0.024242  0.000000  0.023970      4.000000
  0.048484  0.000000  0.023970      4.000000
  0.000000  0.024242  0.023970      4.000000
  0.024242  0.024242  0.023970      8.000000
  0.048484  0.024242  0.023970      8.000000
  0.000000  0.048484  0.023970      4.000000
  0.024242  0.048484  0.023970      8.000000
  0.048484  0.048484  0.023970      8.000000
  0.000000  0.000000  0.047939      1.000000
  0.024242  0.000000  0.047939      2.000000
  0.048484  0.000000  0.047939      2.000000
  0.000000  0.024242  0.047939      2.000000
  0.024242  0.024242  0.047939      4.000000
  0.048484  0.024242  0.047939      4.000000
  0.000000  0.048484  0.047939      2.000000
  0.024242  0.048484  0.047939      4.000000
  0.048484  0.048484  0.047939      4.000000
 


--------------------------------------------------------------------------------------------------------




 Dimension of arrays:
   k-points           NKPTS =     27   k-points in BZ     NKDIM =     27   number of bands    NBANDS=    172
   number of dos      NEDOS =    301   number of ions     NIONS =     54
   non local maximal  LDIM  =      6   non local SUM 2l+1 LMDIM =     18
   total plane-waves  NPLWV = 204120
   max r-space proj   IRMAX =      1   max aug-charges    IRDMAX=  89713
   dimension x,y,z NGX =    54 NGY =   54 NGZ =   70
   dimension x,y,z NGXF=   108 NGYF=  108 NGZF=  140
   support grid    NGXF=   216 NGYF=  216 NGZF=  280
   ions per type =              27  27
   NGX,Y,Z   is equivalent  to a cutoff of  10.88, 10.88, 11.16 a.u.
   NGXF,Y,Z  is equivalent  to a cutoff of  21.76, 21.76, 22.32 a.u.

 SYSTEM =  AlMn_pv                                 
 POSCAR =  NewRef: 27, @ ['Mn', array([1.37502469, 

 Startparameter for this run:
   NWRITE =      2    write-flag & timer
   PREC   = accura    normal or accurate (medium, high low for compatibility)
   ISTART =      0    job   : 0-new  1-cont  2-samecut
   ICHARG =      2    charge: 1-file 2-atom 10-const
   ISPIN  =      2    spin polarized calculation?
   LNONCOLLINEAR =      F non collinear calculations
   LSORBIT =      F    spin-orbit coupling
   INIWAV =      1    electr: 0-lowe 1-rand  2-diag
   LASPH  =      F    aspherical Exc in radial PAW
   METAGGA=      F    non-selfconsistent MetaGGA calc.

 Electronic Relaxation 1
   ENCUT  =  404.8 eV  29.75 Ry    5.45 a.u.  13.53 13.53 17.11*2*pi/ulx,y,z
   ENINI  =  404.8     initial cutoff
   ENAUG  =  500.7 eV  augmentation charge cutoff
   NELM   =    100;   NELMIN=  4; NELMDL= -8     # of ELM steps 
   EDIFF  = 0.1E-06   stopping-criterion for ELM
   LREAL  =      F    real-space projection
   NLSPLINE    = F    spline interpolate recip. space projectors
   LCOMPAT=      F    compatible to vasp.4.4
   GGA_COMPAT  = T    GGA compatible to vasp.4.4-vasp.4.6
   LMAXPAW     = -100 max onsite density
   LMAXMIX     =    2 max onsite mixed and CHGCAR
   VOSKOWN=      0    Vosko Wilk Nusair interpolation
   ROPT   =    0.00000   0.00000
 Ionic relaxation
   EDIFFG = 0.1E-05   stopping-criterion for IOM
   NSW    =      0    number of steps for IOM
   NBLOCK =      1;   KBLOCK =      1    inner block; outer block 
   IBRION =     -1    ionic relax: 0-MD 1-quasi-New 2-CG
   NFREE  =      0    steps in history (QN), initial steepest desc. (CG)
   ISIF   =      2    stress and relaxation
   IWAVPR =     10    prediction:  0-non 1-charg 2-wave 3-comb
   ISYM   =      2    0-nonsym 1-usesym 2-fastsym
   LCORR  =      T    Harris-Foulkes like correction to forces

   POTIM  = 0.2000    time-step for ionic-motion
   TEIN   =    0.0    initial temperature
   TEBEG  =    0.0;   TEEND  =   0.0 temperature during run
   SMASS  =  -3.00    Nose mass-parameter (am)
   estimated Nose-frequenzy (Omega)   =  0.10E-29 period in steps =****** mass=  -0.156E-26a.u.
   SCALEE = 1.0000    scale energy and forces
   NPACO  =    256;   APACO  = 16.0  distance and # of slots for P.C.
   PSTRESS=    0.0 pullay stress

  Mass of Ions in am
   POMASS =  26.98 54.94
  Ionic Valenz
   ZVAL   =   3.00  7.00
  Atomic Wigner-Seitz radii
   RWIGS  =  -1.00 -1.00
  virtual crystal weights 
   VCA    =   1.00  1.00
   NELECT =     270.0000    total number of electrons
   NUPDOWN=      -1.0000    fix difference up-down

 DOS related values:
   EMIN   =  10.00;   EMAX   =-10.00  energy-range for DOS
   EFERMI =   0.00
   ISMEAR =     1;   SIGMA  =   0.20  broadening in eV -4-tet -1-fermi 0-gaus

 Electronic relaxation 2 (details)
   IALGO  =     58    algorithm
   LDIAG  =      T    sub-space diagonalisation (order eigenvalues)
   LSUBROT=      F    optimize rotation matrix (better conditioning)
   TURBO    =      0    0=normal 1=particle mesh
   IRESTART =      0    0=no restart 2=restart with 2 vectors
   NREBOOT  =      0    no. of reboots
   NMIN     =      0    reboot dimension
   EREF     =   0.00    reference energy to select bands
   IMIX   =      4    mixing-type and parameters
     AMIX     =   0.40;   BMIX     =  1.00
     AMIX_MAG =   1.60;   BMIX_MAG =  1.00
     AMIN     =   0.10
     WC   =   100.;   INIMIX=   1;  MIXPRE=   1;  MAXMIX= -45

 Intra band minimization:
   WEIMIN = 0.0000     energy-eigenvalue tresh-hold
   EBREAK =  0.15E-09  absolut break condition
   DEPER  =   0.30     relativ break condition  

   TIME   =   0.40     timestep for ELM

  volume/ion in A,a.u.               =      13.15        88.72
  Fermi-wavevector in a.u.,A,eV,Ry     =   1.186118  2.241439 19.141722  1.406877
  Thomas-Fermi vector in A             =   2.322298
 
 Write flags
   LWAVE        =      F    write WAVECAR
   LDOWNSAMPLE  =      F    k-point downsampling of WAVECAR
   LCHARG       =      F    write CHGCAR
   LVTOT        =      F    write LOCPOT, total local potential
   LVHAR        =      F    write LOCPOT, Hartree potential only
   LELF         =      F    write electronic localiz. function (ELF)
   LORBIT       =     10    0 simple, 1 ext, 2 COOP (PROOUT), +10 PAW based schemes


 Dipole corrections
   LMONO  =      F    monopole corrections only (constant potential shift)
   LDIPOL =      F    correct potential (dipole corrections)
   IDIPOL =      0    1-x, 2-y, 3-z, 4-all directions 
   EPSILON=  1.0000000 bulk dielectric constant

 Exchange correlation treatment:
   GGA     =    --    GGA type
   LEXCH   =     8    internal setting for exchange type
   VOSKOWN=      0    Vosko Wilk Nusair interpolation
   LHFCALC =     F    Hartree Fock is set to
   LHFONE  =     F    Hartree Fock one center treatment
   AEXX    =    0.0000 exact exchange contribution

 Linear response parameters
   LEPSILON=     F    determine dielectric tensor
   LRPA    =     F    only Hartree local field effects (RPA)
   LNABLA  =     F    use nabla operator in PAW spheres
   LVEL    =     F    velocity operator in full k-point grid
   LINTERFAST=   F  fast interpolation
   KINTER  =     0    interpolate to denser k-point grid
   CSHIFT  =0.1000    complex shift for real part using Kramers Kronig
   OMEGAMAX=  -1.0    maximum frequency
   DEG_THRESHOLD= 0.2000000E-02 threshold for treating states as degnerate
   RTIME   =   -0.100 relaxation time in fs
  (WPLASMAI=    0.000 imaginary part of plasma frequency in eV, 0.658/RTIME)
   DFIELD  = 0.0000000 0.0000000 0.0000000 field for delta impulse in time
 
 Orbital magnetization related:
   ORBITALMAG=     F  switch on orbital magnetization
   LCHIMAG   =     F  perturbation theory with respect to B field
   DQ        =  0.001000  dq finite difference perturbation B field
   LLRAUG    =     F  two centre corrections for induced B field



--------------------------------------------------------------------------------------------------------


 Static calculation
 charge density and potential will be updated during run
 spin polarized calculation
 Conjugate gradient for all bands (Freysoldt, et al. PRB 79, 241103 (2009))
 preconditioned conjugated gradient                                        
 perform sub-space diagonalisation
    before iterative eigenvector-optimisation
 modified Broyden-mixing scheme, WC =      100.0
 initial mixing is a Kerker type mixing with AMIX =  0.4000 and BMIX =      1.0000
 Hartree-type preconditioning will be used
 using additional bands           37
 reciprocal scheme for non local part
 use partial core corrections
 no Harris-corrections to forces 
 use gradient corrections 
 use of overlap-Matrix (Vanderbilt PP)
 Methfessel and Paxton  Order N= 1 SIGMA  =   0.20


--------------------------------------------------------------------------------------------------------


  energy-cutoff  :      404.80
  volume of cell :      709.91
      direct lattice vectors                 reciprocal lattice vectors
     8.250148166  0.000000000  0.000000000     0.121209944  0.000000000  0.000000000
     0.000000000  8.250148166  0.000000000     0.000000000  0.121209944  0.000000000
     0.000000000  0.000000000 10.429911392     0.000000000  0.000000000  0.095878092

  length of vectors
     8.250148166  8.250148166 10.429911392     0.121209944  0.121209944  0.095878092


 
 k-points in units of 2pi/SCALE and weight: automatic KPOINTS                       
   0.00000000  0.00000000  0.00000000       0.010
   0.02424199  0.00000000  0.00000000       0.020
   0.04848398  0.00000000  0.00000000       0.020
   0.00000000  0.02424199  0.00000000       0.020
   0.02424199  0.02424199  0.00000000       0.040
   0.04848398  0.02424199  0.00000000       0.040
   0.00000000  0.04848398  0.00000000       0.020
   0.02424199  0.04848398  0.00000000       0.040
   0.04848398  0.04848398  0.00000000       0.040
   0.00000000  0.00000000  0.02396952       0.020
   0.02424199  0.00000000  0.02396952       0.040
   0.04848398  0.00000000  0.02396952       0.040
   0.00000000  0.02424199  0.02396952       0.040
   0.02424199  0.02424199  0.02396952       0.080
   0.04848398  0.02424199  0.02396952       0.080
   0.00000000  0.04848398  0.02396952       0.040
   0.02424199  0.04848398  0.02396952       0.080
   0.04848398  0.04848398  0.02396952       0.080
   0.00000000  0.00000000  0.04793905       0.010
   0.02424199  0.00000000  0.04793905       0.020
   0.04848398  0.00000000  0.04793905       0.020
   0.00000000  0.02424199  0.04793905       0.020
   0.02424199  0.02424199  0.04793905       0.040
   0.04848398  0.02424199  0.04793905       0.040
   0.00000000  0.04848398  0.04793905       0.020
   0.02424199  0.04848398  0.04793905       0.040
   0.04848398  0.04848398  0.04793905       0.040
 
 k-points in reciprocal lattice and weights: automatic KPOINTS                       
   0.00000000  0.00000000  0.00000000       0.010
   0.20000000  0.00000000  0.00000000       0.020
   0.40000000  0.00000000  0.00000000       0.020
   0.00000000  0.20000000  0.00000000       0.020
   0.20000000  0.20000000  0.00000000       0.040
   0.40000000  0.20000000  0.00000000       0.040
   0.00000000  0.40000000  0.00000000       0.020
   0.20000000  0.40000000  0.00000000       0.040
   0.40000000  0.40000000  0.00000000       0.040
   0.00000000  0.00000000  0.25000000       0.020
   0.20000000  0.00000000  0.25000000       0.040
   0.40000000  0.00000000  0.25000000       0.040
   0.00000000  0.20000000  0.25000000       0.040
   0.20000000  0.20000000  0.25000000       0.080
   0.40000000  0.20000000  0.25000000       0.080
   0.00000000  0.40000000  0.25000000       0.040
   0.20000000  0.40000000  0.25000000       0.080
   0.40000000  0.40000000  0.25000000       0.080
   0.00000000  0.00000000  0.50000000       0.010
   0.20000000  0.00000000  0.50000000       0.020
   0.40000000  0.00000000  0.50000000       0.020
   0.00000000  0.20000000  0.50000000       0.020
   0.20000000  0.20000000  0.50000000       0.040
   0.40000000  0.20000000  0.50000000       0.040
   0.00000000  0.40000000  0.50000000       0.020
   0.20000000  0.40000000  0.50000000       0.040
   0.40000000  0.40000000  0.50000000       0.040
 
 position of ions in fractional coordinates (direct lattice) 
   0.00000000  0.00000000  0.00000000
   0.00000000  0.00000000  0.33333333
   0.00000000  0.00000000  0.66666667
   0.00000000  0.33333333  0.00000000
   0.00000000  0.33333333  0.33333333
   0.00000000  0.33333333  0.66666667
   0.00000000  0.66666667  0.00000000
   0.00000000  0.66666667  0.33333333
   0.00000000  0.66666667  0.66666667
   0.33333333  0.00000000  0.00000000
   0.33333333  0.00000000  0.33333333
   0.33333333  0.00000000  0.66666667
   0.33333333  0.33333333  0.00000000
   0.33333333  0.33333333  0.33333333
   0.33333333  0.33333333  0.66666667
   0.33333333  0.66666667  0.00000000
   0.33333333  0.66666667  0.33333333
   0.33333333  0.66666667  0.66666667
   0.66666667  0.00000000  0.00000000
   0.66666667  0.00000000  0.33333333
   0.66666667  0.00000000  0.66666667
   0.66666667  0.33333333  0.00000000
   0.66666667  0.33333333  0.33333333
   0.66666667  0.33333333  0.66666667
   0.66666667  0.66666667  0.00000000
   0.66666667  0.66666667  0.33333333
   0.66666667  0.66666667  0.66666667
   0.16666667  0.16666667  0.16666667
   0.16666667  0.16666667  0.50000000
   0.16666667  0.16666667  0.83333333
   0.16666667  0.50000000  0.16666667
   0.16666667  0.50000000  0.50000000
   0.16666667  0.50000000  0.83333333
   0.16666667  0.83333333  0.16666667
   0.16666667  0.83333333  0.50000000
   0.16666667  0.83333333  0.83333333
   0.50000000  0.16666667  0.16666667
   0.50000000  0.16666667  0.50000000
   0.50000000  0.16666667  0.83333333
   0.50000000  0.50000000  0.16666667
   0.50000000  0.50000000  0.50000000
   0.50000000  0.50000000  0.83333333
   0.50000000  0.83333333  0.16666667
   0.50000000  0.83333333  0.50000000
   0.50000000  0.83333333  0.83333333
   0.83333333  0.16666667  0.16666667
   0.83333333  0.16666667  0.50000000
   0.83333333  0.16666667  0.83333333
   0.83333333  0.50000000  0.16666667
   0.83333333  0.50000000  0.50000000
   0.83333333  0.50000000  0.83333333
   0.83333333  0.83333333  0.16666667
   0.83333333  0.83333333  0.50000000
   0.83333333  0.83333333  0.83333333
 
 position of ions in cartesian coordinates  (Angst):
   0.00000000  0.00000000  0.00000000
   0.00000000  0.00000000  3.47663713
   0.00000000  0.00000000  6.95327426
   0.00000000  2.75004939  0.00000000
   0.00000000  2.75004939  3.47663713
   0.00000000  2.75004939  6.95327426
   0.00000000  5.50009878  0.00000000
   0.00000000  5.50009878  3.47663713
   0.00000000  5.50009878  6.95327426
   2.75004939  0.00000000  0.00000000
   2.75004939  0.00000000  3.47663713
   2.75004939  0.00000000  6.95327426
   2.75004939  2.75004939  0.00000000
   2.75004939  2.75004939  3.47663713
   2.75004939  2.75004939  6.95327426
   2.75004939  5.50009878  0.00000000
   2.75004939  5.50009878  3.47663713
   2.75004939  5.50009878  6.95327426
   5.50009878  0.00000000  0.00000000
   5.50009878  0.00000000  3.47663713
   5.50009878  0.00000000  6.95327426
   5.50009878  2.75004939  0.00000000
   5.50009878  2.75004939  3.47663713
   5.50009878  2.75004939  6.95327426
   5.50009878  5.50009878  0.00000000
   5.50009878  5.50009878  3.47663713
   5.50009878  5.50009878  6.95327426
   1.37502469  1.37502469  1.73831857
   1.37502469  1.37502469  5.21495570
   1.37502469  1.37502469  8.69159283
   1.37502469  4.12507408  1.73831857
   1.37502469  4.12507408  5.21495570
   1.37502469  4.12507408  8.69159283
   1.37502469  6.87512347  1.73831857
   1.37502469  6.87512347  5.21495570
   1.37502469  6.87512347  8.69159283
   4.12507408  1.37502469  1.73831857
   4.12507408  1.37502469  5.21495570
   4.12507408  1.37502469  8.69159283
   4.12507408  4.12507408  1.73831857
   4.12507408  4.12507408  5.21495570
   4.12507408  4.12507408  8.69159283
   4.12507408  6.87512347  1.73831857
   4.12507408  6.87512347  5.21495570
   4.12507408  6.87512347  8.69159283
   6.87512347  1.37502469  1.73831857
   6.87512347  1.37502469  5.21495570
   6.87512347  1.37502469  8.69159283
   6.87512347  4.12507408  1.73831857
   6.87512347  4.12507408  5.21495570
   6.87512347  4.12507408  8.69159283
   6.87512347  6.87512347  1.73831857
   6.87512347  6.87512347  5.21495570
   6.87512347  6.87512347  8.69159283
 


--------------------------------------------------------------------------------------------------------


 k-point  1 :   0.0000 0.0000 0.0000  plane waves:   13099
 k-point  2 :   0.2000 0.0000 0.0000  plane waves:   13101
 k-point  3 :   0.4000 0.0000 0.0000  plane waves:   13111
 k-point  4 :   0.0000 0.2000 0.0000  plane waves:   13101
 k-point  5 :   0.2000 0.2000 0.0000  plane waves:   13137
 k-point  6 :   0.4000 0.2000 0.0000  plane waves:   13119
 k-point  7 :   0.0000 0.4000 0.0000  plane waves:   13111
 k-point  8 :   0.2000 0.4000 0.0000  plane waves:   13119
 k-point  9 :   0.4000 0.4000 0.0000  plane waves:   13129
 k-point 10 :   0.0000 0.0000 0.2500  plane waves:   13134
 k-point 11 :   0.2000 0.0000 0.2500  plane waves:   13149
 k-point 12 :   0.4000 0.0000 0.2500  plane waves:   13119
 k-point 13 :   0.0000 0.2000 0.2500  plane waves:   13149
 k-point 14 :   0.2000 0.2000 0.2500  plane waves:   13145
 k-point 15 :   0.4000 0.2000 0.2500  plane waves:   13134
 k-point 16 :   0.0000 0.4000 0.2500  plane waves:   13119
 k-point 17 :   0.2000 0.4000 0.2500  plane waves:   13134
 k-point 18 :   0.4000 0.4000 0.2500  plane waves:   13108
 k-point 19 :   0.0000 0.0000 0.5000  plane waves:   13186
 k-point 20 :   0.2000 0.0000 0.5000  plane waves:   13124
 k-point 21 :   0.4000 0.0000 0.5000  plane waves:   13152
 k-point 22 :   0.0000 0.2000 0.5000  plane waves:   13124
 k-point 23 :   0.2000 0.2000 0.5000  plane waves:   13136
 k-point 24 :   0.4000 0.2000 0.5000  plane waves:   13128
 k-point 25 :   0.0000 0.4000 0.5000  plane waves:   13152
 k-point 26 :   0.2000 0.4000 0.5000  plane waves:   13128
 k-point 27 :   0.4000 0.4000 0.5000  plane waves:   13112

 maximum and minimum number of plane-waves per node :      3304     3246

 maximum number of plane-waves:     13186
 maximum index in each direction: 
   IXMAX=   13   IYMAX=   13   IZMAX=   17
   IXMIN=  -13   IYMIN=  -13   IZMIN=  -17


 parallel 3D FFT for wavefunctions:
    minimum data exchange during FFTs selected (reduces bandwidth)
 parallel 3D FFT for charge:
    minimum data exchange during FFTs selected (reduces bandwidth)


 total amount of memory used by VASP MPI-rank0   887625. kBytes
=======================================================================

   base      :      30000. kBytes
   nonl-proj :      28494. kBytes
   fftplans  :      31580. kBytes
   grid      :      21385. kBytes
   one-center:        435. kBytes
   wavefun   :     775731. kBytes
 
     INWAV:  cpu time    0.0000: real time    0.0000
 Broyden mixing: mesh for mixing (old mesh)
   NGX = 27   NGY = 27   NGZ = 35
  (NGX  =108   NGY  =108   NGZ  =140)
  gives a total of  25515 points

 initial charge density was supplied:
 charge density of overlapping atoms calculated
 number of electron     270.0000000 magnetization      15.0000000
 keeping initial charge density in first step


--------------------------------------------------------------------------------------------------------


 Maximum index for augmentation-charges        10967 (set IRDMAX)


--------------------------------------------------------------------------------------------------------


 First call to EWALD:  gamma=   0.199
 Maximum number of real-space cells 3x 3x 2
 Maximum number of reciprocal cells 3x 3x 3

    FEWALD:  cpu time    0.0029: real time    0.0029


--------------------------------------- Iteration      1(   1)  ---------------------------------------


    POTLOK:  cpu time    0.4028: real time    0.4036
    SETDIJ:  cpu time    1.2665: real time    1.2679
    TRIAL :  cpu time   30.4679: real time   31.5068
    CORREC:  cpu time    0.0048: real time    0.0050
    --------------------------------------------
      LOOP:  cpu time   32.4054: real time   33.4546

 eigenvalue-minimisations  : 18576
 total energy-change (2. order) : 0.2039287E+04  (-0.8838919E+04)
 number of electron     270.0000000 magnetization      15.0000000
 augmentation part      270.0000000 magnetization      15.0000000

 Free energy of the ion-electron system (eV)
  ---------------------------------------------------
  alpha Z        PSCENC =       798.38614055
  Ewald energy   TEWEN  =    -12901.57693327
  -Hartree energ DENC   =     -2855.60785864
  -exchange      EXHF   =         0.00000000
  -V(xc)+E(xc)   XCENC  =      -996.06378164
  PAW double counting   =     12741.82587617   -11476.22345381
  entropy T*S    EENTRO =        -0.00034492
  eigenvalues    EBANDS =      4030.87318667
  atomic energy  EATOM  =     12697.67401269
  ---------------------------------------------------
  free energy    TOTEN  =      2039.28684379 eV

  energy without entropy =     2039.28718871  energy(sigma->0) =     2039.28695876


--------------------------------------------------------------------------------------------------------




--------------------------------------- Iteration      1(   2)  ---------------------------------------


    TRIAL :  cpu time   31.0764: real time   31.2228
    CORREC:  cpu time    0.0067: real time    0.0077
    --------------------------------------------
      LOOP:  cpu time   31.0841: real time   31.2340

 eigenvalue-minimisations  : 18576
 total energy-change (2. order) :-0.2129611E+04  (-0.2074866E+04)
 number of electron     270.0000000 magnetization      15.0000000
 augmentation part      270.0000000 magnetization      15.0000000

 Free energy of the ion-electron system (eV)
  ---------------------------------------------------
  alpha Z        PSCENC =       798.38614055
  Ewald energy   TEWEN  =    -12901.57693327
  -Hartree energ DENC   =     -2855.60785864
  -exchange      EXHF   =         0.00000000
  -V(xc)+E(xc)   XCENC  =      -996.06378164
  PAW double counting   =     12741.82587617   -11476.22345381
  entropy T*S    EENTRO =         0.00649931
  eigenvalues    EBANDS =      1901.25543311
  atomic energy  EATOM  =     12697.67401269
  ---------------------------------------------------
  free energy    TOTEN  =       -90.32406555 eV

  energy without entropy =      -90.33056486  energy(sigma->0) =      -90.32623198


--------------------------------------------------------------------------------------------------------




--------------------------------------- Iteration      1(   3)  ---------------------------------------


    TRIAL :  cpu time   42.3550: real time   43.5005
    CORREC:  cpu time    0.0078: real time    0.0087
    --------------------------------------------
      LOOP:  cpu time   42.3637: real time   43.5124

 eigenvalue-minimisations  : 27892
 total energy-change (2. order) :-0.2643363E+03  (-0.2339160E+03)
 number of electron     270.0000000 magnetization      15.0000000
 augmentation part      270.0000000 magnetization      15.0000000

 Free energy of the ion-electron system (eV)
  ---------------------------------------------------
  alpha Z        PSCENC =       798.38614055
  Ewald energy   TEWEN  =    -12901.57693327
  -Hartree energ DENC   =     -2855.60785864
  -exchange      EXHF   =         0.00000000
  -V(xc)+E(xc)   XCENC  =      -996.06378164
  PAW double counting   =     12741.82587617   -11476.22345381
  entropy T*S    EENTRO =         0.00714660
  eigenvalues    EBANDS =      1636.91849863
  atomic energy  EATOM  =     12697.67401269
  ---------------------------------------------------
  free energy    TOTEN  =      -354.66035273 eV

  energy without entropy =     -354.66749933  energy(sigma->0) =     -354.66273493


--------------------------------------------------------------------------------------------------------




--------------------------------------- Iteration      1(   4)  ---------------------------------------


    TRIAL :  cpu time   45.3615: real time   46.4661
    CORREC:  cpu time    0.0082: real time    0.0090
    --------------------------------------------
      LOOP:  cpu time   45.3711: real time   46.4794

 eigenvalue-minimisations  : 30200
 total energy-change (2. order) :-0.4438690E+02  (-0.3913028E+02)
 number of electron     270.0000000 magnetization      15.0000000
 augmentation part      270.0000000 magnetization      15.0000000

 Free energy of the ion-electron system (eV)
  ---------------------------------------------------
  alpha Z        PSCENC =       798.38614055
  Ewald energy   TEWEN  =    -12901.57693327
  -Hartree energ DENC   =     -2855.60785864
  -exchange      EXHF   =         0.00000000
  -V(xc)+E(xc)   XCENC  =      -996.06378164
  PAW double counting   =     12741.82587617   -11476.22345381
  entropy T*S    EENTRO =         0.04036774
  eigenvalues    EBANDS =      1592.49837578
  atomic energy  EATOM  =     12697.67401269
  ---------------------------------------------------
  free energy    TOTEN  =      -399.04725444 eV

  energy without entropy =     -399.08762218  energy(sigma->0) =     -399.06071035


--------------------------------------------------------------------------------------------------------




--------------------------------------- Iteration      1(   5)  ---------------------------------------


    TRIAL :  cpu time   46.0272: real time   46.4523
    CORREC:  cpu time    0.0084: real time    0.0092
    --------------------------------------------
      LOOP:  cpu time   46.0386: real time   46.4654

 eigenvalue-minimisations  : 30760
 total energy-change (2. order) :-0.4714132E+01  (-0.4512680E+01)
 number of electron     270.0000000 magnetization      15.0000000
 augmentation part      270.0000000 magnetization      15.0000000

 Free energy of the ion-electron system (eV)
  ---------------------------------------------------
  alpha Z        PSCENC =       798.38614055
  Ewald energy   TEWEN  =    -12901.57693327
  -Hartree energ DENC   =     -2855.60785864
  -exchange      EXHF   =         0.00000000
  -V(xc)+E(xc)   XCENC  =      -996.06378164
  PAW double counting   =     12741.82587617   -11476.22345381
  entropy T*S    EENTRO =         0.04503864
  eigenvalues    EBANDS =      1587.77957254
  atomic energy  EATOM  =     12697.67401269
  ---------------------------------------------------
  free energy    TOTEN  =      -403.76138678 eV

  energy without entropy =     -403.80642542  energy(sigma->0) =     -403.77639966


--------------------------------------------------------------------------------------------------------




--------------------------------------- Iteration      1(   6)  ---------------------------------------


    TRIAL :  cpu time   45.9415: real time   46.9938
    CORREC:  cpu time    0.0084: real time    0.0085
    --------------------------------------------
      LOOP:  cpu time   45.9508: real time   47.0057

 eigenvalue-minimisations  : 30680
 total energy-change (2. order) :-0.3833716E+00  (-0.3756810E+00)
 number of electron     270.0000000 magnetization      15.0000000
 augmentation part      270.0000000 magnetization      15.0000000

 Free energy of the ion-electron system (eV)
  ---------------------------------------------------
  alpha Z        PSCENC =       798.38614055
  Ewald energy   TEWEN  =    -12901.57693327
  -Hartree energ DENC   =     -2855.60785864
  -exchange      EXHF   =         0.00000000
  -V(xc)+E(xc)   XCENC  =      -996.06378164
  PAW double counting   =     12741.82587617   -11476.22345381
  entropy T*S    EENTRO =         0.04601264
  eigenvalues    EBANDS =      1587.39522699
  atomic energy  EATOM  =     12697.67401269
  ---------------------------------------------------
  free energy    TOTEN  =      -404.14475833 eV

  energy without entropy =     -404.19077097  energy(sigma->0) =     -404.16009588


--------------------------------------------------------------------------------------------------------




--------------------------------------- Iteration      1(   7)  ---------------------------------------


    TRIAL :  cpu time   46.6158: real time   47.8154
    CORREC:  cpu time    0.0083: real time    0.0091
    --------------------------------------------
      LOOP:  cpu time   46.6251: real time   47.8280

 eigenvalue-minimisations  : 31256
 total energy-change (2. order) :-0.4172854E-01  (-0.4132990E-01)
 number of electron     270.0000000 magnetization      15.0000000
 augmentation part      270.0000000 magnetization      15.0000000

 Free energy of the ion-electron system (eV)
  ---------------------------------------------------
  alpha Z        PSCENC =       798.38614055
  Ewald energy   TEWEN  =    -12901.57693327
  -Hartree energ DENC   =     -2855.60785864
  -exchange      EXHF   =         0.00000000
  -V(xc)+E(xc)   XCENC  =      -996.06378164
  PAW double counting   =     12741.82587617   -11476.22345381
  entropy T*S    EENTRO =         0.04633052
  eigenvalues    EBANDS =      1587.35318056
  atomic energy  EATOM  =     12697.67401269
  ---------------------------------------------------
  free energy    TOTEN  =      -404.18648687 eV

  energy without entropy =     -404.23281740  energy(sigma->0) =     -404.20193038


--------------------------------------------------------------------------------------------------------




--------------------------------------- Iteration      1(   8)  ---------------------------------------


    TRIAL :  cpu time   45.2569: real time   46.4442
    CORREC:  cpu time    0.0088: real time    0.0097
    CHARGE:  cpu time    1.5436: real time    1.5438
    --------------------------------------------
      LOOP:  cpu time   46.8105: real time   48.0017

 eigenvalue-minimisations  : 30072
 total energy-change (2. order) :-0.3290908E-02  (-0.3270306E-02)
 number of electron     269.9999995 magnetization      10.3573089
 augmentation part       64.2102481 magnetization       6.0139786

 Free energy of the ion-electron system (eV)
  ---------------------------------------------------
  alpha Z        PSCENC =       798.38614055
  Ewald energy   TEWEN  =    -12901.57693327
  -Hartree energ DENC   =     -2855.60785864
  -exchange      EXHF   =         0.00000000
  -V(xc)+E(xc)   XCENC  =      -996.06378164
  PAW double counting   =     12741.82587617   -11476.22345381
  entropy T*S    EENTRO =         0.04641478
  eigenvalues    EBANDS =      1587.34980540
  atomic energy  EATOM  =     12697.67401269
  ---------------------------------------------------
  free energy    TOTEN  =      -404.18977778 eV

  energy without entropy =     -404.23619256  energy(sigma->0) =     -404.20524937


--------------------------------------------------------------------------------------------------------




--------------------------------------- Iteration      1(   9)  ---------------------------------------


    POTLOK:  cpu time    0.3975: real time    0.3975
    SETDIJ:  cpu time    0.4574: real time    0.4886
    TRIAL :  cpu time   15.6383: real time   15.6893
    CORREC:  cpu time    5.6453: real time    5.6592
    CHARGE:  cpu time    1.4833: real time    1.5912
    --------------------------------------------
      LOOP:  cpu time   23.6244: real time   23.8294

 eigenvalue-minimisations  :     0
 total energy-change (2. order) : 0.2994942E+03  (-0.2176216E+03)
 number of electron     269.9999993 magnetization      10.8989282
 augmentation part       82.5973984 magnetization       7.2528880

 Free energy of the ion-electron system (eV)
  ---------------------------------------------------
  alpha Z        PSCENC =       798.38614055
  Ewald energy   TEWEN  =    -12901.57693327
  -Hartree energ DENC   =     -1273.03686689
  -exchange      EXHF   =         0.00000000
  -V(xc)+E(xc)   XCENC  =     -1041.62402789
  PAW double counting   =     19169.83801204   -17750.31396735
  entropy T*S    EENTRO =         0.03071548
  eigenvalues    EBANDS =       195.91166976
  atomic energy  EATOM  =     12697.67401269
  ---------------------------------------------------
  free energy    TOTEN  =      -104.69554559 eV

  energy without entropy =     -104.72626106  energy(sigma->0) =     -104.70578408


--------------------------------------------------------------------------------------------------------




--------------------------------------- Iteration      1(  10)  ---------------------------------------


    POTLOK:  cpu time    0.3915: real time    0.3915
    SETDIJ:  cpu time    0.4577: real time    0.4584
    TRIAL :  cpu time   15.6273: real time   15.8308
    CORREC:  cpu time    5.0109: real time    5.0685
    CHARGE:  cpu time    1.5210: real time    2.1637
    --------------------------------------------
      LOOP:  cpu time   23.0097: real time   23.9155

 eigenvalue-minimisations  :     0
 total energy-change (2. order) :-0.2135951E+03  (-0.1198042E+02)
 number of electron     269.9999993 magnetization      11.1639883
 augmentation part       86.3128609 magnetization       7.5164951

 Free energy of the ion-electron system (eV)
  ---------------------------------------------------
  alpha Z        PSCENC =       798.38614055
  Ewald energy   TEWEN  =    -12901.57693327
  -Hartree energ DENC   =     -2112.84172933
  -exchange      EXHF   =         0.00000000
  -V(xc)+E(xc)   XCENC  =     -1012.28828180
  PAW double counting   =     20669.36528977   -19431.91414752
  entropy T*S    EENTRO =         0.02290197
  eigenvalues    EBANDS =       974.87424091
  atomic energy  EATOM  =     12697.67401269
  ---------------------------------------------------
  free energy    TOTEN  =      -318.29069252 eV

  energy without entropy =     -318.31359449  energy(sigma->0) =     -318.29832651


--------------------------------------------------------------------------------------------------------




--------------------------------------- Iteration      1(  11)  ---------------------------------------


    POTLOK:  cpu time    0.3926: real time    0.3926
    SETDIJ:  cpu time    0.4574: real time    0.4578
    TRIAL :  cpu time   15.6943: real time   15.8562
    CORREC:  cpu time    5.0496: real time    5.0516
    CHARGE:  cpu time    1.5412: real time    1.5416
    --------------------------------------------
      LOOP:  cpu time   23.1402: real time   23.3060

 eigenvalue-minimisations  :     0
 total energy-change (2. order) :-0.1141306E+02  (-0.1106550E+02)
 number of electron     269.9999992 magnetization      11.2212182
 augmentation part       88.9690500 magnetization       7.7919042

 Free energy of the ion-electron system (eV)
  ---------------------------------------------------
  alpha Z        PSCENC =       798.38614055
  Ewald energy   TEWEN  =    -12901.57693327
  -Hartree energ DENC   =     -2333.20734292
  -exchange      EXHF   =         0.00000000
  -V(xc)+E(xc)   XCENC  =     -1004.13595100
  PAW double counting   =     21527.10188929   -20326.45827625
  entropy T*S    EENTRO =         0.02488397
  eigenvalues    EBANDS =      1212.48980253
  atomic energy  EATOM  =     12697.67401269
  ---------------------------------------------------
  free energy    TOTEN  =      -329.70375642 eV

  energy without entropy =     -329.72864039  energy(sigma->0) =     -329.71205108


--------------------------------------------------------------------------------------------------------




--------------------------------------- Iteration      1(  12)  ---------------------------------------


    POTLOK:  cpu time    0.3922: real time    0.3922
    SETDIJ:  cpu time    0.4615: real time    0.4856
    TRIAL :  cpu time   16.1360: real time   16.2588
    CORREC:  cpu time    4.9419: real time    5.0738
    CHARGE:  cpu time    1.5464: real time    1.5466
    --------------------------------------------
      LOOP:  cpu time   23.4832: real time   23.7632

 eigenvalue-minimisations  :     0
 total energy-change (2. order) :-0.1122439E+02  (-0.1228327E+02)
 number of electron     269.9999993 magnetization      11.5337000
 augmentation part       86.7679807 magnetization       7.9861547

 Free energy of the ion-electron system (eV)
  ---------------------------------------------------
  alpha Z        PSCENC =       798.38614055
  Ewald energy   TEWEN  =    -12901.57693327
  -Hartree energ DENC   =     -2543.27066470
  -exchange      EXHF   =         0.00000000
  -V(xc)+E(xc)   XCENC  =      -996.92897625
  PAW double counting   =     21845.11652791   -20658.61467133
  entropy T*S    EENTRO =         0.00157518
  eigenvalues    EBANDS =      1418.26153257
  atomic energy  EATOM  =     12697.67401269
  ---------------------------------------------------
  free energy    TOTEN  =      -340.92814785 eV

  energy without entropy =     -340.92972303  energy(sigma->0) =     -340.92867291


--------------------------------------------------------------------------------------------------------




--------------------------------------- Iteration      1(  13)  ---------------------------------------


    POTLOK:  cpu time    0.3900: real time    0.3917
    SETDIJ:  cpu time    0.4581: real time    0.4582
    TRIAL :  cpu time   15.6102: real time   16.4925
    CORREC:  cpu time    5.0946: real time    5.1169
    CHARGE:  cpu time    1.5246: real time    1.5249
    --------------------------------------------
      LOOP:  cpu time   23.0812: real time   23.9907

 eigenvalue-minimisations  :     0
 total energy-change (2. order) :-0.1220485E+02  (-0.8607582E+00)
 number of electron     269.9999993 magnetization      11.7317303
 augmentation part       86.1901869 magnetization       7.9925635

 Free energy of the ion-electron system (eV)
  ---------------------------------------------------
  alpha Z        PSCENC =       798.38614055
  Ewald energy   TEWEN  =    -12901.57693327
  -Hartree energ DENC   =     -2518.94354755
  -exchange      EXHF   =         0.00000000
  -V(xc)+E(xc)   XCENC  =      -998.73388617
  PAW double counting   =     21234.43015052   -19996.08885461
  entropy T*S    EENTRO =        -0.00402699
  eigenvalues    EBANDS =      1331.71834014
  atomic energy  EATOM  =     12697.67401269
  ---------------------------------------------------
  free energy    TOTEN  =      -353.13300254 eV

  energy without entropy =     -353.12897554  energy(sigma->0) =     -353.13166021


--------------------------------------------------------------------------------------------------------




--------------------------------------- Iteration      1(  14)  ---------------------------------------


    POTLOK:  cpu time    0.3908: real time    0.3911
    SETDIJ:  cpu time    0.4623: real time    0.4630
    TRIAL :  cpu time   15.6570: real time   15.7274
    CORREC:  cpu time    5.7881: real time    5.7993
    CHARGE:  cpu time    1.4833: real time    1.5939
    --------------------------------------------
      LOOP:  cpu time   23.7944: real time   23.9888

 eigenvalue-minimisations  :     0
 total energy-change (2. order) :-0.8583312E+00  (-0.1121240E+01)
 number of electron     269.9999993 magnetization      11.6760834
 augmentation part       85.9249841 magnetization       7.9174275

 Free energy of the ion-electron system (eV)
  ---------------------------------------------------
  alpha Z        PSCENC =       798.38614055
  Ewald energy   TEWEN  =    -12901.57693327
  -Hartree energ DENC   =     -2486.24870494
  -exchange      EXHF   =         0.00000000
  -V(xc)+E(xc)   XCENC  =      -999.92323978
  PAW double counting   =     20834.52851693   -19586.48433063
  entropy T*S    EENTRO =        -0.00598059
  eigenvalues    EBANDS =      1289.65723166
  atomic energy  EATOM  =     12697.67401269
  ---------------------------------------------------
  free energy    TOTEN  =      -353.99133378 eV

  energy without entropy =     -353.98535319  energy(sigma->0) =     -353.98934025


--------------------------------------------------------------------------------------------------------




--------------------------------------- Iteration      1(  15)  ---------------------------------------


    POTLOK:  cpu time    0.4167: real time    0.4167
    SETDIJ:  cpu time    0.4390: real time    0.4622
    TRIAL :  cpu time   15.6729: real time   15.8592
    CORREC:  cpu time    5.0000: real time    5.0620
    CHARGE:  cpu time    1.5323: real time    1.5616
    --------------------------------------------
      LOOP:  cpu time   23.0621: real time   23.3640

 eigenvalue-minimisations  :     0
 total energy-change (2. order) :-0.1115823E+01  (-0.6209098E+00)
 number of electron     269.9999992 magnetization      11.6618727
 augmentation part       86.6775270 magnetization       7.9487296

 Free energy of the ion-electron system (eV)
  ---------------------------------------------------
  alpha Z        PSCENC =       798.38614055
  Ewald energy   TEWEN  =    -12901.57693327
  -Hartree energ DENC   =     -2459.83502193
  -exchange      EXHF   =         0.00000000
  -V(xc)+E(xc)   XCENC  =     -1000.85335451
  PAW double counting   =     20101.70143319   -18845.42955353
  entropy T*S    EENTRO =        -0.01055263
  eigenvalues    EBANDS =      1254.83210105
  atomic energy  EATOM  =     12697.67401269
  ---------------------------------------------------
  free energy    TOTEN  =      -355.10715635 eV

  energy without entropy =     -355.09660372  energy(sigma->0) =     -355.10363881


--------------------------------------------------------------------------------------------------------




--------------------------------------- Iteration      1(  16)  ---------------------------------------


    POTLOK:  cpu time    0.4187: real time    0.4191
    SETDIJ:  cpu time    0.4481: real time    0.4480
    TRIAL :  cpu time   15.6299: real time   15.7827
    CORREC:  cpu time    4.9885: real time    4.9899
    CHARGE:  cpu time    1.5471: real time    1.5473
    --------------------------------------------
      LOOP:  cpu time   23.2643: real time   24.1881

 eigenvalue-minimisations  :     0
 total energy-change (2. order) :-0.6242960E+00  (-0.2241985E+00)
 number of electron     269.9999992 magnetization      11.7778291
 augmentation part       87.1485389 magnetization       8.0182495

 Free energy of the ion-electron system (eV)
  ---------------------------------------------------
  alpha Z        PSCENC =       798.38614055
  Ewald energy   TEWEN  =    -12901.57693327
  -Hartree energ DENC   =     -2489.14915310
  -exchange      EXHF   =         0.00000000
  -V(xc)+E(xc)   XCENC  =      -999.68180151
  PAW double counting   =     19740.74032508   -18490.09629813
  entropy T*S    EENTRO =        -0.01127913
  eigenvalues    EBANDS =      1287.98280796
  atomic energy  EATOM  =     12697.67401269
  ---------------------------------------------------
  free energy    TOTEN  =      -355.73145236 eV

  energy without entropy =     -355.72017323  energy(sigma->0) =     -355.72769265


--------------------------------------------------------------------------------------------------------




--------------------------------------- Iteration      1(  17)  ---------------------------------------


    POTLOK:  cpu time    0.3914: real time    0.3915
    SETDIJ:  cpu time    0.4578: real time    0.4578
    TRIAL :  cpu time   16.0743: real time   16.2251
    CORREC:  cpu time    5.0012: real time    5.0616
    CHARGE:  cpu time    1.5337: real time    1.5766
    --------------------------------------------
      LOOP:  cpu time   23.4625: real time   23.7204

 eigenvalue-minimisations  :     0
 total energy-change (2. order) :-0.2249332E+00  (-0.2984698E+00)
 number of electron     269.9999992 magnetization      11.7518515
 augmentation part       87.2565212 magnetization       8.1126051

 Free energy of the ion-electron system (eV)
  ---------------------------------------------------
  alpha Z        PSCENC =       798.38614055
  Ewald energy   TEWEN  =    -12901.57693327
  -Hartree energ DENC   =     -2510.00101121
  -exchange      EXHF   =         0.00000000
  -V(xc)+E(xc)   XCENC  =      -998.78922627
  PAW double counting   =     19640.39250603   -18394.22638100
  entropy T*S    EENTRO =        -0.01395275
  eigenvalues    EBANDS =      1312.19578606
  atomic energy  EATOM  =     12697.67401269
  ---------------------------------------------------
  free energy    TOTEN  =      -355.95638554 eV

  energy without entropy =     -355.94243279  energy(sigma->0) =     -355.95173463


--------------------------------------------------------------------------------------------------------




--------------------------------------- Iteration      1(  18)  ---------------------------------------


    POTLOK:  cpu time    0.3912: real time    0.3911
    SETDIJ:  cpu time    0.4604: real time    0.4604
    TRIAL :  cpu time   15.5656: real time   16.5122
    CORREC:  cpu time    5.0251: real time    5.0699
    CHARGE:  cpu time    1.5163: real time    1.5248
    --------------------------------------------
      LOOP:  cpu time   22.9635: real time   23.9647

 eigenvalue-minimisations  :     0
 total energy-change (2. order) :-0.2985907E+00  (-0.9318704E-01)
 number of electron     269.9999992 magnetization      11.8089984
 augmentation part       87.0702237 magnetization       8.1636664

 Free energy of the ion-electron system (eV)
  ---------------------------------------------------
  alpha Z        PSCENC =       798.38614055
  Ewald energy   TEWEN  =    -12901.57693327
  -Hartree energ DENC   =     -2511.68087780
  -exchange      EXHF   =         0.00000000
  -V(xc)+E(xc)   XCENC  =      -998.31789345
  PAW double counting   =     19531.60643112   -18286.33585199
  entropy T*S    EENTRO =        -0.01487073
  eigenvalues    EBANDS =      1314.00394862
  atomic energy  EATOM  =     12697.67401269
  ---------------------------------------------------
  free energy    TOTEN  =      -356.25497628 eV

  energy without entropy =     -356.24010555  energy(sigma->0) =     -356.25001937


--------------------------------------------------------------------------------------------------------




--------------------------------------- Iteration      1(  19)  ---------------------------------------


    POTLOK:  cpu time    0.4180: real time    0.4180
    SETDIJ:  cpu time    0.5091: real time    0.5091
    TRIAL :  cpu time   15.7062: real time   15.7726
    CORREC:  cpu time    5.7540: real time    5.7577
    CHARGE:  cpu time    1.5208: real time    1.5313
    --------------------------------------------
      LOOP:  cpu time   23.9112: real time   23.9931

 eigenvalue-minimisations  :     0
 total energy-change (2. order) :-0.9294374E-01  (-0.4912825E-01)
 number of electron     269.9999992 magnetization      11.8155710
 augmentation part       86.8944369 magnetization       8.1804831

 Free energy of the ion-electron system (eV)
  ---------------------------------------------------
  alpha Z        PSCENC =       798.38614055
  Ewald energy   TEWEN  =    -12901.57693327
  -Hartree energ DENC   =     -2501.47074074
  -exchange      EXHF   =         0.00000000
  -V(xc)+E(xc)   XCENC  =      -998.52652975
  PAW double counting   =     19496.62684594   -18249.36245785
  entropy T*S    EENTRO =        -0.01514887
  eigenvalues    EBANDS =      1301.91661314
  atomic energy  EATOM  =     12697.67401269
  ---------------------------------------------------
  free energy    TOTEN  =      -356.34792002 eV

  energy without entropy =     -356.33277116  energy(sigma->0) =     -356.34287040


--------------------------------------------------------------------------------------------------------




--------------------------------------- Iteration      1(  20)  ---------------------------------------


    POTLOK:  cpu time    0.3914: real time    0.3915
    SETDIJ:  cpu time    0.4210: real time    0.5210
    TRIAL :  cpu time   15.5847: real time   15.7994
    CORREC:  cpu time    4.9994: real time    5.0462
    CHARGE:  cpu time    1.5441: real time    1.5443
    --------------------------------------------
      LOOP:  cpu time   22.9455: real time   23.3080

 eigenvalue-minimisations  :     0
 total energy-change (2. order) :-0.4898781E-01  (-0.6900831E-01)
 number of electron     269.9999992 magnetization      11.8247932
 augmentation part       86.7796863 magnetization       8.2133985

 Free energy of the ion-electron system (eV)
  ---------------------------------------------------
  alpha Z        PSCENC =       798.38614055
  Ewald energy   TEWEN  =    -12901.57693327
  -Hartree energ DENC   =     -2493.35163380
  -exchange      EXHF   =         0.00000000
  -V(xc)+E(xc)   XCENC  =      -998.72897321
  PAW double counting   =     19480.12467234   -18231.12515880
  entropy T*S    EENTRO =        -0.01665612
  eigenvalues    EBANDS =      1292.21611453
  atomic energy  EATOM  =     12697.67401269
  ---------------------------------------------------
  free energy    TOTEN  =      -356.39690784 eV

  energy without entropy =     -356.38025171  energy(sigma->0) =     -356.39135580


--------------------------------------------------------------------------------------------------------




--------------------------------------- Iteration      1(  21)  ---------------------------------------


    POTLOK:  cpu time    0.3917: real time    0.3918
    SETDIJ:  cpu time    0.4694: real time    0.4694
    TRIAL :  cpu time   15.6646: real time   16.5085
    CORREC:  cpu time    4.9988: real time    5.0297
    CHARGE:  cpu time    1.5318: real time    1.5323
    --------------------------------------------
      LOOP:  cpu time   23.0610: real time   23.9376

 eigenvalue-minimisations  :     0
 total energy-change (2. order) :-0.6894668E-01  (-0.4915418E-01)
 number of electron     269.9999992 magnetization      11.8859296
 augmentation part       86.9385097 magnetization       8.2679026

 Free energy of the ion-electron system (eV)
  ---------------------------------------------------
  alpha Z        PSCENC =       798.38614055
  Ewald energy   TEWEN  =    -12901.57693327
  -Hartree energ DENC   =     -2490.22990619
  -exchange      EXHF   =         0.00000000
  -V(xc)+E(xc)   XCENC  =      -998.70070859
  PAW double counting   =     19478.15551872   -18228.44629831
  entropy T*S    EENTRO =        -0.01728857
  eigenvalues    EBANDS =      1288.28897600
  atomic energy  EATOM  =     12697.67401269
  ---------------------------------------------------
  free energy    TOTEN  =      -356.46585451 eV

  energy without entropy =     -356.44856594  energy(sigma->0) =     -356.46009165


--------------------------------------------------------------------------------------------------------




--------------------------------------- Iteration      1(  22)  ---------------------------------------


    POTLOK:  cpu time    0.3911: real time    0.3911
    SETDIJ:  cpu time    0.4586: real time    0.4586
    TRIAL :  cpu time   16.0564: real time   16.1989
    CORREC:  cpu time    4.9808: real time    5.0355
    CHARGE:  cpu time    1.5037: real time    1.6084
    --------------------------------------------
      LOOP:  cpu time   23.3989: real time   23.7022

 eigenvalue-minimisations  :     0
 total energy-change (2. order) :-0.4920935E-01  (-0.1214531E-01)
 number of electron     269.9999992 magnetization      11.8827279
 augmentation part       86.9832699 magnetization       8.2810077

 Free energy of the ion-electron system (eV)
  ---------------------------------------------------
  alpha Z        PSCENC =       798.38614055
  Ewald energy   TEWEN  =    -12901.57693327
  -Hartree energ DENC   =     -2501.10992171
  -exchange      EXHF   =         0.00000000
  -V(xc)+E(xc)   XCENC  =      -998.20298583
  PAW double counting   =     19502.45610397   -18254.99137434
  entropy T*S    EENTRO =        -0.01738943
  eigenvalues    EBANDS =      1300.86718266
  atomic energy  EATOM  =     12697.67401269
  ---------------------------------------------------
  free energy    TOTEN  =      -356.51506387 eV

  energy without entropy =     -356.49767443  energy(sigma->0) =     -356.50926739


--------------------------------------------------------------------------------------------------------




--------------------------------------- Iteration      1(  23)  ---------------------------------------


    POTLOK:  cpu time    0.3918: real time    0.3918
    SETDIJ:  cpu time    0.4854: real time    0.4858
    TRIAL :  cpu time   15.6348: real time   16.7651
    CORREC:  cpu time    5.0450: real time    5.0556
    CHARGE:  cpu time    1.5749: real time    1.5841
    --------------------------------------------
      LOOP:  cpu time   23.1354: real time   24.2876

 eigenvalue-minimisations  :     0
 total energy-change (2. order) :-0.1215062E-01  (-0.1580317E-01)
 number of electron     269.9999992 magnetization      11.9412259
 augmentation part       86.9729028 magnetization       8.3146394

 Free energy of the ion-electron system (eV)
  ---------------------------------------------------
  alpha Z        PSCENC =       798.38614055
  Ewald energy   TEWEN  =    -12901.57693327
  -Hartree energ DENC   =     -2503.85278858
  -exchange      EXHF   =         0.00000000
  -V(xc)+E(xc)   XCENC  =      -998.06650361
  PAW double counting   =     19506.84093245   -18259.94373675
  entropy T*S    EENTRO =        -0.01736975
  eigenvalues    EBANDS =      1304.02905147
  atomic energy  EATOM  =     12697.67401269
  ---------------------------------------------------
  free energy    TOTEN  =      -356.52721449 eV

  energy without entropy =     -356.50984474  energy(sigma->0) =     -356.52142457


--------------------------------------------------------------------------------------------------------




--------------------------------------- Iteration      1(  24)  ---------------------------------------


    POTLOK:  cpu time    0.3926: real time    0.3925
    SETDIJ:  cpu time    0.4824: real time    0.4824
    TRIAL :  cpu time   15.6168: real time   15.6868
    CORREC:  cpu time    5.6942: real time    5.6983
    CHARGE:  cpu time    1.5293: real time    1.5296
    --------------------------------------------
      LOOP:  cpu time   23.7195: real time   23.7949

 eigenvalue-minimisations  :     0
 total energy-change (2. order) :-0.1580368E-01  (-0.1190259E-01)
[...]
   45        0.021   0.020   2.383   2.424
   46        0.020   0.015   2.401   2.437
   47       -0.013  -0.023  -2.266  -2.301
   48        0.030   0.032   2.236   2.297
   49        0.013   0.020   2.222   2.255
   50       -0.019  -0.017  -2.357  -2.392
   51       -0.024  -0.018  -2.406  -2.448
   52        0.013   0.020   2.239   2.272
   53       -0.019  -0.017  -2.366  -2.401
   54       -0.024  -0.018  -2.406  -2.448
--------------------------------------------------
tot         -0.016  -0.064  11.972  11.893
 
    FORLOC:  cpu time    0.0586: real time    0.0586
    FORNL :  cpu time   23.7684: real time   23.8489
    STRESS:  cpu time   34.0426: real time   34.3919
    FORCOR:  cpu time    0.4329: real time    1.1174
    OFIELD:  cpu time    0.0020: real time    0.0020

  FORCE on cell =-STRESS in cart. coord.  units (eV):
  Direction    XX          YY          ZZ          XY          YZ          ZX
  --------------------------------------------------------------------------------------
  Alpha Z   798.38614   798.38614   798.38614
  Ewald   -4053.61603 -4053.61603 -4794.40593    -0.00000    -0.00000    -0.00000
  Hartree  1084.01688  1085.33249   332.00903    -0.00000    -0.00000    -0.00000
  E(xc)   -1141.61714 -1141.86460 -1139.72317    -0.00000     0.00000    -0.00000
  Local     369.49223   366.34226  1906.89016    -0.00000    -0.00000    -0.00000
  n-local  -170.17648  -170.64124  -175.50301     0.38547    -0.26364    -0.27531
  augment   784.47317   785.48476   767.04333     0.00000     0.00001     0.00001
  Kinetic  2334.89112  2337.30286  2307.52770    -2.53611    -1.53436    -1.36536
  Fock        0.00000     0.00000     0.00000     0.00000     0.00000     0.00000
  -------------------------------------------------------------------------------------
  Total       5.84989     6.72663     2.22425     0.00000     0.00000     0.00000
  in kB      13.20244    15.18113     5.01984     0.00000     0.00000     0.00000
  external pressure =       11.13 kB  Pullay stress =        0.00 kB


 VOLUME and BASIS-vectors are now :
 -----------------------------------------------------------------------------
  energy-cutoff  :      404.80
  volume of cell :      709.91
      direct lattice vectors                 reciprocal lattice vectors
     8.250148166  0.000000000  0.000000000     0.121209944  0.000000000  0.000000000
     0.000000000  8.250148166  0.000000000     0.000000000  0.121209944  0.000000000
     0.000000000  0.000000000 10.429911392     0.000000000  0.000000000  0.095878092

  length of vectors
     8.250148166  8.250148166 10.429911392     0.121209944  0.121209944  0.095878092


 FORCES acting on ions:
    Electron-Ion                     Ewald-Force                    Non-Local-Force
 -----------------------------------------------------------------------------------------------
   0.226E-01 0.594E-01 0.299E-01   -.239E-08 -.239E-08 -.210E-08   0.166E-01 0.234E-01 0.155E-02
   0.640E-04 0.109E-01 0.576E-01   -.239E-08 -.239E-08 0.171E-08   -.973E-02 -.921E-02 -.198E-01
   0.101E+00 0.134E+00 -.125E+00   -.239E-08 -.239E-08 0.861E-08   -.817E-01 -.643E-01 0.415E-01
   0.226E-01 -.594E-01 0.299E-01   -.239E-08 -.802E-09 -.210E-08   0.166E-01 -.234E-01 0.155E-02
   0.640E-04 -.109E-01 0.576E-01   -.239E-08 -.802E-09 0.171E-08   -.973E-02 0.921E-02 -.198E-01
   0.101E+00 -.134E+00 -.125E+00   -.239E-08 -.802E-09 0.861E-08   -.817E-01 0.643E-01 0.415E-01
   -.826E-01 -.328E-08 0.147E-01   -.239E-08 0.631E-08 -.210E-08   0.556E-01 -.867E-18 0.522E-01
   0.901E-02 -.329E-08 -.393E-01   -.239E-08 0.631E-08 0.171E-08   -.998E-02 0.000E+00 0.213E-01
   0.721E-01 -.328E-08 -.508E-01   -.239E-08 0.631E-08 0.861E-08   -.166E+00 0.867E-18 -.995E-02
   0.373E-09 -.197E-01 0.168E-01   -.802E-09 -.239E-08 -.210E-08   0.000E+00 -.805E-02 -.634E-01
   0.373E-09 0.543E-02 0.114E+00   -.802E-09 -.239E-08 0.171E-08   0.678E-19 -.594E-02 -.647E-01
   0.373E-09 -.264E-01 -.618E-01   -.803E-09 -.239E-08 0.861E-08   0.000E+00 0.149E-01 0.658E-01
   0.373E-09 0.197E-01 0.168E-01   -.802E-09 -.802E-09 -.210E-08   0.000E+00 0.805E-02 -.634E-01
   0.373E-09 -.543E-02 0.114E+00   -.802E-09 -.802E-09 0.171E-08   0.000E+00 0.594E-02 -.647E-01
   0.373E-09 0.264E-01 -.618E-01   -.803E-09 -.802E-09 0.861E-08   0.000E+00 -.149E-01 0.658E-01
   0.372E-09 -.329E-08 0.635E-02   -.802E-09 0.631E-08 -.210E-08   0.000E+00 0.000E+00 -.404E-01
   0.373E-09 -.330E-08 0.182E+00   -.802E-09 0.631E-08 0.171E-08   0.000E+00 0.000E+00 -.753E-01
   0.372E-09 -.330E-08 -.415E-01   -.803E-09 0.631E-08 0.861E-08   0.000E+00 0.000E+00 0.178E-01
   -.226E-01 0.594E-01 0.299E-01   0.631E-08 -.239E-08 -.210E-08   -.166E-01 0.234E-01 0.155E-02
   -.640E-04 0.109E-01 0.576E-01   0.631E-08 -.239E-08 0.171E-08   0.973E-02 -.921E-02 -.198E-01
   -.101E+00 0.134E+00 -.125E+00   0.631E-08 -.239E-08 0.861E-08   0.817E-01 -.643E-01 0.415E-01
   -.226E-01 -.594E-01 0.299E-01   0.631E-08 -.802E-09 -.210E-08   -.166E-01 -.234E-01 0.155E-02
   -.640E-04 -.109E-01 0.576E-01   0.631E-08 -.802E-09 0.171E-08   0.973E-02 0.921E-02 -.198E-01
   -.101E+00 -.134E+00 -.125E+00   0.631E-08 -.802E-09 0.861E-08   0.817E-01 0.643E-01 0.415E-01
   0.826E-01 -.328E-08 0.147E-01   0.631E-08 0.631E-08 -.210E-08   -.556E-01 0.434E-18 0.522E-01
   -.901E-02 -.329E-08 -.393E-01   0.631E-08 0.631E-08 0.171E-08   0.998E-02 0.000E+00 0.213E-01
   -.721E-01 -.328E-08 -.508E-01   0.631E-08 0.631E-08 0.861E-08   0.166E+00 -.434E-18 -.995E-02
   -.745E-01 0.483E-08 0.453E-01   -.169E-07 -.169E-07 -.180E-07   0.126E+00 0.434E-18 0.272E-01
   -.603E-01 0.484E-08 0.331E-01   -.169E-07 -.169E-07 -.170E-08   0.212E-01 0.867E-18 -.319E-01
   -.214E+00 0.486E-08 -.176E-01   -.169E-07 -.169E-07 0.115E-07   0.218E+00 -.867E-18 -.601E-01
   -.426E-01 0.137E-01 -.347E-01   -.169E-07 0.802E-09 -.180E-07   0.261E-01 -.351E-01 0.100E+00
   0.497E-01 0.304E-01 -.119E+00   -.169E-07 0.802E-09 -.170E-08   -.104E-01 0.515E-03 0.122E+00
   0.272E+00 -.272E-01 0.623E-01   -.169E-07 0.802E-09 0.115E-07   -.970E-01 0.605E-02 -.968E-01
   -.426E-01 -.137E-01 -.347E-01   -.169E-07 0.130E-07 -.180E-07   0.261E-01 0.351E-01 0.100E+00
   0.497E-01 -.304E-01 -.119E+00   -.169E-07 0.130E-07 -.170E-08   -.104E-01 -.515E-03 0.122E+00
   0.272E+00 0.272E-01 0.623E-01   -.169E-07 0.130E-07 0.115E-07   -.970E-01 -.605E-02 -.968E-01
   0.745E-01 0.483E-08 0.453E-01   0.802E-09 -.169E-07 -.180E-07   -.126E+00 -.434E-18 0.272E-01
   0.603E-01 0.484E-08 0.331E-01   0.802E-09 -.169E-07 -.170E-08   -.212E-01 -.434E-18 -.319E-01
   0.214E+00 0.486E-08 -.176E-01   0.802E-09 -.169E-07 0.115E-07   -.218E+00 0.867E-18 -.601E-01
   0.426E-01 0.137E-01 -.347E-01   0.802E-09 0.802E-09 -.180E-07   -.261E-01 -.351E-01 0.100E+00
   -.497E-01 0.304E-01 -.119E+00   0.802E-09 0.802E-09 -.170E-08   0.104E-01 0.515E-03 0.122E+00
   -.272E+00 -.272E-01 0.623E-01   0.802E-09 0.802E-09 0.115E-07   0.970E-01 0.605E-02 -.968E-01
   0.426E-01 -.137E-01 -.347E-01   0.802E-09 0.130E-07 -.180E-07   -.261E-01 0.351E-01 0.100E+00
   -.497E-01 -.304E-01 -.119E+00   0.802E-09 0.130E-07 -.170E-08   0.104E-01 -.515E-03 0.122E+00
   -.272E+00 0.272E-01 0.623E-01   0.802E-09 0.130E-07 0.115E-07   0.970E-01 -.605E-02 -.968E-01
   -.605E-08 0.484E-08 -.806E-01   0.130E-07 -.169E-07 -.180E-07   0.000E+00 0.000E+00 0.114E+00
   -.605E-08 0.483E-08 -.294E+00   0.130E-07 -.169E-07 -.170E-08   0.000E+00 0.000E+00 0.356E+00
   -.605E-08 0.474E-08 0.157E+00   0.130E-07 -.169E-07 0.115E-07   0.000E+00 0.000E+00 -.110E+00
   -.605E-08 0.100E+00 0.167E+00   0.130E-07 0.802E-09 -.180E-07   0.000E+00 -.225E-01 -.127E+00
   -.605E-08 -.976E-02 0.209E+00   0.130E-07 0.802E-09 -.170E-08   0.000E+00 -.356E-01 -.345E+00
   -.605E-08 0.553E+00 -.239E+00   0.130E-07 0.802E-09 0.115E-07   0.000E+00 -.237E+00 0.214E+00
   -.605E-08 -.100E+00 0.167E+00   0.130E-07 0.130E-07 -.180E-07   0.000E+00 0.225E-01 -.127E+00
   -.605E-08 0.976E-02 0.209E+00   0.130E-07 0.130E-07 -.170E-08   0.217E-18 0.356E-01 -.345E+00
   -.605E-08 -.553E+00 -.239E+00   0.130E-07 0.130E-07 0.115E-07   -.434E-18 0.237E+00 0.214E+00
 -----------------------------------------------------------------------------------------------
   -.361E-07 -.406E-07 -.212E+00   -.614E-13 -.142E-13 0.128E-13   0.553E-16 -.278E-16 0.212E+00
 
 
 POSITION                                       TOTAL-FORCE (eV/Angst)
 -----------------------------------------------------------------------------------
      0.00000      0.00000      0.00000         0.037338      0.080449      0.030094
      0.00000      0.00000      3.47664        -0.008941      0.002574      0.039825
      0.00000      0.00000      6.95327         0.026312      0.075122     -0.086015
      0.00000      2.75005      0.00000         0.037338     -0.080449      0.030094
      0.00000      2.75005      3.47664        -0.008941     -0.002574      0.039825
      0.00000      2.75005      6.95327         0.026312     -0.075122     -0.086015
      0.00000      5.50010      0.00000        -0.032421     -0.000000      0.060893
      0.00000      5.50010      3.47664        -0.000169     -0.000000     -0.020592
      0.00000      5.50010      6.95327        -0.079659     -0.000000     -0.058641
      2.75005      0.00000      0.00000         0.000000     -0.027461     -0.041548
      2.75005      0.00000      3.47664         0.000000     -0.000102      0.055251
      2.75005      0.00000      6.95327         0.000000     -0.013208     -0.001408
      2.75005      2.75005      0.00000         0.000000      0.027461     -0.041548
      2.75005      2.75005      3.47664         0.000000      0.000102      0.055251
      2.75005      2.75005      6.95327         0.000000      0.013208     -0.001408
      2.75005      5.50010      0.00000         0.000000     -0.000000     -0.031208
      2.75005      5.50010      3.47664         0.000000     -0.000000      0.114954
      2.75005      5.50010      6.95327         0.000000     -0.000000     -0.024568
      5.50010      0.00000      0.00000        -0.037338      0.080449      0.030094
      5.50010      0.00000      3.47664         0.008941      0.002574      0.039825
      5.50010      0.00000      6.95327        -0.026312      0.075122     -0.086015
      5.50010      2.75005      0.00000        -0.037338     -0.080449      0.030094
      5.50010      2.75005      3.47664         0.008941     -0.002574      0.039825
      5.50010      2.75005      6.95327        -0.026312     -0.075122     -0.086015
      5.50010      5.50010      0.00000         0.032421     -0.000000      0.060893
      5.50010      5.50010      3.47664         0.000169     -0.000000     -0.020592
      5.50010      5.50010      6.95327         0.079659     -0.000000     -0.058641
      1.37502      1.37502      1.73832         0.050262     -0.000000      0.064760
      1.37502      1.37502      5.21496        -0.039570     -0.000000      0.004485
      1.37502      1.37502      8.69159         0.001081     -0.000000     -0.070116
      1.37502      4.12507      1.73832        -0.014264     -0.021151      0.056933
      1.37502      4.12507      5.21496         0.038901      0.031110      0.001308
      1.37502      4.12507      8.69159         0.178089     -0.021747     -0.028628
      1.37502      6.87512      1.73832        -0.014264      0.021151      0.056933
      1.37502      6.87512      5.21496         0.038901     -0.031110      0.001308
      1.37502      6.87512      8.69159         0.178089      0.021747     -0.028628
      4.12507      1.37502      1.73832        -0.050262     -0.000000      0.064760
      4.12507      1.37502      5.21496         0.039570     -0.000000      0.004485
      4.12507      1.37502      8.69159        -0.001081     -0.000000     -0.070116
      4.12507      4.12507      1.73832         0.014264     -0.021151      0.056933
      4.12507      4.12507      5.21496        -0.038901      0.031110      0.001308
      4.12507      4.12507      8.69159        -0.178089     -0.021747     -0.028628
      4.12507      6.87512      1.73832         0.014264      0.021151      0.056933
      4.12507      6.87512      5.21496        -0.038901     -0.031110      0.001308
      4.12507      6.87512      8.69159        -0.178089      0.021747     -0.028628
      6.87512      1.37502      1.73832         0.000000     -0.000000      0.026369
      6.87512      1.37502      5.21496         0.000000     -0.000000      0.055268
      6.87512      1.37502      8.69159         0.000000     -0.000000      0.050374
      6.87512      4.12507      1.73832         0.000000      0.077192      0.041586
      6.87512      4.12507      5.21496         0.000000     -0.043385     -0.127449
      6.87512      4.12507      8.69159         0.000000      0.324254     -0.029851
      6.87512      6.87512      1.73832         0.000000     -0.077192      0.041586
      6.87512      6.87512      5.21496         0.000000      0.043385     -0.127449
      6.87512      6.87512      8.69159         0.000000     -0.324254     -0.029851
 -----------------------------------------------------------------------------------
    total drift:                               -0.000000     -0.000000      0.000017


--------------------------------------------------------------------------------------------------------



  FREE ENERGIE OF THE ION-ELECTRON SYSTEM (eV)
  ---------------------------------------------------
  free  energy   TOTEN  =      -356.58703838 eV

  energy  without entropy=     -356.57139649  energy(sigma->0) =     -356.58182442
 


--------------------------------------------------------------------------------------------------------


    POTLOK:  cpu time    0.8595: real time    0.8594


--------------------------------------------------------------------------------------------------------


     LOOP+:  cpu time 1681.2658: real time 1716.3528
    4ORBIT:  cpu time    0.0000: real time    0.0000
 


 total charge     
 
# of ion       s       p       d       tot
------------------------------------------
    1        0.405   0.430   0.000   0.834
    2        0.405   0.427   0.000   0.832
    3        0.405   0.428   0.000   0.834
    4        0.404   0.430   0.000   0.834
    5        0.405   0.427   0.000   0.832
    6        0.405   0.428   0.000   0.833
    7        0.405   0.429   0.000   0.834
    8        0.405   0.427   0.000   0.832
    9        0.405   0.429   0.000   0.834
   10        0.404   0.428   0.000   0.832
   11        0.405   0.428   0.000   0.833
   12        0.405   0.426   0.000   0.831
   13        0.404   0.428   0.000   0.832
   14        0.405   0.428   0.000   0.833
   15        0.405   0.426   0.000   0.831
   16        0.404   0.427   0.000   0.832
   17        0.405   0.427   0.000   0.832
   18        0.405   0.426   0.000   0.831
   19        0.404   0.429   0.000   0.834
   20        0.405   0.427   0.000   0.832
   21        0.405   0.428   0.000   0.834
   22        0.404   0.430   0.000   0.834
   23        0.405   0.427   0.000   0.832
   24        0.405   0.428   0.000   0.833
   25        0.405   0.429   0.000   0.834
   26        0.405   0.427   0.000   0.833
   27        0.405   0.428   0.000   0.834
   28        0.334   0.352   5.131   5.818
   29        0.335   0.350   5.132   5.817
   30        0.331   0.353   5.139   5.823
   31        0.333   0.351   5.130   5.815
   32        0.334   0.352   5.128   5.813
   33        0.333   0.355   5.127   5.815
   34        0.333   0.351   5.130   5.815
   35        0.333   0.352   5.127   5.813
   36        0.333   0.355   5.133   5.822
   37        0.334   0.352   5.137   5.823
   38        0.335   0.350   5.141   5.826
   39        0.331   0.353   5.137   5.821
   40        0.333   0.350   5.145   5.828
   41        0.334   0.352   5.142   5.827
   42        0.334   0.355   5.133   5.822
   43        0.333   0.350   5.141   5.825
   44        0.334   0.352   5.141   5.826
   45        0.333   0.354   5.126   5.814
   46        0.334   0.349   5.138   5.821
   47        0.334   0.353   5.131   5.819
   48        0.331   0.358   5.131   5.821
   49        0.331   0.352   5.143   5.826
   50        0.335   0.349   5.139   5.823
   51        0.334   0.355   5.128   5.817
   52        0.331   0.353   5.129   5.813
   53        0.335   0.350   5.136   5.820
   54        0.334   0.355   5.128   5.817
--------------------------------------------------
tot         19.936  21.064 138.625 179.625
 


 magnetization (x)
 
# of ion       s       p       d       tot
------------------------------------------
    1       -0.017  -0.029   0.000  -0.045
    2        0.000   0.000   0.000   0.000
    3        0.005   0.009   0.000   0.014
    4       -0.017  -0.029   0.000  -0.046
    5        0.000   0.000   0.000   0.000
    6        0.005   0.010   0.000   0.015
    7       -0.012  -0.020   0.000  -0.032
    8       -0.000   0.002   0.000   0.002
    9        0.010   0.019   0.000   0.028
   10       -0.022  -0.037   0.000  -0.059
   11       -0.000   0.001   0.000   0.000
   12        0.000   0.002   0.000   0.002
   13       -0.022  -0.037   0.000  -0.059
   14       -0.000   0.001   0.000   0.001
   15        0.000   0.002   0.000   0.002
   16       -0.021  -0.035   0.000  -0.056
   17        0.000  -0.002   0.000  -0.002
   18        0.002   0.005   0.000   0.006
   19       -0.017  -0.029   0.000  -0.046
   20       -0.000   0.000   0.000   0.000
   21        0.005   0.010   0.000   0.015
   22       -0.016  -0.030   0.000  -0.046
   23       -0.000   0.000   0.000   0.000
   24        0.005   0.011   0.000   0.016
   25       -0.012  -0.021   0.000  -0.033
   26       -0.000   0.002   0.000   0.002
   27        0.009   0.020   0.000   0.029
   28        0.016   0.023   2.370   2.409
   29       -0.016  -0.015  -2.306  -2.337
   30        0.010   0.009   2.327   2.346
   31        0.018   0.018   2.380   2.417
   32       -0.014  -0.019  -2.288  -2.321
   33        0.021   0.021   2.379   2.420
   34        0.018   0.019   2.383   2.420
   35       -0.015  -0.019  -2.295  -2.329
   36        0.021   0.021   2.384   2.426
   37        0.016   0.023   2.362   2.401
   38       -0.016  -0.015  -2.296  -2.327
   39        0.010   0.009   2.328   2.347
   40        0.018   0.019   2.363   2.400
   41       -0.014  -0.019  -2.271  -2.304
   42        0.021   0.021   2.384   2.426
   43        0.018   0.019   2.365   2.402
   44       -0.014  -0.019  -2.274  -2.307
   45        0.021   0.020   2.383   2.424
   46        0.020   0.015   2.401   2.437
   47       -0.013  -0.023  -2.266  -2.301
   48        0.030   0.032   2.236   2.297
   49        0.013   0.020   2.222   2.255
   50       -0.019  -0.017  -2.357  -2.392
   51       -0.024  -0.018  -2.406  -2.448
   52        0.013   0.020   2.239   2.272
   53       -0.019  -0.017  -2.366  -2.401
   54       -0.024  -0.018  -2.406  -2.448
--------------------------------------------------
tot         -0.016  -0.064  11.972  11.893
 

 total amount of memory used by VASP MPI-rank0   887625. kBytes
=======================================================================

   base      :      30000. kBytes
   nonl-proj :      28494. kBytes
   fftplans  :      31580. kBytes
   grid      :      21385. kBytes
   one-center:        435. kBytes
   wavefun   :     775731. kBytes
 
  
  
 General timing and accounting informations for this job:
 ========================================================
  
                  Total CPU time used (sec):     1713.307
                            User time (sec):     1688.470
                          System time (sec):       24.837
                         Elapsed time (sec):     1750.110
  
                   Maximum memory used (kb):     1056476.
                   Average memory used (kb):           0.
  
                          Minor page faults:       590490
                          Major page faults:           20
                 Voluntary context switches:         2939
