   36   36    1    2
  0.1314651E+02  0.8250148E-09  0.8250148E-09  0.6953274E-09  0.2000000E-15
  1.000000000000000E-004
  CAR 
 AlMn_pv                                 
    180     52    122
 
  0.0000000E+00  0.0000000E+00  0.0000000E+00  0.6666667E-02
    1       -2.543776     -2.497946   1.000000   1.000000
    2       -0.382420     -0.348001   1.000000   1.000000
    3       -0.380811     -0.325572   1.000000   1.000000
    4       -0.350248     -0.292383   1.000000   1.000000
    5       -0.335100     -0.282634   1.000000   1.000000
    6       -0.114345     -0.129316   1.000000   1.000000
    7        1.312550      1.386513   1.000000   1.000000
    8        1.313905      1.402747   1.000000   1.000000
    9        1.330467      1.461908   1.000000   1.000000
   10        1.382961      1.463346   1.000000   1.000000
   11        1.402228      1.480412   1.000000   1.000000
   12        1.513754      1.596224   1.000000   1.000000
   13        1.534143      1.620795   1.000000   1.000000
   14        1.560324      1.648495   1.000000   1.000000
   15        1.581804      1.677180   1.000000   1.000000
   16        2.648662      2.815326   1.000000   1.000000
   17        2.681993      2.859364   1.000000   1.000000
   18        2.725522      2.908056   1.000000   1.000000
   19        2.750359      2.950165   1.000000   1.000000
   20        3.407045      3.542572   1.000000   1.000000
   21        3.421673      3.584633   1.000000   1.000000
   22        3.504661      3.692718   1.000000   1.000000
   23        3.542474      3.718575   1.000000   1.000000
   24        3.981724      4.122366   1.000000   1.000000
   25        4.057159      4.514060   1.000000   1.000000
   26        4.119357      4.561797   1.000000   1.000000
   27        4.430666      4.639481   1.000000   1.000000
   28        4.444506      4.655805   1.000000   1.000000
   29        4.462058      4.755266   1.000000   1.000000
   30        4.491028      4.835527   1.000000   1.000000
   31        4.507263      4.875703   1.000000   1.000000
   32        4.551475      4.900094   1.000000   1.000000
   33        4.565912      4.992935   1.000000   1.000000
   34        4.618897      5.065134   1.000000   1.000000
   35        4.639177      5.146326   1.000000   1.000000
   36        4.755734      5.158126   1.000000   1.000000
   37        4.757677      5.162424   1.000000   1.000000
   38        4.766700      5.234563   1.000000   1.000000
   39        4.819347      5.299412   1.000000   1.000000
   40        4.918143      5.408235   1.000000   1.000000
   41        5.131829      5.497298   1.000000   1.000000
   42        5.186994      5.556928   1.000000   1.000000
   43        5.233016      5.585412   1.000000   1.000000
   44        5.246151      5.633576   1.000000   1.000000
   45        5.263836      5.666745   1.000000   1.000000
   46        5.273094      5.759021   1.000000   1.000000
   47        5.348376      5.762915   1.000000   1.000000
   48        5.349940      5.860856   1.000000   1.000000
   49        5.390395      5.880648   1.000000   1.000000
   50        5.400101      5.965573   1.000000   1.000000
   51        5.463008      5.970087   1.000000   1.000000
   52        5.503673      5.989243   1.000000   1.000000
   53        5.568183      6.113360   1.000000   1.000000
   54        5.584792      6.222757   1.000000   1.000000
   55        5.619246      6.435102   1.000000   1.000000
   56        5.687759      6.443152   1.000000   1.000000
   57        5.718869      6.504572   1.000000   1.000000
   58        5.724252      6.517091   1.000000   1.000000
   59        5.753894      6.519885   1.000000   1.000000
   60        5.790095      6.544203   1.000000   1.000000
   61        5.902725      6.575691   1.000000   1.000000
   62        5.921570      6.669485   1.000000   1.000000
   63        5.965227      6.698757   1.000000   1.000000
   64        6.105096      6.772939   1.000000   1.000000
   65        6.143424      6.819300   1.000000   1.000000
   66        6.231028      6.847679   1.000000   1.000000
   67        6.233974      6.881056   1.000000   1.000000
   68        6.343849      6.928602   1.000000   1.000000
   69        6.370637      6.944029   1.000000   1.000000
   70        6.399935      6.986769   1.000000   1.000001
   71        6.416509      7.089863   1.000000   1.000037
   72        6.444394      7.111990   1.000000   1.000070
   73        6.465633      7.269005   1.000000   1.003080
   74        6.497999      7.288210   1.000000   1.004437
   75        6.549159      7.353814   1.000000   1.012852
   76        6.572790      7.370461   1.000000   1.016045
   77        6.599442      7.493876   1.000000   1.034282
   78        6.655394      7.507669   1.000000   1.031160
   79        6.692858      7.559660   1.000000   0.993361
   80        6.748432      7.626614   1.000000   0.857914
   81        6.755628      7.677363   1.000000   0.685041
   82        6.778250      7.801926   1.000000   0.191077
   83        6.790065      7.976497   1.000000  -0.035147
   84        6.851456      8.033000   1.000000  -0.025210
   85        6.860726      8.139796   1.000000  -0.005966
   86        6.871235      8.141222   1.000000  -0.005817
   87        6.896608      8.233982   1.000000  -0.000889
   88        6.916574      8.240695   1.000000  -0.000760
   89        6.936881      8.298369   1.000000  -0.000179
   90        7.022220      8.339581   1.000004  -0.000057
   91        7.069732      8.469694   1.000020  -0.000001
   92        7.185089      8.576472   1.000485  -0.000000
   93        7.246687      8.656957   1.001961  -0.000000
   94        7.256791      8.657972   1.002415  -0.000000
   95        7.368906      8.675511   1.015725  -0.000000
   96        7.395054      8.708304   1.021407  -0.000000
   97        7.404202      8.721994   1.023499  -0.000000
   98        7.462997      8.752475   1.034734  -0.000000
   99        7.484865      8.797487   1.035229  -0.000000
  100        7.489673      8.808088   1.034827  -0.000000
  101        7.662550      8.874548   0.740664  -0.000000
  102        7.856916      8.933710   0.049982  -0.000000
  103        7.988982      8.939847  -0.033900  -0.000000
  104        8.073574      8.958246  -0.016185  -0.000000
  105        8.134983      8.970550  -0.006477  -0.000000
  106        8.218903      9.017232  -0.001247  -0.000000
  107        8.264254      9.020539  -0.000431  -0.000000
  108        8.430533      9.022261  -0.000003  -0.000000
  109        8.544473      9.060987  -0.000000  -0.000000
  110        8.601213      9.079762  -0.000000  -0.000000
  111        8.652855      9.116145  -0.000000  -0.000000
  112        8.673695      9.127286  -0.000000  -0.000000
  113        8.726942      9.139711  -0.000000  -0.000000
  114        8.807352      9.157989  -0.000000  -0.000000
  115        8.990454      9.183099  -0.000000  -0.000000
  116        9.061284      9.202291  -0.000000  -0.000000
  117        9.181208      9.287007  -0.000000  -0.000000
  118        9.232455      9.647768  -0.000000  -0.000000
  119        9.261200      9.668608  -0.000000  -0.000000
  120        9.271677      9.806744  -0.000000  -0.000000
  121        9.306368     10.033957  -0.000000  -0.000000
  122        9.422763     10.348737  -0.000000  -0.000000
 
  0.2000000E+00  0.0000000E+00  0.0000000E+00  0.1333333E-01
    1       -2.453270     -2.407471   1.000000   1.000000
    2       -1.127085     -1.080170   1.000000   1.000000
    3       -0.292695     -0.251170   1.000000   1.000000
    4       -0.267240     -0.207336   1.000000   1.000000
    5       -0.049766     -0.062375   1.000000   1.000000
    6        0.538615      0.595491   1.000000   1.000000
    7        0.866336      0.901206   1.000000   1.000000
    8        0.894888      0.956189   1.000000   1.000000
    9        0.906331      0.979794   1.000000   1.000000
   10        1.392997      1.469415   1.000000   1.000000
   11        1.407637      1.526636   1.000000   1.000000
   12        1.443272      1.558180   1.000000   1.000000
   13        1.861035      1.996771   1.000000   1.000000
   14        2.237301      2.365581   1.000000   1.000000
   15        2.249417      2.393617   1.000000   1.000000
   16        2.271518      2.400174   1.000000   1.000000
   17        2.287034      2.415231   1.000000   1.000000
   18        2.752757      2.909138   1.000000   1.000000
   19        3.121523      3.347234   1.000000   1.000000
   20        3.158036      3.426072   1.000000   1.000000
   21        3.500513      3.638458   1.000000   1.000000
   22        3.562900      3.752714   1.000000   1.000000
   23        3.679724      3.805780   1.000000   1.000000
   24        3.960444      4.112227   1.000000   1.000000
   25        4.028749      4.396479   1.000000   1.000000
   26        4.092399      4.433718   1.000000   1.000000
   27        4.229313      4.580105   1.000000   1.000000
   28        4.357039      4.656734   1.000000   1.000000
   29        4.376144      4.718607   1.000000   1.000000
   30        4.423350      4.817486   1.000000   1.000000
   31        4.457625      4.819895   1.000000   1.000000
   32        4.473021      4.881993   1.000000   1.000000
   33        4.495670      4.902710   1.000000   1.000000
   34        4.569015      4.910215   1.000000   1.000000
   35        4.674321      5.018516   1.000000   1.000000
   36        4.809476      5.080322   1.000000   1.000000
   37        4.840965      5.236044   1.000000   1.000000
   38        4.862409      5.316981   1.000000   1.000000
   39        4.919211      5.362539   1.000000   1.000000
   40        4.932112      5.374267   1.000000   1.000000
   41        4.991513      5.446946   1.000000   1.000000
   42        5.128832      5.496365   1.000000   1.000000
   43        5.132290      5.500165   1.000000   1.000000
   44        5.242936      5.576274   1.000000   1.000000
   45        5.249319      5.660774   1.000000   1.000000
   46        5.266277      5.758234   1.000000   1.000000
   47        5.366061      5.778033   1.000000   1.000000
   48        5.374707      5.781860   1.000000   1.000000
   49        5.428326      5.880588   1.000000   1.000000
   50        5.440304      5.953678   1.000000   1.000000
   51        5.513849      5.984263   1.000000   1.000000
   52        5.528822      6.080595   1.000000   1.000000
   53        5.555758      6.250433   1.000000   1.000000
   54        5.621471      6.275576   1.000000   1.000000
   55        5.674115      6.385164   1.000000   1.000000
   56        5.708438      6.431719   1.000000   1.000000
   57        5.741162      6.491387   1.000000   1.000000
   58        5.757070      6.496714   1.000000   1.000000
   59        5.759269      6.504050   1.000000   1.000000
   60        5.851837      6.603796   1.000000   1.000000
   61        5.885359      6.628589   1.000000   1.000000
   62        5.926636      6.686321   1.000000   1.000000
   63        5.937473      6.719964   1.000000   1.000000
   64        6.080794      6.763146   1.000000   1.000000
   65        6.165107      6.821268   1.000000   1.000000
   66        6.179649      6.831278   1.000000   1.000000
   67        6.228867      6.858696   1.000000   1.000000
   68        6.286718      6.923441   1.000000   1.000000
   69        6.350110      6.970733   1.000000   1.000001
   70        6.369931      7.025844   1.000000   1.000005
   71        6.387123      7.041002   1.000000   1.000008
   72        6.429595      7.193353   1.000000   1.000592
   73        6.469846      7.276700   1.000000   1.003575
   74        6.529970      7.308501   1.000000   1.006354
   75        6.531767      7.325466   1.000000   1.008412
   76        6.552171      7.365443   1.000000   1.015044
   77        6.599758      7.434640   1.000000   1.030287
   78        6.608157      7.484749   1.000000   1.035238
   79        6.650790      7.630504   1.000000   0.846713
   80        6.690531      7.663433   1.000000   0.737613
   81        6.728182      7.740968   1.000000   0.421373
   82        6.737068      7.781731   1.000000   0.260654
   83        6.769854      7.796743   1.000000   0.207879
   84        6.781588      7.967270   1.000000  -0.035458
   85        6.836117      8.083936   1.000000  -0.014116
   86        6.869922      8.088522   1.000000  -0.013265
   87        6.876615      8.168122   1.000000  -0.003562
   88        6.906490      8.180470   1.000000  -0.002801
   89        6.924605      8.302046   1.000000  -0.000163
   90        6.946758      8.303390   1.000000  -0.000157
   91        6.993467      8.446590   1.000002  -0.000002
   92        7.049056      8.482969   1.000010  -0.000001
   93        7.124078      8.646789   1.000098  -0.000000
   94        7.256775      8.652711   1.002414  -0.000000
   95        7.324188      8.675052   1.008240  -0.000000
   96        7.378023      8.714613   1.017631  -0.000000
   97        7.474871      8.721926   1.035434  -0.000000
   98        7.504311      8.800908   1.032119  -0.000000
   99        7.622486      8.801627   0.869691  -0.000000
  100        7.684624      8.860838   0.656322  -0.000000
  101        7.842311      8.871452   0.080078  -0.000000
  102        7.877196      8.939904   0.016814  -0.000000
  103        7.905268      8.958261  -0.013848  -0.000000
  104        8.004974      8.979906  -0.031281  -0.000000
  105        8.193635      9.017783  -0.002142  -0.000000
  106        8.224254      9.056267  -0.001108  -0.000000
  107        8.251286      9.085888  -0.000592  -0.000000
  108        8.444623      9.103011  -0.000002  -0.000000
  109        8.609372      9.129177  -0.000000  -0.000000
  110        8.674149      9.143681  -0.000000  -0.000000
  111        8.697294      9.153670  -0.000000  -0.000000
  112        8.727047      9.185413  -0.000000  -0.000000
  113        8.895204      9.203959  -0.000000  -0.000000
  114        8.915437      9.219898  -0.000000  -0.000000
  115        8.991310      9.259967  -0.000000  -0.000000
  116        9.065202      9.336175  -0.000000  -0.000000
  117        9.134437      9.431635  -0.000000  -0.000000
  118        9.154819      9.606240  -0.000000  -0.000000
  119        9.200205      9.703288  -0.000000  -0.000000
  120        9.295668      9.768529  -0.000000  -0.000000
  121        9.415917     10.040160  -0.000000  -0.000000
  122        9.490799     10.348043  -0.000000  -0.000000
 
  0.4000000E+00  0.0000000E+00  0.0000000E+00  0.1333333E-01
    1       -2.183791     -2.137973   1.000000   1.000000
    2       -1.737176     -1.691275   1.000000   1.000000
    3       -0.047248     -0.004713   1.000000   1.000000
    4       -0.024936      0.037804   1.000000   1.000000
    5        0.141275      0.135791   1.000000   1.000000
    6        0.354005      0.406894   1.000000   1.000000
    7        0.375702      0.438688   1.000000   1.000000
    8        0.453064      0.464213   1.000000   1.000000
    9        1.544710      1.618828   1.000000   1.000000
   10        1.573519      1.656818   1.000000   1.000000
   11        1.616056      1.713973   1.000000   1.000000
   12        1.684744      1.830075   1.000000   1.000000
   13        1.867458      1.980340   1.000000   1.000000
   14        1.920182      2.017516   1.000000   1.000000
   15        2.153425      2.312164   1.000000   1.000000
   16        2.235144      2.450342   1.000000   1.000000
   17        2.642751      2.718334   1.000000   1.000000
   18        2.827274      3.016321   1.000000   1.000000
   19        2.937117      3.159638   1.000000   1.000000
   20        3.425398      3.700232   1.000000   1.000000
   21        3.544480      3.829994   1.000000   1.000000
   22        3.677723      3.880881   1.000000   1.000000
   23        3.710484      3.935621   1.000000   1.000000
   24        3.880018      4.072959   1.000000   1.000000
   25        3.927816      4.159601   1.000000   1.000000
   26        4.007758      4.256233   1.000000   1.000000
   27        4.059959      4.338161   1.000000   1.000000
   28        4.077778      4.517918   1.000000   1.000000
   29        4.184824      4.551111   1.000000   1.000000
   30        4.311685      4.593720   1.000000   1.000000
   31        4.351083      4.727182   1.000000   1.000000
   32        4.527169      4.779200   1.000000   1.000000
   33        4.559965      4.856580   1.000000   1.000000
   34        4.599453      4.902604   1.000000   1.000000
   35        4.716058      5.044442   1.000000   1.000000
   36        4.732001      5.110766   1.000000   1.000000
   37        4.837225      5.175131   1.000000   1.000000
   38        4.886939      5.223731   1.000000   1.000000
   39        5.009644      5.380887   1.000000   1.000000
   40        5.035320      5.397610   1.000000   1.000000
   41        5.057861      5.456605   1.000000   1.000000
   42        5.070232      5.533823   1.000000   1.000000
   43        5.138651      5.584369   1.000000   1.000000
   44        5.215026      5.610815   1.000000   1.000000
   45        5.294240      5.637134   1.000000   1.000000
   46        5.295170      5.731156   1.000000   1.000000
   47        5.380076      5.789671   1.000000   1.000000
   48        5.407463      5.812706   1.000000   1.000000
   49        5.429011      5.837341   1.000000   1.000000
   50        5.459017      5.889697   1.000000   1.000000
   51        5.461554      5.989283   1.000000   1.000000
   52        5.485610      6.085766   1.000000   1.000000
   53        5.528655      6.204666   1.000000   1.000000
   54        5.626197      6.226373   1.000000   1.000000
   55        5.658631      6.281895   1.000000   1.000000
   56        5.689198      6.416714   1.000000   1.000000
   57        5.703367      6.423991   1.000000   1.000000
   58        5.772206      6.499845   1.000000   1.000000
   59        5.841577      6.510066   1.000000   1.000000
   60        5.908402      6.579226   1.000000   1.000000
   61        5.935219      6.702888   1.000000   1.000000
   62        5.969544      6.736454   1.000000   1.000000
   63        6.026105      6.791294   1.000000   1.000000
   64        6.088973      6.823296   1.000000   1.000000
   65        6.099268      6.829254   1.000000   1.000000
   66        6.182414      6.844228   1.000000   1.000000
   67        6.190528      6.914940   1.000000   1.000000
   68        6.215872      6.925566   1.000000   1.000000
   69        6.262399      7.013703   1.000000   1.000003
   70        6.271571      7.068203   1.000000   1.000019
   71        6.322144      7.117624   1.000000   1.000082
   72        6.362190      7.242909   1.000000   1.001812
   73        6.404612      7.246138   1.000000   1.001939
   74        6.458932      7.262932   1.000000   1.002733
   75        6.501063      7.296983   1.000000   1.005200
   76        6.540308      7.373148   1.000000   1.016592
   77        6.558865      7.452828   1.000000   1.033503
   78        6.626570      7.469525   1.000000   1.035232
   79        6.636452      7.604729   1.000000   0.914507
   80        6.665859      7.683715   1.000000   0.660095
   81        6.693926      7.693104   1.000000   0.622145
   82        6.713868      7.720675   1.000000   0.506950
   83        6.735772      7.760347   1.000000   0.342169
   84        6.788186      7.943485   1.000000  -0.032917
   85        6.836639      8.061470   1.000000  -0.018729
   86        6.845493      8.073534   1.000000  -0.016175
   87        6.865879      8.078009   1.000000  -0.015263
   88        6.870277      8.163093   1.000000  -0.003917
   89        6.887212      8.274322   1.000000  -0.000335
   90        6.929426      8.286820   1.000000  -0.000243
   91        6.970372      8.362666   1.000001  -0.000029
   92        7.023153      8.487169   1.000004  -0.000000
   93        7.060451      8.577105   1.000015  -0.000000
   94        7.258013      8.611142   1.002477  -0.000000
   95        7.273045      8.618529   1.003331  -0.000000
   96        7.325363      8.665558   1.008400  -0.000000
   97        7.515230      8.704293   1.028420  -0.000000
   98        7.522206      8.728720   1.025162  -0.000000
   99        7.651583      8.733890   0.779545  -0.000000
  100        7.747929      8.789590   0.392743  -0.000000
  101        7.751905      8.811216   0.376408  -0.000000
  102        7.916626      8.893342  -0.021912  -0.000000
  103        7.924737      8.938867  -0.026335  -0.000000
  104        7.957246      8.944364  -0.035043  -0.000000
  105        8.058734      9.020844  -0.019329  -0.000000
  106        8.187433      9.098064  -0.002432  -0.000000
  107        8.364737      9.117277  -0.000027  -0.000000
  108        8.529491      9.119380  -0.000000  -0.000000
  109        8.662375      9.178658  -0.000000  -0.000000
  110        8.690196      9.183318  -0.000000  -0.000000
  111        8.784934      9.250205  -0.000000  -0.000000
  112        8.895549      9.265462  -0.000000  -0.000000
  113        8.897484      9.362309  -0.000000  -0.000000
  114        8.989378      9.389457  -0.000000  -0.000000
  115        9.064481      9.498254  -0.000000  -0.000000
  116        9.153446      9.684988  -0.000000  -0.000000
  117        9.212948      9.733986  -0.000000  -0.000000
  118        9.473003      9.928651  -0.000000  -0.000000
  119        9.525303      9.936112  -0.000000  -0.000000
  120        9.582061     10.050739  -0.000000  -0.000000
  121        9.626523     10.060831  -0.000000  -0.000000
  122        9.733031     10.777972  -0.000000  -0.000000
 
  0.0000000E+00  0.2000000E+00  0.0000000E+00  0.1333333E-01
    1       -2.453198     -2.407461   1.000000   1.000000
    2       -1.127572     -1.080339   1.000000   1.000000
    3       -0.298887     -0.250843   1.000000   1.000000
    4       -0.259976     -0.207245   1.000000   1.000000
    5       -0.049756     -0.062143   1.000000   1.000000
    6        0.538495      0.594817   1.000000   1.000000
    7        0.867378      0.902998   1.000000   1.000000
    8        0.890958      0.959475   1.000000   1.000000
    9        0.909710      0.976915   1.000000   1.000000
   10        1.377487      1.451045   1.000000   1.000000
   11        1.407977      1.540743   1.000000   1.000000
   12        1.460007      1.558658   1.000000   1.000000
   13        1.858302      1.999497   1.000000   1.000000
   14        2.228430      2.350767   1.000000   1.000000
   15        2.242849      2.378324   1.000000   1.000000
   16        2.279966      2.415273   1.000000   1.000000
   17        2.291971      2.428033   1.000000   1.000000
   18        2.750446      2.903078   1.000000   1.000000
   19        3.106945      3.351395   1.000000   1.000000
   20        3.176507      3.427858   1.000000   1.000000
   21        3.486327      3.644349   1.000000   1.000000
   22        3.584530      3.762314   1.000000   1.000000
   23        3.679484      3.813310   1.000000   1.000000
   24        3.963240      4.108405   1.000000   1.000000
   25        4.032868      4.396689   1.000000   1.000000
   26        4.079559      4.458184   1.000000   1.000000
   27        4.223796      4.539917   1.000000   1.000000
   28        4.363931      4.595068   1.000000   1.000000
   29        4.398435      4.698401   1.000000   1.000000
   30        4.416168      4.835449   1.000000   1.000000
   31        4.451729      4.839791   1.000000   1.000000
   32        4.492530      4.896616   1.000000   1.000000
   33        4.502394      4.906841   1.000000   1.000000
   34        4.541369      4.999018   1.000000   1.000000
   35        4.696836      5.017551   1.000000   1.000000
   36        4.782558      5.122521   1.000000   1.000000
   37        4.820926      5.208268   1.000000   1.000000
   38        4.845942      5.302272   1.000000   1.000000
   39        4.917439      5.305464   1.000000   1.000000
   40        4.993243      5.366420   1.000000   1.000000
   41        5.020483      5.404740   1.000000   1.000000
   42        5.121384      5.453072   1.000000   1.000000
   43        5.134123      5.509837   1.000000   1.000000
   44        5.194765      5.581731   1.000000   1.000000
   45        5.260347      5.686253   1.000000   1.000000
   46        5.290638      5.758770   1.000000   1.000000
   47        5.358917      5.777480   1.000000   1.000000
   48        5.377578      5.819400   1.000000   1.000000
   49        5.413961      5.898711   1.000000   1.000000
   50        5.419854      5.930273   1.000000   1.000000
   51        5.455001      6.039564   1.000000   1.000000
   52        5.533655      6.049893   1.000000   1.000000
   53        5.542663      6.249233   1.000000   1.000000
   54        5.599516      6.324437   1.000000   1.000000
   55        5.667181      6.379985   1.000000   1.000000
   56        5.697253      6.416781   1.000000   1.000000
   57        5.745941      6.442830   1.000000   1.000000
   58        5.754824      6.495647   1.000000   1.000000
   59        5.811230      6.540345   1.000000   1.000000
   60        5.849326      6.607095   1.000000   1.000000
   61        5.920819      6.611238   1.000000   1.000000
   62        5.946597      6.638697   1.000000   1.000000
   63        5.978720      6.658895   1.000000   1.000000
   64        6.088029      6.712019   1.000000   1.000000
   65        6.135959      6.795144   1.000000   1.000000
   66        6.187597      6.833931   1.000000   1.000000
   67        6.232990      6.905185   1.000000   1.000000
   68        6.295052      6.930330   1.000000   1.000000
   69        6.318531      6.979803   1.000000   1.000001
   70        6.356751      7.039530   1.000000   1.000008
   71        6.393912      7.087326   1.000000   1.000034
   72        6.432576      7.212233   1.000000   1.000922
   73        6.470788      7.265396   1.000000   1.002870
   74        6.500888      7.318825   1.000000   1.007553
   75        6.518415      7.329479   1.000000   1.008962
   76        6.535230      7.402434   1.000000   1.023097
   77        6.571003      7.429248   1.000000   1.029164
   78        6.598319      7.482985   1.000000   1.035331
   79        6.662838      7.651463   1.000000   0.779823
   80        6.685600      7.657727   1.000000   0.758188
   81        6.727317      7.712191   1.000000   0.542813
   82        6.753502      7.813501   1.000000   0.155014
   83        6.776813      7.827503   1.000000   0.116121
   84        6.781993      7.972903   1.000000  -0.035339
   85        6.844061      8.021427   1.000000  -0.027849
   86        6.863731      8.071276   1.000000  -0.016631
   87        6.875512      8.218831   1.000000  -0.001252
   88        6.907083      8.247350   1.000000  -0.000650
   89        6.932778      8.325798   1.000000  -0.000085
   90        6.958535      8.347852   1.000000  -0.000045
   91        6.979364      8.396163   1.000001  -0.000010
   92        7.048644      8.539176   1.000010  -0.000000
   93        7.269696      8.581629   1.003123  -0.000000
   94        7.298656      8.608650   1.005353  -0.000000
   95        7.330855      8.667711   1.009154  -0.000000
   96        7.340443      8.692518   1.010599  -0.000000
   97        7.402150      8.716881   1.023020  -0.000000
   98        7.512977      8.757282   1.029313  -0.000000
   99        7.574648      8.799941   0.972605  -0.000000
  100        7.605091      8.848327   0.913596  -0.000000
  101        7.837343      8.871379   0.091509  -0.000000
  102        7.919164      8.959870  -0.023402  -0.000000
  103        7.963291      8.974368  -0.035396  -0.000000
  104        8.090716      8.999336  -0.012881  -0.000000
  105        8.157816      9.019088  -0.004318  -0.000000
  106        8.293057      9.057335  -0.000207  -0.000000
  107        8.312236      9.107843  -0.000123  -0.000000
  108        8.392808      9.115612  -0.000011  -0.000000
  109        8.476192      9.120051  -0.000001  -0.000000
  110        8.662763      9.136833  -0.000000  -0.000000
  111        8.702219      9.144183  -0.000000  -0.000000
  112        8.746234      9.190624  -0.000000  -0.000000
  113        8.886445      9.191116  -0.000000  -0.000000
  114        8.902454      9.216388  -0.000000  -0.000000
  115        8.986138      9.259395  -0.000000  -0.000000
  116        9.055978      9.277085  -0.000000  -0.000000
  117        9.141217      9.446716  -0.000000  -0.000000
  118        9.161212      9.604737  -0.000000  -0.000000
  119        9.169299      9.718552  -0.000000  -0.000000
  120        9.265090      9.751175  -0.000000  -0.000000
  121        9.420747     10.036243  -0.000000  -0.000000
  122        9.479611     10.367502  -0.000000  -0.000000
 
  0.2000000E+00  0.2000000E+00  0.0000000E+00  0.1333333E-01
    1       -2.362968     -2.317252   1.000000   1.000000
    2       -1.050276     -0.997652   1.000000   1.000000
    3       -1.032939     -0.990868   1.000000   1.000000
    4        0.014677      0.004704   1.000000   1.000000
    5        0.198497      0.255640   1.000000   1.000000
    6        0.609768      0.671631   1.000000   1.000000
    7        0.625821      0.678716   1.000000   1.000000
    8        0.927901      0.955911   1.000000   1.000000
    9        0.931013      0.979322   1.000000   1.000000
   10        1.501635      1.651118   1.000000   1.000000
   11        1.691185      1.777706   1.000000   1.000000
   12        1.716446      1.806377   1.000000   1.000000
   13        1.803501      1.895525   1.000000   1.000000
   14        1.917842      2.062846   1.000000   1.000000
   15        1.926216      2.064528   1.000000   1.000000
   16        2.721141      2.921422   1.000000   1.000000
   17        2.761496      2.967055   1.000000   1.000000
   18        2.777319      2.974514   1.000000   1.000000
   19        2.812742      2.985195   1.000000   1.000000
   20        2.851260      2.999363   1.000000   1.000000