       N       E                     dE             d eps       ncg     rms          ort
DAV:   1     0.133052059685E+04    0.13305E+04   -0.60084E+04  6344   0.134E+03
DAV:   2    -0.846823766010E+02   -0.14152E+04   -0.13660E+04  6344   0.402E+02
DAV:   3    -0.243978430591E+03   -0.15930E+03   -0.13838E+03  6344   0.149E+02
DAV:   4    -0.266705720428E+03   -0.22727E+02   -0.19683E+02  6344   0.628E+01
DAV:   5    -0.268610638239E+03   -0.19049E+01   -0.18200E+01  6344   0.178E+01
DAV:   6    -0.268744309673E+03   -0.13367E+00   -0.13171E+00  6344   0.436E+00
DAV:   7    -0.268757553356E+03   -0.13244E-01   -0.13154E-01  6344   0.119E+00
DAV:   8    -0.268758646738E+03   -0.10934E-02   -0.10892E-02  6344   0.323E-01
SDA:   9    -0.695247212960E+02    0.19923E+03   -0.10892E-02  6344   0.218E+04 0.000E+00
CGA:  10    -0.211324627081E+03   -0.14180E+03   -0.14306E+03  6344   0.104E+03 0.274E+03
CGA:  11    -0.219736548843E+03   -0.84119E+01   -0.85287E+01  6344   0.666E+02 0.150E+00
CGA:  12    -0.228373860636E+03   -0.86373E+01   -0.86263E+01  6344   0.753E+02 0.556E-01
CGA:  13    -0.234276018957E+03   -0.59022E+01   -0.59625E+01  6344   0.959E+01 0.180E+00
CGA:  14    -0.234978561597E+03   -0.70254E+00   -0.71414E+00  6344   0.571E+01-0.909E-01
CGA:  15    -0.235659730705E+03   -0.68117E+00   -0.68281E+00  6344   0.522E+01 0.623E-02
CGA:  16    -0.236206704421E+03   -0.54697E+00   -0.54724E+00  6344   0.125E+01 0.414E-02
CGA:  17    -0.236339792929E+03   -0.13309E+00   -0.13311E+00  6344   0.115E+01 0.536E-03
CGA:  18    -0.236481350211E+03   -0.14156E+00   -0.14163E+00  6344   0.854E+00-0.265E-03
CGA:  19    -0.236554403386E+03   -0.73053E-01   -0.73399E-01  6344   0.295E+00-0.230E-02
CGA:  20    -0.236584039158E+03   -0.29636E-01   -0.29673E-01  6344   0.233E+00-0.117E-03
CGA:  21    -0.236625515622E+03   -0.41476E-01   -0.41453E-01  6344   0.195E+00 0.589E-03
CGA:  22    -0.236642074466E+03   -0.16559E-01   -0.16548E-01  6344   0.731E-01-0.814E-04
CGA:  23    -0.236649440003E+03   -0.73655E-02   -0.73656E-02  6344   0.466E-01-0.112E-03
CGA:  24    -0.236655780380E+03   -0.63404E-02   -0.63386E-02  6344   0.479E-01-0.145E-03
CGA:  25    -0.236661457760E+03   -0.56774E-02   -0.56739E-02  6344   0.313E-01-0.163E-03
CGA:  26    -0.236666185577E+03   -0.47278E-02   -0.47282E-02  6344   0.229E-01-0.118E-03
CGA:  27    -0.236668172757E+03   -0.19872E-02   -0.19839E-02  6344   0.117E-01-0.361E-04
CGA:  28    -0.236669668389E+03   -0.14956E-02   -0.14950E-02  6344   0.803E-02-0.209E-04
CGA:  29    -0.236670754976E+03   -0.10866E-02   -0.10863E-02  6344   0.667E-02-0.227E-04
CGA:  30    -0.236671379057E+03   -0.62408E-03   -0.62323E-03  6344   0.353E-02-0.146E-04
CGA:  31    -0.236672011084E+03   -0.63203E-03   -0.63276E-03  6344   0.441E-02-0.161E-04
CGA:  32    -0.236672544417E+03   -0.53333E-03   -0.53325E-03  6344   0.250E-02 0.438E-05
CGA:  33    -0.236672786395E+03   -0.24198E-03   -0.24238E-03  6344   0.138E-02 0.144E-04
CGA:  34    -0.236672954409E+03   -0.16801E-03   -0.16824E-03  6344   0.112E-02 0.140E-04
CGA:  35    -0.236673124552E+03   -0.17014E-03   -0.17004E-03  6344   0.686E-03 0.108E-04
CGA:  36    -0.236673207032E+03   -0.82480E-04   -0.82586E-04  6344   0.706E-03 0.495E-05
CGA:  37    -0.236673309204E+03   -0.10217E-03   -0.10213E-03  6344   0.622E-03 0.811E-05
CGA:  38    -0.236673381921E+03   -0.72716E-04   -0.72965E-04  6344   0.270E-03 0.111E-04
CGA:  39    -0.236673408459E+03   -0.26538E-04   -0.26724E-04  6344   0.154E-03 0.482E-05
SDA:  40    -0.236673435429E+03   -0.26970E-04   -0.26897E-04  6344   0.225E-03 0.198E-05
CGA:  41    -0.236673449834E+03   -0.14405E-04   -0.14239E-04  6344   0.107E-03-0.224E-05
CGA:  42    -0.236673464222E+03   -0.14388E-04   -0.14395E-04  6344   0.801E-04-0.472E-05
CGA:  43    -0.236673478312E+03   -0.14090E-04   -0.14273E-04  6344   0.121E-03-0.350E-05
CGA:  44    -0.236673492213E+03   -0.13901E-04   -0.13869E-04  6344   0.387E-04-0.193E-05
CGA:  45    -0.236673496606E+03   -0.43936E-05   -0.43830E-05  6344   0.428E-04-0.486E-06
CGA:  46    -0.236673505774E+03   -0.91677E-05   -0.92858E-05  6344   0.281E-04-0.140E-05
CGA:  47    -0.236673509063E+03   -0.32886E-05   -0.32875E-05  6344   0.281E-04-0.951E-07
CGA:  48    -0.236673515114E+03   -0.60517E-05   -0.59744E-05  6344   0.261E-04 0.103E-05
CGA:  49    -0.236673516884E+03   -0.17694E-05   -0.18014E-05  6344   0.108E-04 0.430E-06
CGA:  50    -0.236673519654E+03   -0.27697E-05   -0.26522E-05  6344   0.118E-04 0.112E-05
CGA:  51    -0.236673520912E+03   -0.12583E-05   -0.12780E-05  6344   0.701E-05 0.421E-06
CGA:  52    -0.236673522309E+03   -0.13967E-05   -0.13720E-05  6344   0.914E-05 0.523E-06
CGA:  53    -0.236673523215E+03   -0.90628E-06   -0.92459E-06  6344   0.431E-05 0.373E-06
CGA:  54    -0.236673523984E+03   -0.76863E-06   -0.75379E-06  6344   0.502E-05 0.559E-06
CGA:  55    -0.236673524545E+03   -0.56121E-06   -0.57140E-06  6344   0.220E-05 0.248E-06
CGA:  56    -0.236673524841E+03   -0.29650E-06   -0.29501E-06  6344   0.224E-05-0.124E-06
CGA:  57    -0.236673525134E+03   -0.29252E-06   -0.29217E-06  6344   0.224E-05-0.278E-06
CGA:  58    -0.236673525453E+03   -0.31918E-06   -0.32257E-06  6344   0.262E-05-0.136E-06
CGA:  59    -0.236673525686E+03   -0.23265E-06   -0.23103E-06  6344   0.842E-06-0.193E-07
CGA:  60    -0.236673525794E+03   -0.10808E-06   -0.10872E-06  6344   0.725E-06 0.409E-07
CGA:  61    -0.236673525912E+03   -0.11880E-06   -0.11830E-06  6344   0.546E-06 0.900E-08
CGA:  62    -0.236673525960E+03   -0.47832E-07   -0.49376E-07  6344   0.317E-06 0.316E-07
   1 F= -.23667353E+03 E0= -.23667493E+03  d E =0.422109E-02  mag=    18.3469
