 vasp.5.4.4.18Apr17-6-g9f103f2a35 (build Dec 20 2018 12:05:58) complex          
  
 executed on             LinuxIFC date 2019.06.20  15:37:48
 running on   32 total cores
 distrk:  each k-point on    8 cores,    4 groups
 distr:  one band on NCORES_PER_BAND=   4 cores,    2 groups


--------------------------------------------------------------------------------------------------------


 INCAR:
 POTCAR:    PAW_PBE Al 04Jan2001                  
 POTCAR:    PAW_PBE Mn 06Sep2000                  

 ----------------------------------------------------------------------------- 
|                                                                             |
|           W    W    AA    RRRRR   N    N  II  N    N   GGGG   !!!           |
|           W    W   A  A   R    R  NN   N  II  NN   N  G    G  !!!           |
|           W    W  A    A  R    R  N N  N  II  N N  N  G       !!!           |
|           W WW W  AAAAAA  RRRRR   N  N N  II  N  N N  G  GGG   !            |
|           WW  WW  A    A  R   R   N   NN  II  N   NN  G    G                |
|           W    W  A    A  R    R  N    N  II  N    N   GGGG   !!!           |
|                                                                             |
|      You have enabled k-point parallelism (KPAR>1).                         |
|      This developmental code was originally  written by Paul Kent at ORNL,  |
|      and carefully double checked in Vienna.                                |
|      GW as well as linear response parallelism added by Martijn Marsman     |
|      and Georg Kresse.                                                      |
|      Carefully verify results versus KPAR=1.                                |
|      Report problems to Paul Kent and Vienna.                               |
|                                                                             |
 ----------------------------------------------------------------------------- 

 POTCAR:    PAW_PBE Al 04Jan2001                  
   VRHFIN =Al: s2p1                                                             
   LEXCH  = PE                                                                  
   EATOM  =    53.5387 eV,    3.9350 Ry                                         
                                                                                
   TITEL  = PAW_PBE Al 04Jan2001                                                
   LULTRA =        F    use ultrasoft PP ?                                      
   IUNSCR =        1    unscreen: 0-lin 1-nonlin 2-no                           
   RPACOR =    1.500    partial core radius                                     
   POMASS =   26.981; ZVAL   =    3.000    mass and valenz                      
   RCORE  =    1.900    outmost cutoff radius                                   
   RWIGS  =    2.650; RWIGS  =    1.402    wigner-seitz radius (au A)           
   ENMAX  =  240.300; ENMIN  =  180.225 eV                                      
   ICORE  =        2    local potential                                         
   LCOR   =        T    correct aug charges                                     
   LPAW   =        T    paw PP                                                  
   EAUG   =  291.052                                                            
   DEXC   =    0.000                                                            
   RMAX   =    1.939    core radius for proj-oper                               
   RAUG   =    1.300    factor for augmentation sphere                          
   RDEP   =    1.966    radius for radial grids                                 
   RDEPT  =    1.856    core radius for aug-charge                              
                                                                                
   Atomic configuration                                                         
    6 entries                                                                   
     n  l   j            E        occ.                                          
     1  0  0.50     -1511.1048   2.0000                                         
     2  0  0.50      -108.1629   2.0000                                         
     2  1  1.50       -69.6402   6.0000                                         
     3  0  0.50        -7.7528   2.0000                                         
     3  1  1.50        -2.7121   1.0000                                         
     3  2  2.50        -2.7212   0.0000                                         
   Description                                                                  
     l       E           TYP  RCUT    TYP  RCUT                                 
     0     -7.7528455     23  1.900                                             
     0     -3.3096929     23  1.900                                             
     1     -2.7120682     23  1.900                                             
     1     13.6058260     23  1.900                                             
     2     -2.7211652      7  1.900                                             
  local pseudopotential read in
  partial core-charges read in
  partial kinetic energy density read in
  atomic valenz-charges read in
  non local Contribution for L=           0  read in
    real space projection operators read in
  non local Contribution for L=           0  read in
    real space projection operators read in
  non local Contribution for L=           1  read in
    real space projection operators read in
  non local Contribution for L=           1  read in
    real space projection operators read in
    PAW grid and wavefunctions read in
 
   number of l-projection  operators is LMAX  =           4
   number of lm-projection operators is LMMAX =           8
 
 POTCAR:    PAW_PBE Mn 06Sep2000                  
   VRHFIN =Mn: d6 s1                                                            
   LEXCH  = PE                                                                  
   EATOM  =   416.7541 eV,   30.6306 Ry                                         
                                                                                
   TITEL  = PAW_PBE Mn 06Sep2000                                                
   LULTRA =        F    use ultrasoft PP ?                                      
   IUNSCR =        1    unscreen: 0-lin 1-nonlin 2-no                           
   RPACOR =    2.000    partial core radius                                     
   POMASS =   54.938; ZVAL   =    7.000    mass and valenz                      
   RCORE  =    2.300    outmost cutoff radius                                   
   RWIGS  =    2.500; RWIGS  =    1.323    wigner-seitz radius (au A)           
   ENMAX  =  269.864; ENMIN  =  202.398 eV                                      
   RCLOC  =    1.725    cutoff for local pot                                    
   LCOR   =        T    correct aug charges                                     
   LPAW   =        T    paw PP                                                  
   EAUG   =  500.711                                                            
   DEXC   =    0.000                                                            
   RMAX   =    2.343    core radius for proj-oper                               
   RAUG   =    1.300    factor for augmentation sphere                          
   RDEP   =    2.338    radius for radial grids                                 
   RDEPT  =    1.911    core radius for aug-charge                              
                                                                                
   Atomic configuration                                                         
    9 entries                                                                   
     n  l   j            E        occ.                                          
     1  0  0.50     -6424.8288   2.0000                                         
     2  0  0.50      -739.1154   2.0000                                         
     2  1  1.50      -625.3949   6.0000                                         
     3  0  0.50       -81.6100   2.0000                                         
     3  1  1.50       -50.4667   6.0000                                         
     3  2  2.50        -3.3745   6.0000                                         
     4  0  0.50        -4.1331   1.0000                                         
     4  1  0.50        -4.0817   0.0000                                         
     4  3  2.50        -1.3606   0.0000                                         
   Description                                                                  
     l       E           TYP  RCUT    TYP  RCUT                                 
     2     -3.3744664     23  2.300                                             
     2     -4.7350490     23  2.300                                             
     0     -4.1331408     23  2.300                                             
     0      7.6656614     23  2.300                                             
     1     -2.7211652     23  2.300                                             
     1     20.4087390     23  2.300                                             
  local pseudopotential read in
  partial core-charges read in
  partial kinetic energy density read in
  atomic valenz-charges read in
  non local Contribution for L=           2  read in
    real space projection operators read in
  non local Contribution for L=           2  read in
    real space projection operators read in
  non local Contribution for L=           0  read in
    real space projection operators read in
  non local Contribution for L=           0  read in
    real space projection operators read in
  non local Contribution for L=           1  read in
    real space projection operators read in
  non local Contribution for L=           1  read in
    real space projection operators read in
    PAW grid and wavefunctions read in
 
   number of l-projection  operators is LMAX  =           6
   number of lm-projection operators is LMMAX =          18
 

 ----------------------------------------------------------------------------- 
|                                                                             |
|  ADVICE TO THIS USER RUNNING 'VASP/VAMP'   (HEAR YOUR MASTER'S VOICE ...):  |
|                                                                             |
|      You have a (more or less) 'large supercell' and for larger cells       |
|      it might be more efficient to use real space projection opertators     |
|      So try LREAL= Auto  in the INCAR   file.                               |
|      Mind:          For very  accurate calculation you might also keep the  |
|      reciprocal projection scheme          (i.e. LREAL=.FALSE.)             |
|                                                                             |
 ----------------------------------------------------------------------------- 

  PAW_PBE Al 04Jan2001                  :
 energy of atom  1       EATOM=  -53.5387
 kinetic energy error for atom=    0.0005 (will be added to EATOM!!)
  PAW_PBE Mn 06Sep2000                  :
 energy of atom  2       EATOM= -416.7541
 kinetic energy error for atom=    0.0080 (will be added to EATOM!!)
 
 
 POSCAR: NewRef: 18, @ ['Mn', array([1.37502469, 
  positions in cartesian coordinates
  velocities in cartesian coordinates
  No initial velocities read in
 exchange correlation table for  LEXCH =        8
   RHO(1)=    0.500       N(1)  =     2000
   RHO(2)=  100.500       N(2)  =     4000
 


--------------------------------------------------------------------------------------------------------


 ion  position               nearest neighbor table
   1  0.000  0.000  0.000-  20 2.61  24 2.61  32 2.61  36 2.61  31 2.61  23 2.61  35 2.61  19 2.61
                             3 2.75   7 2.75   5 2.75  13 2.75
   2  0.000  0.000  0.500-  19 2.61  23 2.61  31 2.61  35 2.61  20 2.61  32 2.61  24 2.61  36 2.61
                             4 2.75   8 2.75   6 2.75  14 2.75
   3  0.000  0.333  0.000-  20 2.61  32 2.61  22 2.61  34 2.61  19 2.61  31 2.61  33 2.61  21 2.61
                             9 2.75   1 2.75   5 2.75  15 2.75
   4  0.000  0.333  0.500-  19 2.61  31 2.61  21 2.61  33 2.61  32 2.61  20 2.61  22 2.61  34 2.61
                            10 2.75   2 2.75   6 2.75  16 2.75
   5  0.000  0.667  0.000-  22 2.61  34 2.61  24 2.61  36 2.61  21 2.61  33 2.61  35 2.61  23 2.61
                             3 2.75  11 2.75   1 2.75  17 2.75
   6  0.000  0.667  0.500-  21 2.61  33 2.61  23 2.61  35 2.61  34 2.61  22 2.61  24 2.61  36 2.61
                             4 2.75  12 2.75   2 2.75  18 2.75
   7  0.333  0.000  0.000-  20 2.61  24 2.61  26 2.61  30 2.61  23 2.61  19 2.61  29 2.61  25 2.61
                            13 2.75   1 2.75   9 2.75  11 2.75
   8  0.333  0.000  0.500-  19 2.61  23 2.61  25 2.61  29 2.61  20 2.61  24 2.61  26 2.61  30 2.61
                            14 2.75   2 2.75  10 2.75  12 2.75
   9  0.333  0.333  0.000-  20 2.61  22 2.61  26 2.61  19 2.61  28 2.61  21 2.61  25 2.61  27 2.61
                             3 2.75   7 2.75  11 2.75  15 2.75
  10  0.333  0.333  0.500-  19 2.61  21 2.61  25 2.61  20 2.61  27 2.61  26 2.61  22 2.61  28 2.61
                             4 2.75   8 2.75  12 2.75  16 2.75
  11  0.333  0.667  0.000-  22 2.61  24 2.61  28 2.61  21 2.61  30 2.61  23 2.61  27 2.61  29 2.61
                            17 2.75   5 2.75   9 2.75   7 2.75
  12  0.333  0.667  0.500-  21 2.61  23 2.61  27 2.61  22 2.61  29 2.61  28 2.61  24 2.61  30 2.61
                            18 2.75   6 2.75  10 2.75   8 2.75
  13  0.667  0.000  0.000-  26 2.61  30 2.61  32 2.61  36 2.61  29 2.61  25 2.61  35 2.61  31 2.61
                             7 2.75  15 2.75   1 2.75  17 2.75
  14  0.667  0.000  0.500-  25 2.61  29 2.61  31 2.61  35 2.61  26 2.61  30 2.61  32 2.61  36 2.61
                             8 2.75  16 2.75   2 2.75  18 2.75
  15  0.667  0.333  0.000-  26 2.61  28 2.61  32 2.61  25 2.61  34 2.61  27 2.61  31 2.61  33 2.61
                            17 2.75   9 2.75  13 2.75   3 2.75
  16  0.667  0.333  0.500-  25 2.61  27 2.61  31 2.61  26 2.61  33 2.61  32 2.61  28 2.61  34 2.61
                            18 2.75  10 2.75  14 2.75   4 2.75
  17  0.667  0.667  0.000-  28 2.61  30 2.61  34 2.61  27 2.61  36 2.61  29 2.61  33 2.61  35 2.61
                            11 2.75  15 2.75  13 2.75   5 2.75
  18  0.667  0.667  0.500-  27 2.61  29 2.61  33 2.61  28 2.61  35 2.61  34 2.61  30 2.61  36 2.61
                            12 2.75  16 2.75  14 2.75   6 2.75
  19  0.167  0.167  0.250-  10 2.61   8 2.61   4 2.61   9 2.61   2 2.61   7 2.61   3 2.61   1 2.61
                            21 2.75  25 2.75  23 2.75  31 2.75
  20  0.167  0.167  0.750-   9 2.61   7 2.61   3 2.61  10 2.61   1 2.61   4 2.61   8 2.61   2 2.61
                            22 2.75  26 2.75  24 2.75  32 2.75
  21  0.167  0.500  0.250-  12 2.61  10 2.61   6 2.61  11 2.61   4 2.61   9 2.61   5 2.61   3 2.61
                            19 2.75  23 2.75  27 2.75  33 2.75
  22  0.167  0.500  0.750-  11 2.61   9 2.61   5 2.61  12 2.61   3 2.61   6 2.61  10 2.61   4 2.61
                            20 2.75  24 2.75  28 2.75  34 2.75
  23  0.167  0.833  0.250-   8 2.61  12 2.61   2 2.61   6 2.61  11 2.61   7 2.61   5 2.61   1 2.61
                            21 2.75  29 2.75  19 2.75  35 2.75
  24  0.167  0.833  0.750-   7 2.61  11 2.61   1 2.61   5 2.61   8 2.61  12 2.61   2 2.61   6 2.61
                            22 2.75  30 2.75  20 2.75  36 2.75
  25  0.500  0.167  0.250-  16 2.61  14 2.61  10 2.61  15 2.61   8 2.61  13 2.61   9 2.61   7 2.61
                            19 2.75  27 2.75  31 2.75  29 2.75
  26  0.500  0.167  0.750-  15 2.61  13 2.61   9 2.61  16 2.61   7 2.61  10 2.61  14 2.61   8 2.61
                            20 2.75  28 2.75  32 2.75  30 2.75
  27  0.500  0.500  0.250-  18 2.61  16 2.61  12 2.61  17 2.61  10 2.61  15 2.61  11 2.61   9 2.61
                            21 2.75  25 2.75  29 2.75  33 2.75
  28  0.500  0.500  0.750-  17 2.61  15 2.61  11 2.61  18 2.61   9 2.61  12 2.61  16 2.61  10 2.61
                            22 2.75  26 2.75  30 2.75  34 2.75
  29  0.500  0.833  0.250-  14 2.61  18 2.61   8 2.61  12 2.61  17 2.61  13 2.61  11 2.61   7 2.61
                            23 2.75  27 2.75  35 2.75  25 2.75
  30  0.500  0.833  0.750-  13 2.61  17 2.61   7 2.61  11 2.61  14 2.61  18 2.61   8 2.61  12 2.61
                            24 2.75  28 2.75  36 2.75  26 2.75
  31  0.833  0.167  0.250-   4 2.61  16 2.61  14 2.61   2 2.61  15 2.61   3 2.61  13 2.61   1 2.61
                            25 2.75  33 2.75  19 2.75  35 2.75
  32  0.833  0.167  0.750-   3 2.61  15 2.61  13 2.61   1 2.61   4 2.61  16 2.61   2 2.61  14 2.61
                            26 2.75  34 2.75  20 2.75  36 2.75
  33  0.833  0.500  0.250-   6 2.61  18 2.61  16 2.61   4 2.61  17 2.61   5 2.61  15 2.61   3 2.61
                            27 2.75  31 2.75  35 2.75  21 2.75
  34  0.833  0.500  0.750-   5 2.61  17 2.61  15 2.61   3 2.61   6 2.61  18 2.61   4 2.61  16 2.61
                            28 2.75  32 2.75  36 2.75  22 2.75
  35  0.833  0.833  0.250-   2 2.61   6 2.61  14 2.61  18 2.61  13 2.61   5 2.61  17 2.61   1 2.61
                            29 2.75  33 2.75  31 2.75  23 2.75
  36  0.833  0.833  0.750-   1 2.61   5 2.61  13 2.61  17 2.61   2 2.61  14 2.61   6 2.61  18 2.61
                            30 2.75  34 2.75  32 2.75  24 2.75
 
  LATTYP: Found a simple tetragonal cell.
 ALAT       =     8.2501481662
 C/A-ratio  =     0.8428059861
  
  Lattice vectors:
  
 A1 = (   8.2501481662,   0.0000000000,   0.0000000000)
 A2 = (   0.0000000000,   8.2501481662,   0.0000000000)
 A3 = (   0.0000000000,   0.0000000000,   6.9532742610)


Analysis of symmetry for initial positions (statically):
=====================================================================
 Subroutine PRICEL returns following result:
 
  LATTYP: Found a simple tetragonal cell.
 ALAT       =     2.7500493888
 C/A-ratio  =     1.2642089792
  
  Lattice vectors:
  
 A1 = (   2.7500493888,   0.0000000000,   0.0000000000)
 A2 = (   0.0000000000,   2.7500493888,   0.0000000000)
 A3 = (   0.0000000000,   0.0000000000,   3.4766371305)
 
  18 primitive cells build up your supercell.
 

 Routine SETGRP: Setting up the symmetry group for a 
 simple tetragonal supercell.


 Subroutine GETGRP returns: Found 16 space group operations
 (whereof 16 operations were pure point group operations)
 out of a pool of 16 trial point group operations.


The static configuration has the point symmetry D_4h.


Analysis of symmetry for dynamics (positions and initial velocities):
=====================================================================
 Subroutine PRICEL returns following result:
 
  LATTYP: Found a simple tetragonal cell.
 ALAT       =     2.7500493888
 C/A-ratio  =     1.2642089792
  
  Lattice vectors:
  
 A1 = (   2.7500493888,   0.0000000000,   0.0000000000)
 A2 = (   0.0000000000,   2.7500493888,   0.0000000000)
 A3 = (   0.0000000000,   0.0000000000,   3.4766371305)
 
  18 primitive cells build up your supercell.
 

 Routine SETGRP: Setting up the symmetry group for a 
 simple tetragonal supercell.


 Subroutine GETGRP returns: Found 16 space group operations
 (whereof 16 operations were pure point group operations)
 out of a pool of 16 trial point group operations.


The dynamic configuration has the point symmetry D_4h.


Analysis of structural, dynamic, and magnetic symmetry:
=====================================================================
 Subroutine PRICEL returns:
 Original cell was already a primitive cell.
 

 Routine SETGRP: Setting up the symmetry group for a 
 simple tetragonal supercell.


 Subroutine GETGRP returns: Found  2 space group operations
 (whereof  1 operations were pure point group operations)
 out of a pool of 16 trial point group operations.


The magnetic configuration has the point symmetry C_1 .
 The point group associated with its full space group is C_1h.


 Subroutine INISYM returns: Found  2 space group operations
 (whereof  1 operations are pure point group operations),
 and found     1 'primitive' translations

 
 
 KPOINTS: automatic KPOINTS                       

Automatic generation of k-mesh.
 generate k-points for:    5    5    6
Space group operators:
 irot       det(A)        alpha          n_x          n_y          n_z        tau_x        tau_y        tau_z
    1     1.000000     0.000001     1.000000     0.000000     0.000000     0.000000     0.000000     0.000000
    2    -1.000000   179.999999     0.000000     0.000000     1.000000     0.000000     0.000000     0.500000
 
 Subroutine IBZKPT returns following result:
 ===========================================
 
 Found     52 irreducible k-points:
 
 Following reciprocal coordinates:
            Coordinates               Weight
  0.000000  0.000000  0.000000      1.000000
  0.200000  0.000000  0.000000      2.000000
  0.400000  0.000000  0.000000      2.000000
  0.000000  0.200000  0.000000      2.000000
  0.200000  0.200000  0.000000      2.000000
  0.400000  0.200000  0.000000      2.000000
 -0.400000  0.200000  0.000000      2.000000
 -0.200000  0.200000  0.000000      2.000000
  0.000000  0.400000  0.000000      2.000000
  0.200000  0.400000  0.000000      2.000000
  0.400000  0.400000  0.000000      2.000000
 -0.400000  0.400000  0.000000      2.000000
 -0.200000  0.400000  0.000000      2.000000
  0.000000  0.000000  0.166667      2.000000
  0.200000  0.000000  0.166667      4.000000
  0.400000  0.000000  0.166667      4.000000
  0.000000  0.200000  0.166667      4.000000
  0.200000  0.200000  0.166667      4.000000
  0.400000  0.200000  0.166667      4.000000
 -0.400000  0.200000  0.166667      4.000000
 -0.200000  0.200000  0.166667      4.000000
  0.000000  0.400000  0.166667      4.000000
  0.200000  0.400000  0.166667      4.000000
  0.400000  0.400000  0.166667      4.000000
 -0.400000  0.400000  0.166667      4.000000
 -0.200000  0.400000  0.166667      4.000000
  0.000000  0.000000  0.333333      2.000000
  0.200000  0.000000  0.333333      4.000000
  0.400000  0.000000  0.333333      4.000000
  0.000000  0.200000  0.333333      4.000000
  0.200000  0.200000  0.333333      4.000000
  0.400000  0.200000  0.333333      4.000000
 -0.400000  0.200000  0.333333      4.000000
 -0.200000  0.200000  0.333333      4.000000
  0.000000  0.400000  0.333333      4.000000
  0.200000  0.400000  0.333333      4.000000
  0.400000  0.400000  0.333333      4.000000
 -0.400000  0.400000  0.333333      4.000000
 -0.200000  0.400000  0.333333      4.000000
  0.000000  0.000000  0.500000      1.000000
  0.200000  0.000000  0.500000      2.000000
  0.400000  0.000000  0.500000      2.000000
  0.000000  0.200000  0.500000      2.000000
  0.200000  0.200000  0.500000      2.000000
  0.400000  0.200000  0.500000      2.000000
 -0.400000  0.200000  0.500000      2.000000
 -0.200000  0.200000  0.500000      2.000000
  0.000000  0.400000  0.500000      2.000000
  0.200000  0.400000  0.500000      2.000000
  0.400000  0.400000  0.500000      2.000000
 -0.400000  0.400000  0.500000      2.000000
 -0.200000  0.400000  0.500000      2.000000
 
 Following cartesian coordinates:
            Coordinates               Weight
  0.000000  0.000000  0.000000      1.000000
  0.024242  0.000000  0.000000      2.000000
  0.048484  0.000000  0.000000      2.000000
  0.000000  0.024242  0.000000      2.000000
  0.024242  0.024242  0.000000      2.000000
  0.048484  0.024242  0.000000      2.000000
 -0.048484  0.024242  0.000000      2.000000
 -0.024242  0.024242  0.000000      2.000000
  0.000000  0.048484  0.000000      2.000000
  0.024242  0.048484  0.000000      2.000000
  0.048484  0.048484  0.000000      2.000000
 -0.048484  0.048484  0.000000      2.000000
 -0.024242  0.048484  0.000000      2.000000
  0.000000  0.000000  0.023970      2.000000
  0.024242  0.000000  0.023970      4.000000
  0.048484  0.000000  0.023970      4.000000
  0.000000  0.024242  0.023970      4.000000
  0.024242  0.024242  0.023970      4.000000
  0.048484  0.024242  0.023970      4.000000
 -0.048484  0.024242  0.023970      4.000000
 -0.024242  0.024242  0.023970      4.000000
  0.000000  0.048484  0.023970      4.000000
  0.024242  0.048484  0.023970      4.000000
  0.048484  0.048484  0.023970      4.000000
 -0.048484  0.048484  0.023970      4.000000
 -0.024242  0.048484  0.023970      4.000000
  0.000000  0.000000  0.047939      2.000000
  0.024242  0.000000  0.047939      4.000000
  0.048484  0.000000  0.047939      4.000000
  0.000000  0.024242  0.047939      4.000000
  0.024242  0.024242  0.047939      4.000000
  0.048484  0.024242  0.047939      4.000000
 -0.048484  0.024242  0.047939      4.000000
 -0.024242  0.024242  0.047939      4.000000
  0.000000  0.048484  0.047939      4.000000
  0.024242  0.048484  0.047939      4.000000
  0.048484  0.048484  0.047939      4.000000
 -0.048484  0.048484  0.047939      4.000000
 -0.024242  0.048484  0.047939      4.000000
  0.000000  0.000000  0.071909      1.000000
  0.024242  0.000000  0.071909      2.000000
  0.048484  0.000000  0.071909      2.000000
  0.000000  0.024242  0.071909      2.000000
  0.024242  0.024242  0.071909      2.000000
  0.048484  0.024242  0.071909      2.000000
 -0.048484  0.024242  0.071909      2.000000
 -0.024242  0.024242  0.071909      2.000000
  0.000000  0.048484  0.071909      2.000000
  0.024242  0.048484  0.071909      2.000000
  0.048484  0.048484  0.071909      2.000000
 -0.048484  0.048484  0.071909      2.000000
 -0.024242  0.048484  0.071909      2.000000
 


--------------------------------------------------------------------------------------------------------




 Dimension of arrays:
   k-points           NKPTS =     52   k-points in BZ     NKDIM =     52   number of bands    NBANDS=    122
   number of dos      NEDOS =    301   number of ions     NIONS =     36
   non local maximal  LDIM  =      6   non local SUM 2l+1 LMDIM =     18
   total plane-waves  NPLWV = 139968
   max r-space proj   IRMAX =      1   max aug-charges    IRDMAX=  92271
   dimension x,y,z NGX =    54 NGY =   54 NGZ =   48
   dimension x,y,z NGXF=   108 NGYF=  108 NGZF=   96
   support grid    NGXF=   216 NGYF=  216 NGZF=  192
   ions per type =              18  18
   NGX,Y,Z   is equivalent  to a cutoff of  10.88, 10.88, 11.48 a.u.
   NGXF,Y,Z  is equivalent  to a cutoff of  21.76, 21.76, 22.95 a.u.

 SYSTEM =  AlMn_pv                                 
 POSCAR =  NewRef: 18, @ ['Mn', array([1.37502469, 

 Startparameter for this run:
   NWRITE =      2    write-flag & timer
   PREC   = accura    normal or accurate (medium, high low for compatibility)
   ISTART =      0    job   : 0-new  1-cont  2-samecut
   ICHARG =      2    charge: 1-file 2-atom 10-const
   ISPIN  =      2    spin polarized calculation?
   LNONCOLLINEAR =      F non collinear calculations
   LSORBIT =      F    spin-orbit coupling
   INIWAV =      1    electr: 0-lowe 1-rand  2-diag
   LASPH  =      F    aspherical Exc in radial PAW
   METAGGA=      F    non-selfconsistent MetaGGA calc.

 Electronic Relaxation 1
   ENCUT  =  404.8 eV  29.75 Ry    5.45 a.u.  13.53 13.53 11.41*2*pi/ulx,y,z
   ENINI  =  404.8     initial cutoff
   ENAUG  =  500.7 eV  augmentation charge cutoff
   NELM   =    100;   NELMIN=  4; NELMDL= -8     # of ELM steps 
   EDIFF  = 0.1E-06   stopping-criterion for ELM
   LREAL  =      F    real-space projection
   NLSPLINE    = F    spline interpolate recip. space projectors
   LCOMPAT=      F    compatible to vasp.4.4
   GGA_COMPAT  = T    GGA compatible to vasp.4.4-vasp.4.6
   LMAXPAW     = -100 max onsite density
   LMAXMIX     =    2 max onsite mixed and CHGCAR
   VOSKOWN=      0    Vosko Wilk Nusair interpolation
   ROPT   =    0.00000   0.00000
 Ionic relaxation
   EDIFFG = 0.1E-05   stopping-criterion for IOM
   NSW    =      0    number of steps for IOM
   NBLOCK =      1;   KBLOCK =      1    inner block; outer block 
   IBRION =     -1    ionic relax: 0-MD 1-quasi-New 2-CG
   NFREE  =      0    steps in history (QN), initial steepest desc. (CG)
   ISIF   =      2    stress and relaxation
   IWAVPR =     10    prediction:  0-non 1-charg 2-wave 3-comb
   ISYM   =      2    0-nonsym 1-usesym 2-fastsym
   LCORR  =      T    Harris-Foulkes like correction to forces

   POTIM  = 0.2000    time-step for ionic-motion
   TEIN   =    0.0    initial temperature
   TEBEG  =    0.0;   TEEND  =   0.0 temperature during run
   SMASS  =  -3.00    Nose mass-parameter (am)
   estimated Nose-frequenzy (Omega)   =  0.10E-29 period in steps =****** mass=  -0.156E-26a.u.
   SCALEE = 1.0000    scale energy and forces
   NPACO  =    256;   APACO  = 16.0  distance and # of slots for P.C.
   PSTRESS=    0.0 pullay stress

  Mass of Ions in am
   POMASS =  26.98 54.94
  Ionic Valenz
   ZVAL   =   3.00  7.00
  Atomic Wigner-Seitz radii
   RWIGS  =  -1.00 -1.00
  virtual crystal weights 
   VCA    =   1.00  1.00
   NELECT =     180.0000    total number of electrons
   NUPDOWN=      -1.0000    fix difference up-down

 DOS related values:
   EMIN   =  10.00;   EMAX   =-10.00  energy-range for DOS
   EFERMI =   0.00
   ISMEAR =     1;   SIGMA  =   0.20  broadening in eV -4-tet -1-fermi 0-gaus

 Electronic relaxation 2 (details)
   IALGO  =     58    algorithm
   LDIAG  =      T    sub-space diagonalisation (order eigenvalues)
   LSUBROT=      F    optimize rotation matrix (better conditioning)
   TURBO    =      0    0=normal 1=particle mesh
   IRESTART =      0    0=no restart 2=restart with 2 vectors
   NREBOOT  =      0    no. of reboots
   NMIN     =      0    reboot dimension
   EREF     =   0.00    reference energy to select bands
   IMIX   =      4    mixing-type and parameters
     AMIX     =   0.40;   BMIX     =  1.00
     AMIX_MAG =   1.60;   BMIX_MAG =  1.00
     AMIN     =   0.10
     WC   =   100.;   INIMIX=   1;  MIXPRE=   1;  MAXMIX= -45

 Intra band minimization:
   WEIMIN = 0.0000     energy-eigenvalue tresh-hold
   EBREAK =  0.20E-09  absolut break condition
   DEPER  =   0.30     relativ break condition  

   TIME   =   0.40     timestep for ELM

  volume/ion in A,a.u.               =      13.15        88.72
  Fermi-wavevector in a.u.,A,eV,Ry     =   1.186118  2.241439 19.141722  1.406877
  Thomas-Fermi vector in A             =   2.322298
 
 Write flags
   LWAVE        =      F    write WAVECAR
   LDOWNSAMPLE  =      F    k-point downsampling of WAVECAR
   LCHARG       =      F    write CHGCAR
   LVTOT        =      F    write LOCPOT, total local potential
   LVHAR        =      F    write LOCPOT, Hartree potential only
   LELF         =      F    write electronic localiz. function (ELF)
   LORBIT       =     10    0 simple, 1 ext, 2 COOP (PROOUT), +10 PAW based schemes


 Dipole corrections
   LMONO  =      F    monopole corrections only (constant potential shift)
   LDIPOL =      F    correct potential (dipole corrections)
   IDIPOL =      0    1-x, 2-y, 3-z, 4-all directions 
   EPSILON=  1.0000000 bulk dielectric constant

 Exchange correlation treatment:
   GGA     =    --    GGA type
   LEXCH   =     8    internal setting for exchange type
   VOSKOWN=      0    Vosko Wilk Nusair interpolation
   LHFCALC =     F    Hartree Fock is set to
   LHFONE  =     F    Hartree Fock one center treatment
   AEXX    =    0.0000 exact exchange contribution

 Linear response parameters
   LEPSILON=     F    determine dielectric tensor
   LRPA    =     F    only Hartree local field effects (RPA)
   LNABLA  =     F    use nabla operator in PAW spheres
   LVEL    =     F    velocity operator in full k-point grid
   LINTERFAST=   F  fast interpolation
   KINTER  =     0    interpolate to denser k-point grid
   CSHIFT  =0.1000    complex shift for real part using Kramers Kronig
   OMEGAMAX=  -1.0    maximum frequency
   DEG_THRESHOLD= 0.2000000E-02 threshold for treating states as degnerate
   RTIME   =   -0.100 relaxation time in fs
  (WPLASMAI=    0.000 imaginary part of plasma frequency in eV, 0.658/RTIME)
   DFIELD  = 0.0000000 0.0000000 0.0000000 field for delta impulse in time
 
 Orbital magnetization related:
   ORBITALMAG=     F  switch on orbital magnetization
   LCHIMAG   =     F  perturbation theory with respect to B field
   DQ        =  0.001000  dq finite difference perturbation B field
   LLRAUG    =     F  two centre corrections for induced B field



--------------------------------------------------------------------------------------------------------


 Static calculation
 charge density and potential will be updated during run
 spin polarized calculation
 Conjugate gradient for all bands (Freysoldt, et al. PRB 79, 241103 (2009))
 preconditioned conjugated gradient                                        
 perform sub-space diagonalisation
    before iterative eigenvector-optimisation
 modified Broyden-mixing scheme, WC =      100.0
 initial mixing is a Kerker type mixing with AMIX =  0.4000 and BMIX =      1.0000
 Hartree-type preconditioning will be used
 using additional bands           32
 reciprocal scheme for non local part
 use partial core corrections
 no Harris-corrections to forces 
 use gradient corrections 
 use of overlap-Matrix (Vanderbilt PP)
 Methfessel and Paxton  Order N= 1 SIGMA  =   0.20


--------------------------------------------------------------------------------------------------------


  energy-cutoff  :      404.80
  volume of cell :      473.27
      direct lattice vectors                 reciprocal lattice vectors
     8.250148166  0.000000000  0.000000000     0.121209944  0.000000000  0.000000000
     0.000000000  8.250148166  0.000000000     0.000000000  0.121209944  0.000000000
     0.000000000  0.000000000  6.953274261     0.000000000  0.000000000  0.143817137

  length of vectors
     8.250148166  8.250148166  6.953274261     0.121209944  0.121209944  0.143817137


 
 k-points in units of 2pi/SCALE and weight: automatic KPOINTS                       
   0.00000000  0.00000000  0.00000000       0.007
   0.02424199  0.00000000  0.00000000       0.013
   0.04848398  0.00000000  0.00000000       0.013
   0.00000000  0.02424199  0.00000000       0.013
   0.02424199  0.02424199  0.00000000       0.013
   0.04848398  0.02424199  0.00000000       0.013
  -0.04848398  0.02424199  0.00000000       0.013
  -0.02424199  0.02424199  0.00000000       0.013
   0.00000000  0.04848398  0.00000000       0.013
   0.02424199  0.04848398  0.00000000       0.013
   0.04848398  0.04848398  0.00000000       0.013
  -0.04848398  0.04848398  0.00000000       0.013
  -0.02424199  0.04848398  0.00000000       0.013
   0.00000000  0.00000000  0.02396952       0.013
   0.02424199  0.00000000  0.02396952       0.027
   0.04848398  0.00000000  0.02396952       0.027
   0.00000000  0.02424199  0.02396952       0.027
   0.02424199  0.02424199  0.02396952       0.027
   0.04848398  0.02424199  0.02396952       0.027
  -0.04848398  0.02424199  0.02396952       0.027
  -0.02424199  0.02424199  0.02396952       0.027
   0.00000000  0.04848398  0.02396952       0.027
   0.02424199  0.04848398  0.02396952       0.027
   0.04848398  0.04848398  0.02396952       0.027
  -0.04848398  0.04848398  0.02396952       0.027
  -0.02424199  0.04848398  0.02396952       0.027
   0.00000000  0.00000000  0.04793905       0.013
   0.02424199  0.00000000  0.04793905       0.027
   0.04848398  0.00000000  0.04793905       0.027
   0.00000000  0.02424199  0.04793905       0.027
   0.02424199  0.02424199  0.04793905       0.027
   0.04848398  0.02424199  0.04793905       0.027
  -0.04848398  0.02424199  0.04793905       0.027
  -0.02424199  0.02424199  0.04793905       0.027
   0.00000000  0.04848398  0.04793905       0.027
   0.02424199  0.04848398  0.04793905       0.027
   0.04848398  0.04848398  0.04793905       0.027
  -0.04848398  0.04848398  0.04793905       0.027
  -0.02424199  0.04848398  0.04793905       0.027
   0.00000000  0.00000000  0.07190857       0.007
   0.02424199  0.00000000  0.07190857       0.013
   0.04848398  0.00000000  0.07190857       0.013
   0.00000000  0.02424199  0.07190857       0.013
   0.02424199  0.02424199  0.07190857       0.013
   0.04848398  0.02424199  0.07190857       0.013
  -0.04848398  0.02424199  0.07190857       0.013
  -0.02424199  0.02424199  0.07190857       0.013
   0.00000000  0.04848398  0.07190857       0.013
   0.02424199  0.04848398  0.07190857       0.013
   0.04848398  0.04848398  0.07190857       0.013
  -0.04848398  0.04848398  0.07190857       0.013
  -0.02424199  0.04848398  0.07190857       0.013
 
 k-points in reciprocal lattice and weights: automatic KPOINTS                       
   0.00000000  0.00000000  0.00000000       0.007
   0.20000000  0.00000000  0.00000000       0.013
   0.40000000  0.00000000  0.00000000       0.013
   0.00000000  0.20000000  0.00000000       0.013
   0.20000000  0.20000000  0.00000000       0.013
   0.40000000  0.20000000  0.00000000       0.013
  -0.40000000  0.20000000  0.00000000       0.013
  -0.20000000  0.20000000  0.00000000       0.013
   0.00000000  0.40000000  0.00000000       0.013
   0.20000000  0.40000000  0.00000000       0.013
   0.40000000  0.40000000  0.00000000       0.013
  -0.40000000  0.40000000  0.00000000       0.013
  -0.20000000  0.40000000  0.00000000       0.013
   0.00000000  0.00000000  0.16666667       0.013
   0.20000000  0.00000000  0.16666667       0.027
   0.40000000  0.00000000  0.16666667       0.027
   0.00000000  0.20000000  0.16666667       0.027
   0.20000000  0.20000000  0.16666667       0.027
   0.40000000  0.20000000  0.16666667       0.027
  -0.40000000  0.20000000  0.16666667       0.027
  -0.20000000  0.20000000  0.16666667       0.027
   0.00000000  0.40000000  0.16666667       0.027
   0.20000000  0.40000000  0.16666667       0.027
   0.40000000  0.40000000  0.16666667       0.027
  -0.40000000  0.40000000  0.16666667       0.027
  -0.20000000  0.40000000  0.16666667       0.027
   0.00000000  0.00000000  0.33333333       0.013
   0.20000000  0.00000000  0.33333333       0.027
   0.40000000  0.00000000  0.33333333       0.027
   0.00000000  0.20000000  0.33333333       0.027
   0.20000000  0.20000000  0.33333333       0.027
   0.40000000  0.20000000  0.33333333       0.027
  -0.40000000  0.20000000  0.33333333       0.027
  -0.20000000  0.20000000  0.33333333       0.027
   0.00000000  0.40000000  0.33333333       0.027
   0.20000000  0.40000000  0.33333333       0.027
   0.40000000  0.40000000  0.33333333       0.027
  -0.40000000  0.40000000  0.33333333       0.027
  -0.20000000  0.40000000  0.33333333       0.027
   0.00000000  0.00000000  0.50000000       0.007
   0.20000000  0.00000000  0.50000000       0.013
   0.40000000  0.00000000  0.50000000       0.013
   0.00000000  0.20000000  0.50000000       0.013
   0.20000000  0.20000000  0.50000000       0.013
   0.40000000  0.20000000  0.50000000       0.013
  -0.40000000  0.20000000  0.50000000       0.013
  -0.20000000  0.20000000  0.50000000       0.013
   0.00000000  0.40000000  0.50000000       0.013
   0.20000000  0.40000000  0.50000000       0.013
   0.40000000  0.40000000  0.50000000       0.013
  -0.40000000  0.40000000  0.50000000       0.013
  -0.20000000  0.40000000  0.50000000       0.013
 
 position of ions in fractional coordinates (direct lattice) 
   0.00000000  0.00000000  0.00000000
   0.00000000  0.00000000  0.50000000
   0.00000000  0.33333333  0.00000000
   0.00000000  0.33333333  0.50000000
   0.00000000  0.66666667  0.00000000
   0.00000000  0.66666667  0.50000000
   0.33333333  0.00000000  0.00000000
   0.33333333  0.00000000  0.50000000
   0.33333333  0.33333333  0.00000000
   0.33333333  0.33333333  0.50000000
   0.33333333  0.66666667  0.00000000
   0.33333333  0.66666667  0.50000000
   0.66666667  0.00000000  0.00000000
   0.66666667  0.00000000  0.50000000
   0.66666667  0.33333333  0.00000000
   0.66666667  0.33333333  0.50000000
   0.66666667  0.66666667  0.00000000
   0.66666667  0.66666667  0.50000000
   0.16666667  0.16666667  0.25000000
   0.16666667  0.16666667  0.75000000
   0.16666667  0.50000000  0.25000000
   0.16666667  0.50000000  0.75000000
   0.16666667  0.83333333  0.25000000
   0.16666667  0.83333333  0.75000000
   0.50000000  0.16666667  0.25000000
   0.50000000  0.16666667  0.75000000
   0.50000000  0.50000000  0.25000000
   0.50000000  0.50000000  0.75000000
   0.50000000  0.83333333  0.25000000
   0.50000000  0.83333333  0.75000000
   0.83333333  0.16666667  0.25000000
   0.83333333  0.16666667  0.75000000
   0.83333333  0.50000000  0.25000000
   0.83333333  0.50000000  0.75000000
   0.83333333  0.83333333  0.25000000
   0.83333333  0.83333333  0.75000000
 
 position of ions in cartesian coordinates  (Angst):
   0.00000000  0.00000000  0.00000000
   0.00000000  0.00000000  3.47663713
   0.00000000  2.75004939  0.00000000
   0.00000000  2.75004939  3.47663713
   0.00000000  5.50009878  0.00000000
   0.00000000  5.50009878  3.47663713
   2.75004939  0.00000000  0.00000000
   2.75004939  0.00000000  3.47663713
   2.75004939  2.75004939  0.00000000
   2.75004939  2.75004939  3.47663713
   2.75004939  5.50009878  0.00000000
   2.75004939  5.50009878  3.47663713
   5.50009878  0.00000000  0.00000000
   5.50009878  0.00000000  3.47663713
   5.50009878  2.75004939  0.00000000
   5.50009878  2.75004939  3.47663713
   5.50009878  5.50009878  0.00000000
   5.50009878  5.50009878  3.47663713
   1.37502469  1.37502469  1.73831857
   1.37502469  1.37502469  5.21495570
   1.37502469  4.12507408  1.73831857
   1.37502469  4.12507408  5.21495570
   1.37502469  6.87512347  1.73831857
   1.37502469  6.87512347  5.21495570
   4.12507408  1.37502469  1.73831857
   4.12507408  1.37502469  5.21495570
   4.12507408  4.12507408  1.73831857
   4.12507408  4.12507408  5.21495570
   4.12507408  6.87512347  1.73831857
   4.12507408  6.87512347  5.21495570
   6.87512347  1.37502469  1.73831857
   6.87512347  1.37502469  5.21495570
   6.87512347  4.12507408  1.73831857
   6.87512347  4.12507408  5.21495570
   6.87512347  6.87512347  1.73831857
   6.87512347  6.87512347  5.21495570
 


--------------------------------------------------------------------------------------------------------


 k-point  1 :   0.0000 0.0000 0.0000  plane waves:    8799
 k-point  2 :   0.2000 0.0000 0.0000  plane waves:    8753
 k-point  3 :   0.4000 0.0000 0.0000  plane waves:    8757
 k-point  4 :   0.0000 0.2000 0.0000  plane waves:    8753
 k-point  5 :   0.2000 0.2000 0.0000  plane waves:    8767
 k-point  6 :   0.4000 0.2000 0.0000  plane waves:    8761
 k-point  7 :  -0.4000 0.2000 0.0000  plane waves:    8761
 k-point  8 :  -0.2000 0.2000 0.0000  plane waves:    8767
 k-point  9 :   0.0000 0.4000 0.0000  plane waves:    8757
 k-point 10 :   0.2000 0.4000 0.0000  plane waves:    8761
 k-point 11 :   0.4000 0.4000 0.0000  plane waves:    8731
 k-point 12 :  -0.4000 0.4000 0.0000  plane waves:    8731
 k-point 13 :  -0.2000 0.4000 0.0000  plane waves:    8761
 k-point 14 :   0.0000 0.0000 0.1667  plane waves:    8763
 k-point 15 :   0.2000 0.0000 0.1667  plane waves:    8771
 k-point 16 :   0.4000 0.0000 0.1667  plane waves:    8747
 k-point 17 :   0.0000 0.2000 0.1667  plane waves:    8771
 k-point 18 :   0.2000 0.2000 0.1667  plane waves:    8764
 k-point 19 :   0.4000 0.2000 0.1667  plane waves:    8768
 k-point 20 :  -0.4000 0.2000 0.1667  plane waves:    8768
 k-point 21 :  -0.2000 0.2000 0.1667  plane waves:    8764
 k-point 22 :   0.0000 0.4000 0.1667  plane waves:    8747
 k-point 23 :   0.2000 0.4000 0.1667  plane waves:    8768
 k-point 24 :   0.4000 0.4000 0.1667  plane waves:    8740
 k-point 25 :  -0.4000 0.4000 0.1667  plane waves:    8740
 k-point 26 :  -0.2000 0.4000 0.1667  plane waves:    8768
 k-point 27 :   0.0000 0.0000 0.3333  plane waves:    8743
 k-point 28 :   0.2000 0.0000 0.3333  plane waves:    8736
 k-point 29 :   0.4000 0.0000 0.3333  plane waves:    8753
 k-point 30 :   0.0000 0.2000 0.3333  plane waves:    8736
 k-point 31 :   0.2000 0.2000 0.3333  plane waves:    8753
 k-point 32 :   0.4000 0.2000 0.3333  plane waves:    8743
 k-point 33 :  -0.4000 0.2000 0.3333  plane waves:    8743
 k-point 34 :  -0.2000 0.2000 0.3333  plane waves:    8753
 k-point 35 :   0.0000 0.4000 0.3333  plane waves:    8753
 k-point 36 :   0.2000 0.4000 0.3333  plane waves:    8743
 k-point 37 :   0.4000 0.4000 0.3333  plane waves:    8755
 k-point 38 :  -0.4000 0.4000 0.3333  plane waves:    8755
 k-point 39 :  -0.2000 0.4000 0.3333  plane waves:    8743
 k-point 40 :   0.0000 0.0000 0.5000  plane waves:    8742
 k-point 41 :   0.2000 0.0000 0.5000  plane waves:    8756
 k-point 42 :   0.4000 0.0000 0.5000  plane waves:    8744
 k-point 43 :   0.0000 0.2000 0.5000  plane waves:    8756
 k-point 44 :   0.2000 0.2000 0.5000  plane waves:    8762
 k-point 45 :   0.4000 0.2000 0.5000  plane waves:    8732
 k-point 46 :  -0.4000 0.2000 0.5000  plane waves:    8732
 k-point 47 :  -0.2000 0.2000 0.5000  plane waves:    8762
 k-point 48 :   0.0000 0.4000 0.5000  plane waves:    8744
 k-point 49 :   0.2000 0.4000 0.5000  plane waves:    8732
 k-point 50 :   0.4000 0.4000 0.5000  plane waves:    8736
 k-point 51 :  -0.4000 0.4000 0.5000  plane waves:    8736
 k-point 52 :  -0.2000 0.4000 0.5000  plane waves:    8732

 maximum and minimum number of plane-waves per node :      2210     2164

 maximum number of plane-waves:      8799
 maximum index in each direction: 
   IXMAX=   13   IYMAX=   13   IZMAX=   11
   IXMIN=  -13   IYMIN=  -13   IZMIN=  -11


 parallel 3D FFT for wavefunctions:
    minimum data exchange during FFTs selected (reduces bandwidth)
 parallel 3D FFT for charge:
    minimum data exchange during FFTs selected (reduces bandwidth)


 total amount of memory used by VASP MPI-rank0   809947. kBytes
=======================================================================

   base      :      30000. kBytes
   nonl-proj :      34307. kBytes
   fftplans  :      21726. kBytes
   grid      :      14732. kBytes
   one-center:        279. kBytes
   wavefun   :     708903. kBytes
 
     INWAV:  cpu time    0.0000: real time    0.0000
 Broyden mixing: mesh for mixing (old mesh)
   NGX = 27   NGY = 27   NGZ = 23
  (NGX  =108   NGY  =108   NGZ  = 96)
  gives a total of  16767 points

 initial charge density was supplied:
 charge density of overlapping atoms calculated
 number of electron     180.0000000 magnetization      24.0000000
 keeping initial charge density in first step


--------------------------------------------------------------------------------------------------------


 Maximum index for augmentation-charges        11261 (set IRDMAX)


--------------------------------------------------------------------------------------------------------


 First call to EWALD:  gamma=   0.227
 Maximum number of real-space cells 3x 3x 3
 Maximum number of reciprocal cells 3x 3x 3

    FEWALD:  cpu time    0.0054: real time    0.0054


--------------------------------------- Iteration      1(   1)  ---------------------------------------


    POTLOK:  cpu time    0.2517: real time    0.2523
    SETDIJ:  cpu time    0.3509: real time    0.3520
    TRIAL :  cpu time   20.6752: real time   21.4991
    CORREC:  cpu time    0.0070: real time    0.0072
    --------------------------------------------
      LOOP:  cpu time   21.5234: real time   22.3592

 eigenvalue-minimisations  : 25376
 total energy-change (2. order) : 0.1330521E+04  (-0.6008422E+04)
 number of electron     180.0000000 magnetization      24.0000000
 augmentation part      180.0000000 magnetization      24.0000000

 Free energy of the ion-electron system (eV)
  ---------------------------------------------------
  alpha Z        PSCENC =       532.25742704
  Ewald energy   TEWEN  =     -8601.05107233
  -Hartree energ DENC   =     -1903.73857242
  -exchange      EXHF   =         0.00000000
  -V(xc)+E(xc)   XCENC  =      -664.36320481
  PAW double counting   =      8494.55058411    -7650.81563588
  entropy T*S    EENTRO =        -0.00012142
  eigenvalues    EBANDS =      2658.56518410
  atomic energy  EATOM  =      8465.11600846
  ---------------------------------------------------
  free energy    TOTEN  =      1330.52059685 eV

  energy without entropy =     1330.52071827  energy(sigma->0) =     1330.52063732


--------------------------------------------------------------------------------------------------------




--------------------------------------- Iteration      1(   2)  ---------------------------------------


    TRIAL :  cpu time   21.0902: real time   22.5940
    CORREC:  cpu time    0.0086: real time    0.0096
    --------------------------------------------
      LOOP:  cpu time   21.1000: real time   22.6071

 eigenvalue-minimisations  : 25376
 total energy-change (2. order) :-0.1415203E+04  (-0.1365983E+04)
 number of electron     180.0000000 magnetization      24.0000000
 augmentation part      180.0000000 magnetization      24.0000000

 Free energy of the ion-electron system (eV)
  ---------------------------------------------------
  alpha Z        PSCENC =       532.25742704
  Ewald energy   TEWEN  =     -8601.05107233
  -Hartree energ DENC   =     -1903.73857242
  -exchange      EXHF   =         0.00000000
  -V(xc)+E(xc)   XCENC  =      -664.36320481
  PAW double counting   =      8494.55058411    -7650.81563588
  entropy T*S    EENTRO =        -0.00174426
  eigenvalues    EBANDS =      1243.36383349
  atomic energy  EATOM  =      8465.11600846
  ---------------------------------------------------
  free energy    TOTEN  =       -84.68237660 eV

  energy without entropy =      -84.68063234  energy(sigma->0) =      -84.68179518


--------------------------------------------------------------------------------------------------------




--------------------------------------- Iteration      1(   3)  ---------------------------------------


    TRIAL :  cpu time   29.0277: real time   30.9365
    CORREC:  cpu time    0.0100: real time    0.0108
    --------------------------------------------
      LOOP:  cpu time   29.0387: real time   30.9506

 eigenvalue-minimisations  : 38076
 total energy-change (2. order) :-0.1592961E+03  (-0.1383778E+03)
 number of electron     180.0000000 magnetization      24.0000000
 augmentation part      180.0000000 magnetization      24.0000000

 Free energy of the ion-electron system (eV)
  ---------------------------------------------------
  alpha Z        PSCENC =       532.25742704
  Ewald energy   TEWEN  =     -8601.05107233
  -Hartree energ DENC   =     -1903.73857242
  -exchange      EXHF   =         0.00000000
  -V(xc)+E(xc)   XCENC  =      -664.36320481
  PAW double counting   =      8494.55058411    -7650.81563588
  entropy T*S    EENTRO =         0.01587953
  eigenvalues    EBANDS =      1084.05015571
  atomic energy  EATOM  =      8465.11600846
  ---------------------------------------------------
  free energy    TOTEN  =      -243.97843059 eV

  energy without entropy =     -243.99431012  energy(sigma->0) =     -243.98372377


--------------------------------------------------------------------------------------------------------




--------------------------------------- Iteration      1(   4)  ---------------------------------------


    TRIAL :  cpu time   30.5729: real time   31.6797
    CORREC:  cpu time    0.0103: real time    0.0111
    --------------------------------------------
      LOOP:  cpu time   30.5912: real time   31.7005

 eigenvalue-minimisations  : 40984
 total energy-change (2. order) :-0.2272729E+02  (-0.1968300E+02)
 number of electron     180.0000000 magnetization      24.0000000
 augmentation part      180.0000000 magnetization      24.0000000

 Free energy of the ion-electron system (eV)
  ---------------------------------------------------
  alpha Z        PSCENC =       532.25742704
  Ewald energy   TEWEN  =     -8601.05107233
  -Hartree energ DENC   =     -1903.73857242
  -exchange      EXHF   =         0.00000000
  -V(xc)+E(xc)   XCENC  =      -664.36320481
  PAW double counting   =      8494.55058411    -7650.81563588
  entropy T*S    EENTRO =         0.01980952
  eigenvalues    EBANDS =      1061.31893588
  atomic energy  EATOM  =      8465.11600846
  ---------------------------------------------------
  free energy    TOTEN  =      -266.70572043 eV

  energy without entropy =     -266.72552995  energy(sigma->0) =     -266.71232360


--------------------------------------------------------------------------------------------------------




--------------------------------------- Iteration      1(   5)  ---------------------------------------


    TRIAL :  cpu time   30.6908: real time   33.2597
    CORREC:  cpu time    0.0105: real time    0.0114
    --------------------------------------------
      LOOP:  cpu time   30.7021: real time   33.2746

 eigenvalue-minimisations  : 41224
 total energy-change (2. order) :-0.1904918E+01  (-0.1819987E+01)
 number of electron     180.0000000 magnetization      24.0000000
 augmentation part      180.0000000 magnetization      24.0000000

 Free energy of the ion-electron system (eV)
  ---------------------------------------------------
  alpha Z        PSCENC =       532.25742704
  Ewald energy   TEWEN  =     -8601.05107233
  -Hartree energ DENC   =     -1903.73857242
  -exchange      EXHF   =         0.00000000
  -V(xc)+E(xc)   XCENC  =      -664.36320481
  PAW double counting   =      8494.55058411    -7650.81563588
  entropy T*S    EENTRO =         0.02097344
  eigenvalues    EBANDS =      1059.41285415
  atomic energy  EATOM  =      8465.11600846
  ---------------------------------------------------
  free energy    TOTEN  =      -268.61063824 eV

  energy without entropy =     -268.63161168  energy(sigma->0) =     -268.61762939


--------------------------------------------------------------------------------------------------------




--------------------------------------- Iteration      1(   6)  ---------------------------------------


    TRIAL :  cpu time   30.8915: real time   32.4369
    CORREC:  cpu time    0.0106: real time    0.0114
    --------------------------------------------
      LOOP:  cpu time   30.9036: real time   32.4515

 eigenvalue-minimisations  : 41072
 total energy-change (2. order) :-0.1336714E+00  (-0.1317122E+00)
 number of electron     180.0000000 magnetization      24.0000000
 augmentation part      180.0000000 magnetization      24.0000000

 Free energy of the ion-electron system (eV)
  ---------------------------------------------------
  alpha Z        PSCENC =       532.25742704
  Ewald energy   TEWEN  =     -8601.05107233
  -Hartree energ DENC   =     -1903.73857242
  -exchange      EXHF   =         0.00000000
  -V(xc)+E(xc)   XCENC  =      -664.36320481
  PAW double counting   =      8494.55058411    -7650.81563588
  entropy T*S    EENTRO =         0.02084062
  eigenvalues    EBANDS =      1059.27931554
  atomic energy  EATOM  =      8465.11600846
  ---------------------------------------------------
  free energy    TOTEN  =      -268.74430967 eV

  energy without entropy =     -268.76515029  energy(sigma->0) =     -268.75125655


--------------------------------------------------------------------------------------------------------




--------------------------------------- Iteration      1(   7)  ---------------------------------------


    TRIAL :  cpu time   32.0862: real time   33.5241
    CORREC:  cpu time    0.0106: real time    0.0108
    --------------------------------------------
      LOOP:  cpu time   32.0997: real time   33.5382

 eigenvalue-minimisations  : 41904
 total energy-change (2. order) :-0.1324368E-01  (-0.1315439E-01)
 number of electron     180.0000000 magnetization      24.0000000
 augmentation part      180.0000000 magnetization      24.0000000

 Free energy of the ion-electron system (eV)
  ---------------------------------------------------
  alpha Z        PSCENC =       532.25742704
  Ewald energy   TEWEN  =     -8601.05107233
  -Hartree energ DENC   =     -1903.73857242
  -exchange      EXHF   =         0.00000000
  -V(xc)+E(xc)   XCENC  =      -664.36320481
  PAW double counting   =      8494.55058411    -7650.81563588
  entropy T*S    EENTRO =         0.02080447
  eigenvalues    EBANDS =      1059.26610801
  atomic energy  EATOM  =      8465.11600846
  ---------------------------------------------------
  free energy    TOTEN  =      -268.75755336 eV

  energy without entropy =     -268.77835782  energy(sigma->0) =     -268.76448818


--------------------------------------------------------------------------------------------------------




--------------------------------------- Iteration      1(   8)  ---------------------------------------


    TRIAL :  cpu time   30.8898: real time   31.8338
    CORREC:  cpu time    0.0104: real time    0.0112
    CHARGE:  cpu time    1.1740: real time    1.1823
    --------------------------------------------
      LOOP:  cpu time   32.0755: real time   33.0310

 eigenvalue-minimisations  : 40448
 total energy-change (2. order) :-0.1093382E-02  (-0.1089176E-02)
 number of electron     179.9999997 magnetization      17.4754495
 augmentation part       42.8467022 magnetization      10.1019788

 Free energy of the ion-electron system (eV)
  ---------------------------------------------------
  alpha Z        PSCENC =       532.25742704
  Ewald energy   TEWEN  =     -8601.05107233
  -Hartree energ DENC   =     -1903.73857242
  -exchange      EXHF   =         0.00000000
  -V(xc)+E(xc)   XCENC  =      -664.36320481
  PAW double counting   =      8494.55058411    -7650.81563588
  entropy T*S    EENTRO =         0.02080662
  eigenvalues    EBANDS =      1059.26501248
  atomic energy  EATOM  =      8465.11600846
  ---------------------------------------------------
  free energy    TOTEN  =      -268.75864674 eV

  energy without entropy =     -268.77945335  energy(sigma->0) =     -268.76558228


--------------------------------------------------------------------------------------------------------




--------------------------------------- Iteration      1(   9)  ---------------------------------------


    POTLOK:  cpu time    0.2601: real time    0.2603
    SETDIJ:  cpu time    0.3248: real time    0.3248
    TRIAL :  cpu time   10.2135: real time   10.9674
    CORREC:  cpu time    4.4204: real time    4.4554
    CHARGE:  cpu time    1.1704: real time    1.1713
    --------------------------------------------
      LOOP:  cpu time   16.3926: real time   17.1846

 eigenvalue-minimisations  :     0
 total energy-change (2. order) : 0.1992339E+03  (-0.1430577E+03)
 number of electron     179.9999997 magnetization      18.4464183
 augmentation part       55.0107353 magnetization      12.0297721

 Free energy of the ion-electron system (eV)
  ---------------------------------------------------
  alpha Z        PSCENC =       532.25742704
  Ewald energy   TEWEN  =     -8601.05107233
  -Hartree energ DENC   =      -851.62159929
  -exchange      EXHF   =         0.00000000
  -V(xc)+E(xc)   XCENC  =      -694.73744017
  PAW double counting   =     12779.79923412   -11833.95692470
  entropy T*S    EENTRO =         0.01214667
  eigenvalues    EBANDS =       134.64883897
  atomic energy  EATOM  =      8465.11600846
  ---------------------------------------------------
  free energy    TOTEN  =       -69.52472130 eV

  energy without entropy =      -69.53686797  energy(sigma->0) =      -69.52877019


--------------------------------------------------------------------------------------------------------




--------------------------------------- Iteration      1(  10)  ---------------------------------------


    POTLOK:  cpu time    0.2477: real time    0.2477
    SETDIJ:  cpu time    0.3224: real time    0.3227
    TRIAL :  cpu time   10.2850: real time   10.4072
    CORREC:  cpu time    3.9695: real time    4.6078
    CHARGE:  cpu time    1.1581: real time    1.1585
    --------------------------------------------
      LOOP:  cpu time   15.9854: real time   16.7476

 eigenvalue-minimisations  :     0
 total energy-change (2. order) :-0.1417999E+03  (-0.8528718E+01)
 number of electron     179.9999996 magnetization      18.4024155
 augmentation part       57.7336004 magnetization      12.4471064

 Free energy of the ion-electron system (eV)
  ---------------------------------------------------
  alpha Z        PSCENC =       532.25742704
  Ewald energy   TEWEN  =     -8601.05107233
  -Hartree energ DENC   =     -1406.79561770
  -exchange      EXHF   =         0.00000000
  -V(xc)+E(xc)   XCENC  =      -675.23774350
  PAW double counting   =     13782.94873685   -12957.89488332
  entropy T*S    EENTRO =         0.00851006
  eigenvalues    EBANDS =       649.32037075
  atomic energy  EATOM  =      8465.11600846
  ---------------------------------------------------
  free energy    TOTEN  =      -211.32462708 eV

  energy without entropy =     -211.33313714  energy(sigma->0) =     -211.32746377


--------------------------------------------------------------------------------------------------------




--------------------------------------- Iteration      1(  11)  ---------------------------------------


    POTLOK:  cpu time    0.2477: real time    0.2478
    SETDIJ:  cpu time    0.3191: real time    0.3191
    TRIAL :  cpu time   10.2942: real time   11.0968
    CORREC:  cpu time    3.6981: real time    3.7013
    CHARGE:  cpu time    1.1842: real time    1.1905
    --------------------------------------------
      LOOP:  cpu time   15.7496: real time   16.5630

 eigenvalue-minimisations  :     0
 total energy-change (2. order) :-0.8411922E+01  (-0.8626339E+01)
 number of electron     179.9999996 magnetization      18.7993965
 augmentation part       59.2681023 magnetization      12.9315555

 Free energy of the ion-electron system (eV)
  ---------------------------------------------------
  alpha Z        PSCENC =       532.25742704
  Ewald energy   TEWEN  =     -8601.05107233
  -Hartree energ DENC   =     -1569.60233788
  -exchange      EXHF   =         0.00000000
  -V(xc)+E(xc)   XCENC  =      -669.50705378
  PAW double counting   =     14398.79989747   -13600.53321432
  entropy T*S    EENTRO =        -0.00217580
  eigenvalues    EBANDS =       824.77528644
  atomic energy  EATOM  =      8465.11600846
  ---------------------------------------------------
  free energy    TOTEN  =      -219.73654884 eV

  energy without entropy =     -219.73437304  energy(sigma->0) =     -219.73582358


--------------------------------------------------------------------------------------------------------




--------------------------------------- Iteration      1(  12)  ---------------------------------------


    POTLOK:  cpu time    0.2484: real time    0.2486
    SETDIJ:  cpu time    0.3210: real time    0.3211
    TRIAL :  cpu time   10.7251: real time   11.4489
    CORREC:  cpu time    3.6949: real time    3.7263
    CHARGE:  cpu time    1.1768: real time    1.1772
    --------------------------------------------
      LOOP:  cpu time   16.1700: real time   16.9282

 eigenvalue-minimisations  :     0
 total energy-change (2. order) :-0.8637312E+01  (-0.5962542E+01)
 number of electron     179.9999997 magnetization      18.6622622
 augmentation part       58.0571930 magnetization      12.8942566

 Free energy of the ion-electron system (eV)
  ---------------------------------------------------
  alpha Z        PSCENC =       532.25742704
  Ewald energy   TEWEN  =     -8601.05107233
  -Hartree energ DENC   =     -1711.67656820
  -exchange      EXHF   =         0.00000000
  -V(xc)+E(xc)   XCENC  =      -664.81738317
  PAW double counting   =     14440.00088954   -13644.48772859
  entropy T*S    EENTRO =        -0.00144849
  eigenvalues    EBANDS =       956.28674242
  atomic energy  EATOM  =      8465.11600846
  ---------------------------------------------------
  free energy    TOTEN  =      -228.37386064 eV

  energy without entropy =     -228.37241214  energy(sigma->0) =     -228.37337780


--------------------------------------------------------------------------------------------------------




--------------------------------------- Iteration      1(  13)  ---------------------------------------


    POTLOK:  cpu time    0.2470: real time    0.2470
    SETDIJ:  cpu time    0.3435: real time    0.3436
    TRIAL :  cpu time   10.3648: real time   12.0918
    CORREC:  cpu time    3.7421: real time    3.7608
    CHARGE:  cpu time    1.1332: real time    1.2112
    --------------------------------------------
      LOOP:  cpu time   15.8337: real time   17.6595

 eigenvalue-minimisations  :     0
 total energy-change (2. order) :-0.5902158E+01  (-0.7141387E+00)
 number of electron     179.9999997 magnetization      18.6028643
 augmentation part       57.4613752 magnetization      12.7884878

 Free energy of the ion-electron system (eV)
  ---------------------------------------------------
  alpha Z        PSCENC =       532.25742704
  Ewald energy   TEWEN  =     -8601.05107233
  -Hartree energ DENC   =     -1694.54982603
  -exchange      EXHF   =         0.00000000
  -V(xc)+E(xc)   XCENC  =      -665.90646581
  PAW double counting   =     14086.83999004   -13263.10659641
  entropy T*S    EENTRO =         0.00016682
  eigenvalues    EBANDS =       906.12596458
  atomic energy  EATOM  =      8465.11600846
  ---------------------------------------------------
  free energy    TOTEN  =      -234.27601896 eV

  energy without entropy =     -234.27618578  energy(sigma->0) =     -234.27607456


--------------------------------------------------------------------------------------------------------




--------------------------------------- Iteration      1(  14)  ---------------------------------------


    POTLOK:  cpu time    0.2477: real time    0.2478
    SETDIJ:  cpu time    0.3218: real time    0.3222
    TRIAL :  cpu time   10.3054: real time   11.0498
    CORREC:  cpu time    3.7385: real time    3.7497
    CHARGE:  cpu time    1.1317: real time    1.1903
    --------------------------------------------
      LOOP:  cpu time   15.7465: real time   16.5618

 eigenvalue-minimisations  :     0
 total energy-change (2. order) :-0.7025426E+00  (-0.6828109E+00)
 number of electron     179.9999997 magnetization      18.5810577
 augmentation part       57.2514528 magnetization      12.6712744

 Free energy of the ion-electron system (eV)
  ---------------------------------------------------
  alpha Z        PSCENC =       532.25742704
  Ewald energy   TEWEN  =     -8601.05107233
  -Hartree energ DENC   =     -1662.69824530
  -exchange      EXHF   =         0.00000000
  -V(xc)+E(xc)   XCENC  =      -667.05915380
  PAW double counting   =     13826.93098133   -12993.97328099
  entropy T*S    EENTRO =         0.00039918
  eigenvalues    EBANDS =       865.49860718
  atomic energy  EATOM  =      8465.11600846
  ---------------------------------------------------
  free energy    TOTEN  =      -234.97856160 eV

  energy without entropy =     -234.97896078  energy(sigma->0) =     -234.97869466


--------------------------------------------------------------------------------------------------------




--------------------------------------- Iteration      1(  15)  ---------------------------------------


    POTLOK:  cpu time    0.2473: real time    0.2478
    SETDIJ:  cpu time    0.3330: real time    0.3339
    TRIAL :  cpu time   10.5449: real time   11.1110
    CORREC:  cpu time    3.7404: real time    3.7429
    CHARGE:  cpu time    1.1624: real time    1.1630
    --------------------------------------------
      LOOP:  cpu time   16.0326: real time   16.6043

 eigenvalue-minimisations  :     0
 total energy-change (2. order) :-0.6811691E+00  (-0.5472445E+00)
 number of electron     179.9999996 magnetization      18.4871999
 augmentation part       57.8571531 magnetization      12.6349485

 Free energy of the ion-electron system (eV)
  ---------------------------------------------------
  alpha Z        PSCENC =       532.25742704
  Ewald energy   TEWEN  =     -8601.05107233
  -Hartree energ DENC   =     -1642.39300815
  -exchange      EXHF   =         0.00000000
  -V(xc)+E(xc)   XCENC  =      -667.65379280
  PAW double counting   =     13393.17607388   -12555.02143503
  entropy T*S    EENTRO =         0.00266302
  eigenvalues    EBANDS =       839.90966905
  atomic energy  EATOM  =      8465.11600846
  ---------------------------------------------------
  free energy    TOTEN  =      -235.65973071 eV

  energy without entropy =     -235.66239373  energy(sigma->0) =     -235.66061838


--------------------------------------------------------------------------------------------------------




--------------------------------------- Iteration      1(  16)  ---------------------------------------


    POTLOK:  cpu time    0.2470: real time    0.2470
    SETDIJ:  cpu time    0.3381: real time    0.3384
    TRIAL :  cpu time   11.3830: real time   12.2230
    CORREC:  cpu time    3.7009: real time    3.7220
    CHARGE:  cpu time    1.1814: real time    1.1898
    --------------------------------------------
      LOOP:  cpu time   16.8521: real time   17.7229

 eigenvalue-minimisations  :     0
 total energy-change (2. order) :-0.5469737E+00  (-0.1331121E+00)
 number of electron     179.9999996 magnetization      18.4339711
 augmentation part       58.1430637 magnetization      12.6793606

 Free energy of the ion-electron system (eV)
  ---------------------------------------------------
  alpha Z        PSCENC =       532.25742704
  Ewald energy   TEWEN  =     -8601.05107233
  -Hartree energ DENC   =     -1663.28751884
  -exchange      EXHF   =         0.00000000
  -V(xc)+E(xc)   XCENC  =      -666.70389951
  PAW double counting   =     13082.60652773   -12249.09408251
  entropy T*S    EENTRO =         0.00296789
  eigenvalues    EBANDS =       863.94724252
  atomic energy  EATOM  =      8465.11600846
  ---------------------------------------------------
  free energy    TOTEN  =      -236.20670442 eV

  energy without entropy =     -236.20967231  energy(sigma->0) =     -236.20769372


--------------------------------------------------------------------------------------------------------




--------------------------------------- Iteration      1(  17)  ---------------------------------------


    POTLOK:  cpu time    0.2474: real time    0.2475
    SETDIJ:  cpu time    0.3375: real time    0.3378
    TRIAL :  cpu time   10.6760: real time   11.4172
    CORREC:  cpu time    3.6761: real time    3.6785
    CHARGE:  cpu time    1.1417: real time    1.1423
    --------------------------------------------
      LOOP:  cpu time   16.0928: real time   16.8387

 eigenvalue-minimisations  :     0
 total energy-change (2. order) :-0.1330885E+00  (-0.1416343E+00)
 number of electron     179.9999996 magnetization      18.3782458
 augmentation part       58.2278381 magnetization      12.7481358

 Free energy of the ion-electron system (eV)
  ---------------------------------------------------
  alpha Z        PSCENC =       532.25742704
  Ewald energy   TEWEN  =     -8601.05107233
  -Hartree energ DENC   =     -1675.79736197
  -exchange      EXHF   =         0.00000000
  -V(xc)+E(xc)   XCENC  =      -666.11545726
  PAW double counting   =     13038.73307343   -12208.21581761
  entropy T*S    EENTRO =         0.00399434
  eigenvalues    EBANDS =       878.73043942
  atomic energy  EATOM  =      8465.11600846
  ---------------------------------------------------
  free energy    TOTEN  =      -236.33979293 eV

  energy without entropy =     -236.34378726  energy(sigma->0) =     -236.34112437


--------------------------------------------------------------------------------------------------------




--------------------------------------- Iteration      1(  18)  ---------------------------------------


    POTLOK:  cpu time    0.2474: real time    0.2475
    SETDIJ:  cpu time    0.3398: real time    0.3399
    TRIAL :  cpu time   10.7165: real time   11.4593
    CORREC:  cpu time    3.7242: real time    3.7345
    CHARGE:  cpu time    1.1652: real time    1.1755
    --------------------------------------------
      LOOP:  cpu time   16.1956: real time   16.9600

 eigenvalue-minimisations  :     0
 total energy-change (2. order) :-0.1415573E+00  (-0.7339931E-01)
 number of electron     179.9999996 magnetization      18.3312831
 augmentation part       58.0465581 magnetization      12.7742042

 Free energy of the ion-electron system (eV)
  ---------------------------------------------------
  alpha Z        PSCENC =       532.25742704
  Ewald energy   TEWEN  =     -8601.05107233
  -Hartree energ DENC   =     -1678.34439592
  -exchange      EXHF   =         0.00000000
  -V(xc)+E(xc)   XCENC  =      -665.80993670
  PAW double counting   =     13005.91842338   -12176.38476214
  entropy T*S    EENTRO =         0.00402714
  eigenvalues    EBANDS =       881.81296367
  atomic energy  EATOM  =      8465.11600846
  ---------------------------------------------------
  free energy    TOTEN  =      -236.48135021 eV

  energy without entropy =     -236.48537735  energy(sigma->0) =     -236.48269259


--------------------------------------------------------------------------------------------------------




--------------------------------------- Iteration      1(  19)  ---------------------------------------


    POTLOK:  cpu time    0.2475: real time    0.2475
    SETDIJ:  cpu time    0.3221: real time    0.3222
    TRIAL :  cpu time   10.7155: real time   11.4289
    CORREC:  cpu time    3.6779: real time    3.7250
    CHARGE:  cpu time    1.1850: real time    1.1859
    --------------------------------------------
      LOOP:  cpu time   16.1503: real time   16.9119

 eigenvalue-minimisations  :     0
 total energy-change (2. order) :-0.7305317E-01  (-0.2967346E-01)
 number of electron     179.9999996 magnetization      18.3166685
 augmentation part       57.9197250 magnetization      12.7882148

 Free energy of the ion-electron system (eV)
  ---------------------------------------------------
  alpha Z        PSCENC =       532.25742704
  Ewald energy   TEWEN  =     -8601.05107233
  -Hartree energ DENC   =     -1668.51225390
  -exchange      EXHF   =         0.00000000
  -V(xc)+E(xc)   XCENC  =      -666.03135494
  PAW double counting   =     12985.07346723   -12153.66244441
  entropy T*S    EENTRO =         0.00418034
  eigenvalues    EBANDS =       870.25179231
  atomic energy  EATOM  =      8465.11600846
  ---------------------------------------------------
  free energy    TOTEN  =      -236.55440339 eV

  energy without entropy =     -236.55858373  energy(sigma->0) =     -236.55579683


--------------------------------------------------------------------------------------------------------




--------------------------------------- Iteration      1(  20)  ---------------------------------------


    POTLOK:  cpu time    0.2478: real time    0.2479
    SETDIJ:  cpu time    0.3212: real time    0.3216
    TRIAL :  cpu time   10.6996: real time   12.0925
    CORREC:  cpu time    3.7291: real time    3.7519
    CHARGE:  cpu time    1.1751: real time    1.1757
    --------------------------------------------
      LOOP:  cpu time   16.2193: real time   17.6366

 eigenvalue-minimisations  :     0
 total energy-change (2. order) :-0.2963577E-01  (-0.4145310E-01)
 number of electron     179.9999996 magnetization      18.2733042
 augmentation part       57.8795493 magnetization      12.8094818

 Free energy of the ion-electron system (eV)
  ---------------------------------------------------
  alpha Z        PSCENC =       532.25742704
  Ewald energy   TEWEN  =     -8601.05107233
  -Hartree energ DENC   =     -1662.57709035
  -exchange      EXHF   =         0.00000000
  -V(xc)+E(xc)   XCENC  =      -666.17849312
  PAW double counting   =     12977.69315895   -12145.04620138
  entropy T*S    EENTRO =         0.00404026
  eigenvalues    EBANDS =       863.19804324
  atomic energy  EATOM  =      8465.11600846
  ---------------------------------------------------
  free energy    TOTEN  =      -236.58403916 eV

  energy without entropy =     -236.58807941  energy(sigma->0) =     -236.58538591


--------------------------------------------------------------------------------------------------------




--------------------------------------- Iteration      1(  21)  ---------------------------------------


    POTLOK:  cpu time    0.2471: real time    0.2471
    SETDIJ:  cpu time    0.3248: real time    0.3249
    TRIAL :  cpu time   10.6191: real time   11.3841
    CORREC:  cpu time    3.6579: real time    3.6987
    CHARGE:  cpu time    1.0930: real time    1.1835
    --------------------------------------------
      LOOP:  cpu time   15.9432: real time   16.8402

 eigenvalue-minimisations  :     0
 total energy-change (2. order) :-0.4147646E-01  (-0.1654764E-01)
 number of electron     179.9999996 magnetization      18.2622670
 augmentation part       57.9479301 magnetization      12.8221205

 Free energy of the ion-electron system (eV)
  ---------------------------------------------------
  alpha Z        PSCENC =       532.25742704
  Ewald energy   TEWEN  =     -8601.05107233
  -Hartree energ DENC   =     -1662.65022228
  -exchange      EXHF   =         0.00000000
  -V(xc)+E(xc)   XCENC  =      -666.05963661
  PAW double counting   =     12985.44725174   -12152.79514875
  entropy T*S    EENTRO =         0.00419548
  eigenvalues    EBANDS =       863.10583686
  atomic energy  EATOM  =      8465.11600846
  ---------------------------------------------------
  free energy    TOTEN  =      -236.62551562 eV

  energy without entropy =     -236.62971110  energy(sigma->0) =     -236.62691411


--------------------------------------------------------------------------------------------------------




--------------------------------------- Iteration      1(  22)  ---------------------------------------


    POTLOK:  cpu time    0.2479: real time    0.2481
    SETDIJ:  cpu time    0.3372: real time    0.3376
    TRIAL :  cpu time   10.7120: real time   11.4332
    CORREC:  cpu time    3.7265: real time    3.7289
    CHARGE:  cpu time    1.1826: real time    1.1833
    --------------------------------------------
      LOOP:  cpu time   16.2075: real time   16.9334

 eigenvalue-minimisations  :     0
 total energy-change (2. order) :-0.1655884E-01  (-0.7365565E-02)
 number of electron     179.9999996 magnetization      18.2435178
 augmentation part       57.9941983 magnetization      12.8186555

 Free energy of the ion-electron system (eV)
  ---------------------------------------------------
  alpha Z        PSCENC =       532.25742704
  Ewald energy   TEWEN  =     -8601.05107233
  -Hartree energ DENC   =     -1667.23636034
  -exchange      EXHF   =         0.00000000
  -V(xc)+E(xc)   XCENC  =      -665.84315887
  PAW double counting   =     12995.82495125   -12164.12512169
  entropy T*S    EENTRO =         0.00399482
  eigenvalues    EBANDS =       868.41105653
  atomic energy  EATOM  =      8465.11600846
  ---------------------------------------------------
  free energy    TOTEN  =      -236.64207447 eV

  energy without entropy =     -236.64606929  energy(sigma->0) =     -236.64340607


--------------------------------------------------------------------------------------------------------




--------------------------------------- Iteration      1(  23)  ---------------------------------------


    POTLOK:  cpu time    0.2479: real time    0.2479
    SETDIJ:  cpu time    0.3224: real time    0.3224
    TRIAL :  cpu time   10.2887: real time   11.7102
    CORREC:  cpu time    3.7457: real time    3.7614
    CHARGE:  cpu time    1.1355: real time    1.1360
    --------------------------------------------
[...]
  8.441  14.385   0.000   0.000   0.000   0.000   0.000   0.000
 14.385  24.515   0.000   0.000   0.000   0.000   0.000   0.000
  0.000   0.000   1.996  -0.000  -0.000   5.750  -0.000  -0.000
  0.000   0.000  -0.000   1.996   0.000  -0.000   5.749   0.000
  0.000   0.000  -0.000   0.000   1.996  -0.000   0.000   5.750
  0.000   0.000   5.750  -0.000  -0.000  16.479  -0.000  -0.000
  0.000   0.000  -0.000   5.749   0.000  -0.000  16.475   0.000
  0.000   0.000  -0.000   0.000   5.750  -0.000   0.000  16.480
 total augmentation occupancy for first ion, spin component:           1
  4.365  -1.244  -0.001  -0.000  -0.003   0.000  -0.000   0.000
 -1.244   0.374   0.000  -0.000   0.001  -0.000  -0.000  -0.000
 -0.001   0.000   1.415  -0.004  -0.002  -0.101   0.000   0.000
 -0.000  -0.000  -0.004   1.511  -0.010   0.000  -0.102   0.000
 -0.003   0.001  -0.002  -0.010   1.387   0.000   0.000  -0.099
  0.000  -0.000  -0.101   0.000   0.000   0.008  -0.000   0.000
 -0.000  -0.000   0.000  -0.102   0.000  -0.000   0.007  -0.000
  0.000  -0.000   0.000   0.000  -0.099   0.000  -0.000   0.007
 total augmentation occupancy for first ion, spin component:           2
 -0.168   0.052  -0.017  -0.022  -0.018   0.001   0.001   0.001
  0.052  -0.016  -0.002  -0.004  -0.002   0.000   0.000   0.000
 -0.017  -0.002  -0.073   0.022   0.013   0.004  -0.000  -0.000
 -0.022  -0.004   0.022  -0.114   0.022  -0.000   0.005  -0.000
 -0.018  -0.002   0.013   0.022  -0.048  -0.000  -0.000   0.003
  0.001   0.000   0.004  -0.000  -0.000  -0.000  -0.000  -0.000
  0.001   0.000  -0.000   0.005  -0.000  -0.000  -0.000  -0.000
  0.001   0.000  -0.000  -0.000   0.003  -0.000  -0.000  -0.000


------------------------ aborting loop because EDIFF is reached ----------------------------------------


 


 total charge     
 
# of ion       s       p       d       tot
------------------------------------------
    1        0.406   0.426   0.000   0.832
    2        0.406   0.426   0.000   0.832
    3        0.404   0.424   0.000   0.828
    4        0.404   0.424   0.000   0.827
    5        0.404   0.427   0.000   0.831
    6        0.404   0.427   0.000   0.831
    7        0.405   0.426   0.000   0.831
    8        0.405   0.426   0.000   0.831
    9        0.404   0.428   0.000   0.832
   10        0.404   0.428   0.000   0.832
   11        0.405   0.428   0.000   0.833
   12        0.405   0.428   0.000   0.833
   13        0.406   0.426   0.000   0.832
   14        0.406   0.426   0.000   0.832
   15        0.405   0.428   0.000   0.833
   16        0.405   0.428   0.000   0.833
   17        0.405   0.428   0.000   0.833
   18        0.405   0.427   0.000   0.833
   19        0.335   0.353   5.135   5.823
   20        0.334   0.352   5.137   5.823
   21        0.334   0.352   5.141   5.826
   22        0.332   0.351   5.146   5.829
   23        0.335   0.349   5.138   5.822
   24        0.333   0.356   5.135   5.824
   25        0.336   0.354   5.126   5.816
   26        0.336   0.355   5.128   5.818
   27        0.334   0.356   5.131   5.820
   28        0.334   0.352   5.139   5.824
   29        0.334   0.355   5.131   5.821
   30        0.335   0.352   5.132   5.819
   31        0.333   0.350   5.142   5.825
   32        0.335   0.354   5.128   5.817
   33        0.333   0.351   5.143   5.826
   34        0.335   0.354   5.132   5.821
   35        0.332   0.358   5.126   5.816
   36        0.332   0.351   5.142   5.825
--------------------------------------------------
tot         13.301  14.033  92.430 119.764
 


 magnetization (x)
 
# of ion       s       p       d       tot
------------------------------------------
    1       -0.013  -0.025   0.000  -0.038
    2       -0.013  -0.025   0.000  -0.038
    3       -0.020  -0.033   0.000  -0.053
    4       -0.021  -0.033   0.000  -0.053
    5       -0.016  -0.026   0.000  -0.042
    6       -0.016  -0.026   0.000  -0.042
    7       -0.002  -0.000   0.000  -0.002
    8       -0.002  -0.000   0.000  -0.002
    9       -0.011  -0.020   0.000  -0.031
   10       -0.011  -0.020   0.000  -0.031
   11       -0.010  -0.019   0.000  -0.029
   12       -0.010  -0.019   0.000  -0.029
   13        0.002   0.009   0.000   0.011
   14        0.002   0.009   0.000   0.011
   15       -0.009  -0.020   0.000  -0.029
   16       -0.009  -0.020   0.000  -0.029
   17       -0.006  -0.011   0.000  -0.016
   18       -0.006  -0.010   0.000  -0.016
   19        0.021   0.021   2.301   2.343
   20        0.019   0.014   2.312   2.345
   21        0.007   0.020   2.223   2.250
   22        0.004   0.010   2.173   2.188
   23        0.025   0.014   2.426   2.465
   24        0.027   0.024   2.228   2.280
   25       -0.028  -0.012  -2.459  -2.499
   26       -0.030  -0.019  -2.370  -2.419
   27        0.033   0.025   2.373   2.432
   28        0.031   0.015   2.353   2.399
   29       -0.024  -0.019  -2.264  -2.307
   30       -0.021  -0.009  -2.420  -2.449
   31        0.024   0.013   2.319   2.357
   32        0.030   0.026   2.444   2.500
   33        0.010   0.010   2.242   2.263
   34        0.015   0.022   2.309   2.346
   35        0.016   0.026   2.266   2.309
   36       -0.023  -0.023  -2.235  -2.281
--------------------------------------------------
tot         -0.031  -0.129  18.224  18.064
 
    FORLOC:  cpu time    0.0285: real time    0.0285
    FORNL :  cpu time   14.6064: real time   15.1298
    STRESS:  cpu time   19.9308: real time   21.0382
    FORCOR:  cpu time    0.2813: real time    0.2815
    OFIELD:  cpu time    0.0016: real time    0.0016

  FORCE on cell =-STRESS in cart. coord.  units (eV):
  Direction    XX          YY          ZZ          XY          YZ          ZX
  --------------------------------------------------------------------------------------
  Alpha Z   532.25743   532.25743   532.25743
  Ewald   -2702.40749 -2702.40749 -3196.26924    -0.00000    -0.00000    -0.00000
  Hartree   719.30457   721.30193   227.40163     0.14440    -0.00000    -0.00000
  E(xc)    -760.07502  -760.46768  -760.70308    -0.06862    -0.00000     0.00000
  Local     254.55810   249.16726  1258.23257    -0.43576    -0.00000     0.00000
  n-local  -111.93252  -113.05061  -120.08035     0.04323    -0.42593    -0.02998
  augment   519.93130   521.67833   515.46521     0.15269     0.00001     0.00001
  Kinetic  1551.83474  1555.62818  1547.07741     0.78017     1.54943     0.07159
  Fock        0.00000     0.00000     0.00000     0.00000     0.00000     0.00000
  -------------------------------------------------------------------------------------
  Total       3.47110     4.10732     3.38156     0.61611     0.00000     0.00000
  in kB      11.75072    13.90454    11.44763     2.08573     0.00000     0.00000
  external pressure =       12.37 kB  Pullay stress =        0.00 kB


 VOLUME and BASIS-vectors are now :
 -----------------------------------------------------------------------------
  energy-cutoff  :      404.80
  volume of cell :      473.27
      direct lattice vectors                 reciprocal lattice vectors
     8.250148166  0.000000000  0.000000000     0.121209944  0.000000000  0.000000000
     0.000000000  8.250148166  0.000000000     0.000000000  0.121209944  0.000000000
     0.000000000  0.000000000  6.953274261     0.000000000  0.000000000  0.143817137

  length of vectors
     8.250148166  8.250148166  6.953274261     0.121209944  0.121209944  0.143817137


 FORCES acting on ions:
    Electron-Ion                     Ewald-Force                    Non-Local-Force
 -----------------------------------------------------------------------------------------------
   -.311E-02 -.292E-02 0.323E-01   -.239E-08 -.239E-08 0.411E-08   0.464E-01 0.354E-01 0.196E-01
   -.311E-02 -.292E-02 -.323E-01   -.239E-08 -.239E-08 0.411E-08   0.464E-01 0.354E-01 -.196E-01
   0.174E-01 0.831E-02 -.868E-02   -.239E-08 -.802E-09 0.411E-08   -.253E-01 -.172E-01 -.167E-02
   0.174E-01 0.831E-02 0.868E-02   -.239E-08 -.802E-09 0.411E-08   -.253E-01 -.172E-01 0.167E-02
   0.308E-01 0.427E-02 0.606E-01   -.239E-08 0.631E-08 0.411E-08   0.437E-01 -.481E-01 0.240E-01
   0.308E-01 0.427E-02 -.606E-01   -.239E-08 0.631E-08 0.411E-08   0.437E-01 -.481E-01 -.240E-01
   -.550E-01 -.599E-01 -.857E-02   -.802E-09 -.239E-08 0.411E-08   0.122E+00 0.143E-01 -.121E-01
   -.550E-01 -.599E-01 0.857E-02   -.802E-09 -.239E-08 0.411E-08   0.122E+00 0.143E-01 0.121E-01
   -.510E-02 0.844E-02 0.187E-01   -.802E-09 -.802E-09 0.411E-08   -.421E-01 0.549E-01 -.369E-01
   -.510E-02 0.844E-02 -.187E-01   -.802E-09 -.802E-09 0.411E-08   -.421E-01 0.549E-01 0.369E-01
   0.144E-01 0.558E-01 -.200E-01   -.802E-09 0.631E-08 0.411E-08   -.446E-01 -.637E-01 0.643E-03
   0.144E-01 0.558E-01 0.200E-01   -.802E-09 0.631E-08 0.411E-08   -.446E-01 -.637E-01 -.643E-03
   0.670E-01 0.475E-01 0.108E-01   0.631E-08 -.239E-08 0.411E-08   -.184E+00 -.577E-01 -.241E-01
   0.670E-01 0.475E-01 -.108E-01   0.631E-08 -.239E-08 0.411E-08   -.184E+00 -.577E-01 0.241E-01
   0.962E-02 -.321E-01 0.929E-02   0.631E-08 -.802E-09 0.411E-08   0.214E-01 0.532E-01 -.311E-02
   0.962E-02 -.321E-01 -.929E-02   0.631E-08 -.802E-09 0.411E-08   0.214E-01 0.532E-01 0.311E-02
   -.592E-01 -.567E-02 -.289E-01   0.631E-08 0.631E-08 0.411E-08   0.180E-01 -.117E-01 0.339E-01
   -.592E-01 -.567E-02 0.289E-01   0.631E-08 0.631E-08 0.411E-08   0.180E-01 -.117E-01 -.339E-01
   -.149E+00 0.118E-02 -.257E-08   -.169E-07 -.169E-07 -.411E-08   0.827E-01 0.351E-01 0.000E+00
   -.210E+00 -.300E-02 -.234E-08   -.169E-07 -.169E-07 -.411E-08   0.148E+00 0.463E-01 0.000E+00
   0.223E+00 0.513E-01 -.207E-08   -.169E-07 0.802E-09 -.411E-08   -.264E+00 -.646E-01 0.000E+00
   0.215E+00 0.892E-01 -.259E-08   -.169E-07 0.802E-09 -.411E-08   -.272E+00 -.908E-01 0.000E+00
   -.157E+00 -.624E-01 -.427E-10   -.169E-07 0.130E-07 -.411E-08   0.360E-01 0.349E-01 0.000E+00
   0.207E+00 -.647E-01 -.353E-08   -.169E-07 0.130E-07 -.411E-08   -.182E+00 0.185E-01 0.000E+00
   0.681E-01 -.546E+00 -.196E-08   0.802E-09 -.169E-07 -.411E-08   -.761E-01 0.297E+00 0.000E+00
   -.358E-01 -.680E+00 -.175E-08   0.802E-09 -.169E-07 -.411E-08   0.630E-01 0.403E+00 0.000E+00
   -.132E-01 -.495E-01 -.148E-08   0.802E-09 0.802E-09 -.411E-08   0.197E-02 0.362E-01 0.000E+00
   -.987E-01 0.679E-01 -.203E-08   0.802E-09 0.802E-09 -.411E-08   0.421E-01 -.122E+00 0.000E+00
   -.134E+00 0.528E+00 0.563E-09   0.802E-09 0.130E-07 -.411E-08   0.114E+00 -.250E+00 0.000E+00
   0.386E+00 0.502E+00 -.309E-08   0.802E-09 0.130E-07 -.411E-08   -.256E+00 -.323E+00 0.000E+00
   0.176E+00 0.616E-01 -.249E-08   0.130E-07 -.169E-07 -.411E-08   -.434E-01 -.846E-01 0.000E+00
   0.362E+00 0.538E+00 -.279E-08   0.130E-07 -.169E-07 -.411E-08   -.217E+00 -.254E+00 0.000E+00
   -.217E+00 0.848E-01 -.201E-08   0.130E-07 0.802E-09 -.411E-08   0.300E+00 0.718E-03 0.000E+00
   -.969E-01 -.447E+00 -.304E-08   0.130E-07 0.802E-09 -.411E-08   0.128E+00 0.330E+00 0.000E+00
   0.100E+00 -.105E+00 -.139E-09   0.130E-07 0.130E-07 -.411E-08   -.573E-02 0.567E-01 0.000E+00
   -.571E+00 0.490E-01 -.412E-08   0.130E-07 0.130E-07 -.411E-08   0.392E+00 -.545E-01 0.000E+00
 -----------------------------------------------------------------------------------------------
   0.972E-01 0.657E-01 -.747E-07   -.197E-14 0.275E-13 0.265E-14   -.972E-01 -.657E-01 0.000E+00
 
 
 POSITION                                       TOTAL-FORCE (eV/Angst)
 -----------------------------------------------------------------------------------
      0.00000      0.00000      0.00000         0.038374      0.028746      0.049461
      0.00000      0.00000      3.47664         0.038374      0.028746     -0.049461
      0.00000      2.75005      0.00000        -0.005862     -0.007666     -0.010561
      0.00000      2.75005      3.47664        -0.005862     -0.007666      0.010561
      0.00000      5.50010      0.00000         0.070091     -0.039040      0.081885
      0.00000      5.50010      3.47664         0.070091     -0.039040     -0.081885
      2.75005      0.00000      0.00000         0.057395     -0.047218     -0.019813
      2.75005      0.00000      3.47664         0.057395     -0.047218      0.019813
      2.75005      2.75005      0.00000        -0.043535      0.058103     -0.015057
      2.75005      2.75005      3.47664        -0.043535      0.058103      0.015057
      2.75005      5.50010      0.00000        -0.025852     -0.001349     -0.019371
      2.75005      5.50010      3.47664        -0.025852     -0.001349      0.019371
      5.50010      0.00000      0.00000        -0.101390     -0.005734     -0.011370
      5.50010      0.00000      3.47664        -0.101390     -0.005734      0.011370
      5.50010      2.75005      0.00000         0.029063      0.015735      0.006078
      5.50010      2.75005      3.47664         0.029063      0.015735     -0.006078
      5.50010      5.50010      0.00000        -0.042774     -0.015109      0.001773
      5.50010      5.50010      3.47664        -0.042774     -0.015109     -0.001773
      1.37502      1.37502      1.73832        -0.067541      0.035386      0.000000
      1.37502      1.37502      5.21496        -0.065857      0.044800      0.000000
      1.37502      4.12507      1.73832        -0.037294     -0.011834      0.000000
      1.37502      4.12507      5.21496        -0.054974     -0.001483      0.000000
      1.37502      6.87512      1.73832        -0.124024     -0.028590      0.000000
      1.37502      6.87512      5.21496         0.027456     -0.046868      0.000000
      4.12507      1.37502      1.73832        -0.004675     -0.263614      0.000000
      4.12507      1.37502      5.21496         0.028943     -0.294478      0.000000
      4.12507      4.12507      1.73832        -0.012093     -0.016525      0.000000
      4.12507      4.12507      5.21496        -0.057269     -0.053712      0.000000
      4.12507      6.87512      1.73832        -0.021809      0.290220      0.000000
      4.12507      6.87512      5.21496         0.139103      0.190634      0.000000
      6.87512      1.37502      1.73832         0.134458     -0.019416      0.000000
      6.87512      1.37502      5.21496         0.152471      0.296681      0.000000
      6.87512      4.12507      1.73832         0.079502      0.083856      0.000000
      6.87512      4.12507      5.21496         0.031517     -0.127314      0.000000
      6.87512      6.87512      1.73832         0.091258     -0.050104      0.000000
      6.87512      6.87512      5.21496        -0.190194     -0.000576      0.000000
 -----------------------------------------------------------------------------------
    total drift:                                0.000018      0.000026     -0.000000


--------------------------------------------------------------------------------------------------------



  FREE ENERGIE OF THE ION-ELECTRON SYSTEM (eV)
  ---------------------------------------------------
  free  energy   TOTEN  =      -236.67352596 eV

  energy  without entropy=     -236.67774705  energy(sigma->0) =     -236.67493299
 


--------------------------------------------------------------------------------------------------------


    POTLOK:  cpu time    0.5799: real time    0.5803


--------------------------------------------------------------------------------------------------------


     LOOP+:  cpu time 1133.1035: real time 1197.0991
    4ORBIT:  cpu time    0.0000: real time    0.0000
 


 total charge     
 
# of ion       s       p       d       tot
------------------------------------------
    1        0.406   0.426   0.000   0.832
    2        0.406   0.426   0.000   0.832
    3        0.404   0.424   0.000   0.828
    4        0.404   0.424   0.000   0.827
    5        0.404   0.427   0.000   0.831
    6        0.404   0.427   0.000   0.831
    7        0.405   0.426   0.000   0.831
    8        0.405   0.426   0.000   0.831
    9        0.404   0.428   0.000   0.832
   10        0.404   0.428   0.000   0.832
   11        0.405   0.428   0.000   0.833
   12        0.405   0.428   0.000   0.833
   13        0.406   0.426   0.000   0.832
   14        0.406   0.426   0.000   0.832
   15        0.405   0.428   0.000   0.833
   16        0.405   0.428   0.000   0.833
   17        0.405   0.428   0.000   0.833
   18        0.405   0.427   0.000   0.833
   19        0.335   0.353   5.135   5.823
   20        0.334   0.352   5.137   5.823
   21        0.334   0.352   5.141   5.826
   22        0.332   0.351   5.146   5.829
   23        0.335   0.349   5.138   5.822
   24        0.333   0.356   5.135   5.824
   25        0.336   0.354   5.126   5.816
   26        0.336   0.355   5.128   5.818
   27        0.334   0.356   5.131   5.820
   28        0.334   0.352   5.139   5.824
   29        0.334   0.355   5.131   5.821
   30        0.335   0.352   5.132   5.819
   31        0.333   0.350   5.142   5.825
   32        0.335   0.354   5.128   5.817
   33        0.333   0.351   5.143   5.826
   34        0.335   0.354   5.132   5.821
   35        0.332   0.358   5.126   5.816
   36        0.332   0.351   5.142   5.825
--------------------------------------------------
tot         13.301  14.033  92.430 119.764
 


 magnetization (x)
 
# of ion       s       p       d       tot
------------------------------------------
    1       -0.013  -0.025   0.000  -0.038
    2       -0.013  -0.025   0.000  -0.038
    3       -0.020  -0.033   0.000  -0.053
    4       -0.021  -0.033   0.000  -0.053
    5       -0.016  -0.026   0.000  -0.042
    6       -0.016  -0.026   0.000  -0.042
    7       -0.002  -0.000   0.000  -0.002
    8       -0.002  -0.000   0.000  -0.002
    9       -0.011  -0.020   0.000  -0.031
   10       -0.011  -0.020   0.000  -0.031
   11       -0.010  -0.019   0.000  -0.029
   12       -0.010  -0.019   0.000  -0.029
   13        0.002   0.009   0.000   0.011
   14        0.002   0.009   0.000   0.011
   15       -0.009  -0.020   0.000  -0.029
   16       -0.009  -0.020   0.000  -0.029
   17       -0.006  -0.011   0.000  -0.016
   18       -0.006  -0.010   0.000  -0.016
   19        0.021   0.021   2.301   2.343
   20        0.019   0.014   2.312   2.345
   21        0.007   0.020   2.223   2.250
   22        0.004   0.010   2.173   2.188
   23        0.025   0.014   2.426   2.465
   24        0.027   0.024   2.228   2.280
   25       -0.028  -0.012  -2.459  -2.499
   26       -0.030  -0.019  -2.370  -2.419
   27        0.033   0.025   2.373   2.432
   28        0.031   0.015   2.353   2.399
   29       -0.024  -0.019  -2.264  -2.307
   30       -0.021  -0.009  -2.420  -2.449
   31        0.024   0.013   2.319   2.357
   32        0.030   0.026   2.444   2.500
   33        0.010   0.010   2.242   2.263
   34        0.015   0.022   2.309   2.346
   35        0.016   0.026   2.266   2.309
   36       -0.023  -0.023  -2.235  -2.281
--------------------------------------------------
tot         -0.031  -0.129  18.224  18.064
 

 total amount of memory used by VASP MPI-rank0   809947. kBytes
=======================================================================

   base      :      30000. kBytes
   nonl-proj :      34307. kBytes
   fftplans  :      21726. kBytes
   grid      :      14732. kBytes
   one-center:        279. kBytes
   wavefun   :     708903. kBytes
 
  
  
 General timing and accounting informations for this job:
 ========================================================
  
                  Total CPU time used (sec):     1161.665
                            User time (sec):     1140.086
                          System time (sec):       21.579
                         Elapsed time (sec):     1230.681
  
                   Maximum memory used (kb):      955436.
                   Average memory used (kb):           0.
  
                          Minor page faults:       361190
                          Major page faults:           18
                 Voluntary context switches:         3512
