<?xml version="1.0" encoding="ISO-8859-1"?>
<modeling>
 <generator>
  <i name="program" type="string">vasp </i>
  <i name="version" type="string">5.4.4.18Apr17-6-g9f103f2a35  </i>
  <i name="subversion" type="string">(build Dec 13 2018 10:28:32) complex            parallel </i>
  <i name="platform" type="string">LinuxIFC </i>
  <i name="date" type="string">2019 06 10 </i>
  <i name="time" type="string">13:37:25 </i>
 </generator>
 <incar>
  <i type="string" name="SYSTEM"> BCC_IRON</i>
  <i type="string" name="PREC">accurate</i>
  <i type="int" name="ISPIN">     2</i>
  <i type="int" name="NELM">   100</i>
  <i name="EDIFF">      0.00000010</i>
  <i name="ENCUT">    349.00000000</i>
  <v name="MAGMOM">     -2.17400000     -2.17400000</v>
  <i type="logical" name="LREAL"> F  </i>
  <i type="int" name="ISMEAR">     1</i>
  <i name="SIGMA">      0.01000000</i>
  <i type="logical" name="LWAVE"> F  </i>
  <i type="logical" name="LCHARG"> F  </i>
  <i type="int" name="LORBIT">    11</i>
  <v type="int" name="KPOINT_BSE">    -1     0     0     0</v>
  <i type="int" name="NELM">   100</i>
 </incar>
 <structure name="primitive_cell" >
  <crystal>
   <varray name="basis" >
    <v>       1.41450444       1.41450444       1.41450444 </v>
    <v>       1.41450444      -1.41450444      -1.41450444 </v>
    <v>      -1.41450444       1.41450444      -1.41450444 </v>
   </varray>
   <i name="volume">     11.32069102 </i>
   <varray name="rec_basis" >
    <v>       0.35348069       0.35348069       0.00000000 </v>
    <v>       0.35348069       0.00000000      -0.35348069 </v>
    <v>       0.00000000       0.35348069      -0.35348069 </v>
   </varray>
  </crystal>
  <varray name="positions" >
   <v>       0.00000000       0.00000000       0.00000000 </v>
  </varray>
 </structure>
 <varray name="primitive_index" >
  <v type="int" >        1 </v>
 </varray>
 <kpoints>
  <generation param="Auto">
   <i name="subdivisionlength">     40.00000000 </i>
   <v type="int" name="divisions">      14       14       14 </v>
   <v name="usershift">      0.00000000       0.00000000       0.00000000 </v>
   <v name="genvec1">      0.07142857       0.00000000       0.00000000 </v>
   <v name="genvec2">      0.00000000       0.07142857       0.00000000 </v>
   <v name="genvec3">      0.00000000       0.00000000       0.07142857 </v>
   <v name="shift">      0.00000000       0.00000000       0.00000000 </v>
  </generation>
  <varray name="kpointlist" >
   <v>       0.00000000       0.00000000       0.00000000 </v>
   <v>       0.07142857       0.00000000       0.00000000 </v>
   <v>       0.14285714       0.00000000       0.00000000 </v>
   <v>       0.21428571       0.00000000       0.00000000 </v>
   <v>       0.28571429       0.00000000       0.00000000 </v>
   <v>       0.35714286       0.00000000       0.00000000 </v>
   <v>       0.42857143       0.00000000       0.00000000 </v>
   <v>       0.50000000       0.00000000       0.00000000 </v>
   <v>       0.07142857       0.07142857       0.00000000 </v>
   <v>       0.14285714       0.07142857       0.00000000 </v>
   <v>       0.21428571       0.07142857       0.00000000 </v>
   <v>       0.28571429       0.07142857       0.00000000 </v>
   <v>       0.35714286       0.07142857       0.00000000 </v>
   <v>       0.42857143       0.07142857       0.00000000 </v>
   <v>       0.50000000       0.07142857       0.00000000 </v>
   <v>       0.14285714       0.14285714       0.00000000 </v>
   <v>       0.21428571       0.14285714       0.00000000 </v>
   <v>       0.28571429       0.14285714       0.00000000 </v>
   <v>       0.35714286       0.14285714       0.00000000 </v>
   <v>       0.42857143       0.14285714       0.00000000 </v>
   <v>       0.50000000       0.14285714       0.00000000 </v>
   <v>       0.21428571       0.21428571       0.00000000 </v>
   <v>       0.28571429       0.21428571       0.00000000 </v>
   <v>       0.35714286       0.21428571       0.00000000 </v>
   <v>       0.42857143       0.21428571       0.00000000 </v>
   <v>       0.50000000       0.21428571       0.00000000 </v>
   <v>       0.28571429       0.28571429       0.00000000 </v>
   <v>       0.35714286       0.28571429       0.00000000 </v>
   <v>       0.42857143       0.28571429       0.00000000 </v>
   <v>       0.50000000       0.28571429       0.00000000 </v>
   <v>       0.35714286       0.35714286       0.00000000 </v>
   <v>       0.42857143       0.35714286       0.00000000 </v>
   <v>       0.50000000       0.35714286       0.00000000 </v>
   <v>       0.42857143       0.42857143       0.00000000 </v>
   <v>       0.50000000       0.42857143       0.00000000 </v>
   <v>       0.50000000       0.50000000       0.00000000 </v>
   <v>       0.07142857       0.07142857       0.07142857 </v>
   <v>       0.14285714       0.07142857       0.07142857 </v>
   <v>       0.21428571       0.07142857       0.07142857 </v>
   <v>       0.28571429       0.07142857       0.07142857 </v>
   <v>       0.35714286       0.07142857       0.07142857 </v>
   <v>       0.42857143       0.07142857       0.07142857 </v>
   <v>       0.50000000       0.07142857       0.07142857 </v>
   <v>       0.14285714       0.14285714       0.07142857 </v>
   <v>       0.21428571       0.14285714       0.07142857 </v>
   <v>       0.28571429       0.14285714       0.07142857 </v>
   <v>       0.35714286       0.14285714       0.07142857 </v>
   <v>       0.42857143       0.14285714       0.07142857 </v>
   <v>       0.50000000       0.14285714       0.07142857 </v>
   <v>       0.21428571       0.21428571       0.07142857 </v>
   <v>       0.28571429       0.21428571       0.07142857 </v>
   <v>       0.35714286       0.21428571       0.07142857 </v>
   <v>       0.42857143       0.21428571       0.07142857 </v>
   <v>       0.50000000       0.21428571       0.07142857 </v>
   <v>       0.28571429       0.28571429       0.07142857 </v>
   <v>       0.35714286       0.28571429       0.07142857 </v>
   <v>       0.42857143       0.28571429       0.07142857 </v>
   <v>       0.50000000       0.28571429       0.07142857 </v>
   <v>       0.35714286       0.35714286       0.07142857 </v>
   <v>       0.42857143       0.35714286       0.07142857 </v>
   <v>       0.50000000       0.35714286       0.07142857 </v>
   <v>       0.42857143       0.42857143       0.07142857 </v>
   <v>       0.50000000       0.42857143       0.07142857 </v>
   <v>       0.50000000       0.50000000       0.07142857 </v>
   <v>       0.14285714       0.14285714       0.14285714 </v>
   <v>       0.21428571       0.14285714       0.14285714 </v>
   <v>       0.28571429       0.14285714       0.14285714 </v>
   <v>       0.35714286       0.14285714       0.14285714 </v>
   <v>       0.42857143       0.14285714       0.14285714 </v>
   <v>       0.50000000       0.14285714       0.14285714 </v>
   <v>       0.21428571       0.21428571       0.14285714 </v>
   <v>       0.28571429       0.21428571       0.14285714 </v>
   <v>       0.35714286       0.21428571       0.14285714 </v>
   <v>       0.42857143       0.21428571       0.14285714 </v>
   <v>       0.50000000       0.21428571       0.14285714 </v>
   <v>       0.28571429       0.28571429       0.14285714 </v>
   <v>       0.35714286       0.28571429       0.14285714 </v>
   <v>       0.42857143       0.28571429       0.14285714 </v>
   <v>       0.50000000       0.28571429       0.14285714 </v>
   <v>       0.35714286       0.35714286       0.14285714 </v>
   <v>       0.42857143       0.35714286       0.14285714 </v>
   <v>       0.50000000       0.35714286       0.14285714 </v>
   <v>       0.42857143       0.42857143       0.14285714 </v>
   <v>       0.50000000       0.42857143       0.14285714 </v>
   <v>       0.50000000       0.50000000       0.14285714 </v>
   <v>       0.21428571       0.21428571       0.21428571 </v>
   <v>       0.28571429       0.21428571       0.21428571 </v>
   <v>       0.35714286       0.21428571       0.21428571 </v>
   <v>       0.42857143       0.21428571       0.21428571 </v>
   <v>       0.50000000       0.21428571       0.21428571 </v>
   <v>       0.28571429       0.28571429       0.21428571 </v>
   <v>       0.35714286       0.28571429       0.21428571 </v>
   <v>       0.42857143       0.28571429       0.21428571 </v>
   <v>       0.50000000       0.28571429       0.21428571 </v>
   <v>       0.35714286       0.35714286       0.21428571 </v>
   <v>       0.42857143       0.35714286       0.21428571 </v>
   <v>       0.50000000       0.35714286       0.21428571 </v>
   <v>       0.42857143       0.42857143       0.21428571 </v>
   <v>       0.50000000       0.42857143       0.21428571 </v>
   <v>       0.50000000       0.50000000       0.21428571 </v>
   <v>       0.28571429       0.28571429       0.28571429 </v>
   <v>       0.35714286       0.28571429       0.28571429 </v>
   <v>       0.42857143       0.28571429       0.28571429 </v>
   <v>       0.50000000       0.28571429       0.28571429 </v>
   <v>       0.35714286       0.35714286       0.28571429 </v>
   <v>       0.42857143       0.35714286       0.28571429 </v>
   <v>       0.50000000       0.35714286       0.28571429 </v>
   <v>       0.42857143       0.42857143       0.28571429 </v>
   <v>       0.50000000       0.42857143       0.28571429 </v>
   <v>       0.50000000       0.50000000       0.28571429 </v>
   <v>       0.35714286       0.35714286       0.35714286 </v>
   <v>       0.42857143       0.35714286       0.35714286 </v>
   <v>       0.50000000       0.35714286       0.35714286 </v>
   <v>       0.42857143       0.42857143       0.35714286 </v>
   <v>       0.50000000       0.42857143       0.35714286 </v>
   <v>       0.50000000       0.50000000       0.35714286 </v>
   <v>       0.42857143       0.42857143       0.42857143 </v>
   <v>       0.50000000       0.42857143       0.42857143 </v>
   <v>       0.50000000       0.50000000       0.42857143 </v>
   <v>       0.50000000       0.50000000       0.50000000 </v>
  </varray>
  <varray name="weights" >
   <v>       0.00036443 </v>
   <v>       0.00218659 </v>
   <v>       0.00218659 </v>
   <v>       0.00218659 </v>
   <v>       0.00218659 </v>
   <v>       0.00218659 </v>
   <v>       0.00218659 </v>
   <v>       0.00109329 </v>
   <v>       0.00437318 </v>
   <v>       0.00874636 </v>
   <v>       0.00874636 </v>
   <v>       0.00874636 </v>
   <v>       0.00874636 </v>
   <v>       0.00874636 </v>
   <v>       0.00437318 </v>
   <v>       0.00437318 </v>
   <v>       0.00874636 </v>
   <v>       0.00874636 </v>
   <v>       0.00874636 </v>
   <v>       0.00874636 </v>
   <v>       0.00437318 </v>
   <v>       0.00437318 </v>
   <v>       0.00874636 </v>
   <v>       0.00874636 </v>
   <v>       0.00874636 </v>
   <v>       0.00437318 </v>
   <v>       0.00437318 </v>
   <v>       0.00874636 </v>
   <v>       0.00874636 </v>
   <v>       0.00437318 </v>
   <v>       0.00437318 </v>
   <v>       0.00874636 </v>
   <v>       0.00437318 </v>
   <v>       0.00437318 </v>
   <v>       0.00437318 </v>
   <v>       0.00109329 </v>
   <v>       0.00291545 </v>
   <v>       0.00874636 </v>
   <v>       0.00874636 </v>
   <v>       0.00874636 </v>
   <v>       0.00874636 </v>
   <v>       0.00874636 </v>
   <v>       0.00437318 </v>
   <v>       0.00874636 </v>
   <v>       0.01749271 </v>
   <v>       0.01749271 </v>
   <v>       0.01749271 </v>
   <v>       0.01749271 </v>
   <v>       0.00874636 </v>
   <v>       0.00874636 </v>
   <v>       0.01749271 </v>
   <v>       0.01749271 </v>
   <v>       0.01749271 </v>
   <v>       0.00874636 </v>
   <v>       0.00874636 </v>
   <v>       0.01749271 </v>
   <v>       0.01749271 </v>
   <v>       0.00874636 </v>
   <v>       0.00874636 </v>
   <v>       0.01749271 </v>
   <v>       0.00874636 </v>
   <v>       0.00874636 </v>
   <v>       0.00874636 </v>
   <v>       0.00218659 </v>
   <v>       0.00291545 </v>
   <v>       0.00874636 </v>
   <v>       0.00874636 </v>
   <v>       0.00874636 </v>
   <v>       0.00874636 </v>
   <v>       0.00437318 </v>
   <v>       0.00874636 </v>
   <v>       0.01749271 </v>
   <v>       0.01749271 </v>
   <v>       0.01749271 </v>
   <v>       0.00874636 </v>
   <v>       0.00874636 </v>
   <v>       0.01749271 </v>
   <v>       0.01749271 </v>
   <v>       0.00874636 </v>
   <v>       0.00874636 </v>
   <v>       0.01749271 </v>
   <v>       0.00874636 </v>
   <v>       0.00874636 </v>
   <v>       0.00874636 </v>
   <v>       0.00218659 </v>
   <v>       0.00291545 </v>
   <v>       0.00874636 </v>
   <v>       0.00874636 </v>
   <v>       0.00874636 </v>
   <v>       0.00437318 </v>
   <v>       0.00874636 </v>
   <v>       0.01749271 </v>
   <v>       0.01749271 </v>
   <v>       0.00874636 </v>
   <v>       0.00874636 </v>
   <v>       0.01749271 </v>
   <v>       0.00874636 </v>
   <v>       0.00874636 </v>
   <v>       0.00874636 </v>
   <v>       0.00218659 </v>
   <v>       0.00291545 </v>
   <v>       0.00874636 </v>
   <v>       0.00874636 </v>
   <v>       0.00437318 </v>
   <v>       0.00874636 </v>
   <v>       0.01749271 </v>
   <v>       0.00874636 </v>
   <v>       0.00874636 </v>
   <v>       0.00874636 </v>
   <v>       0.00218659 </v>
   <v>       0.00291545 </v>
   <v>       0.00874636 </v>
   <v>       0.00437318 </v>
   <v>       0.00874636 </v>
   <v>       0.00874636 </v>
   <v>       0.00218659 </v>
   <v>       0.00291545 </v>
   <v>       0.00437318 </v>
   <v>       0.00218659 </v>
   <v>       0.00036443 </v>
  </varray>
 </kpoints>
 <parameters>
  <separator name="general" >
   <i type="string" name="SYSTEM">BCC_IRON</i>
   <i type="logical" name="LCOMPAT"> F  </i>
  </separator>
  <separator name="electronic" >
   <i type="string" name="PREC">accura</i>
   <i name="ENMAX">    349.00000000</i>
   <i name="ENAUG">    511.36800000</i>
   <i name="EDIFF">      0.00000010</i>
   <i type="int" name="IALGO">    38</i>
   <i type="int" name="IWAVPR">    10</i>
   <i type="int" name="NBANDS">    11</i>
   <i name="NELECT">     16.00000000</i>
   <i type="int" name="TURBO">     0</i>
   <i type="int" name="IRESTART">     0</i>
   <i type="int" name="NREBOOT">     0</i>
   <i type="int" name="NMIN">     0</i>
   <i name="EREF">      0.00000000</i>
   <separator name="electronic smearing" >
    <i type="int" name="ISMEAR">     1</i>
    <i name="SIGMA">      0.01000000</i>
    <i name="KSPACING">      0.50000000</i>
    <i type="logical" name="KGAMMA"> T  </i>
   </separator>
   <separator name="electronic projectors" >
    <i type="logical" name="LREAL"> F  </i>
    <v name="ROPT">      0.00000000</v>
    <i type="int" name="LMAXPAW">  -100</i>
    <i type="int" name="LMAXMIX">     2</i>
    <i type="logical" name="NLSPLINE"> F  </i>
   </separator>
   <separator name="electronic startup" >
    <i type="int" name="ISTART">     0</i>
    <i type="int" name="ICHARG">     2</i>
    <i type="int" name="INIWAV">     1</i>
   </separator>
   <separator name="electronic spin" >
    <i type="int" name="ISPIN">     2</i>
    <i type="logical" name="LNONCOLLINEAR"> F  </i>
    <v name="MAGMOM">     -2.17400000     -2.17400000</v>
    <i name="NUPDOWN">     -1.00000000</i>
    <i type="logical" name="LSORBIT"> F  </i>
    <v name="SAXIS">      0.00000000      0.00000000      1.00000000</v>
    <i type="logical" name="LSPIRAL"> F  </i>
    <v name="QSPIRAL">      0.00000000      0.00000000      0.00000000</v>
    <i type="logical" name="LZEROZ"> F  </i>
   </separator>
   <separator name="electronic exchange-correlation" >
    <i type="logical" name="LASPH"> F  </i>
    <i type="logical" name="LMETAGGA"> F  </i>
   </separator>
   <separator name="electronic convergence" >
    <i type="int" name="NELM">   100</i>
    <i type="int" name="NELMDL">    -5</i>
    <i type="int" name="NELMIN">     2</i>
    <i name="ENINI">    349.00000000</i>
    <separator name="electronic convergence detail" >
     <i type="logical" name="LDIAG"> T  </i>
     <i type="logical" name="LSUBROT"> F  </i>
     <i name="WEIMIN">      0.00000000</i>
     <i name="EBREAK">      0.00000000</i>
     <i name="DEPER">      0.30000000</i>
     <i type="int" name="NRMM">     4</i>
     <i name="TIME">      0.40000000</i>
    </separator>
   </separator>
   <separator name="electronic mixer" >
    <i name="AMIX">      0.40000000</i>
    <i name="BMIX">      1.00000000</i>
    <i name="AMIN">      0.10000000</i>
    <i name="AMIX_MAG">      1.60000000</i>
    <i name="BMIX_MAG">      1.00000000</i>
    <separator name="electronic mixer details" >
     <i type="int" name="IMIX">     4</i>
     <i type="logical" name="MIXFIRST"> F  </i>
     <i type="int" name="MAXMIX">   -45</i>
     <i name="WC">    100.00000000</i>
     <i type="int" name="INIMIX">     1</i>
     <i type="int" name="MIXPRE">     1</i>
     <i type="int" name="MREMOVE">     5</i>
    </separator>
   </separator>
   <separator name="electronic dipolcorrection" >
    <i type="logical" name="LDIPOL"> F  </i>
    <i type="logical" name="LMONO"> F  </i>
    <i type="int" name="IDIPOL">     0</i>
    <i name="EPSILON">      1.00000000</i>
    <v name="DIPOL">   -100.00000000   -100.00000000   -100.00000000</v>
    <i name="EFIELD">      0.00000000</i>
   </separator>
  </separator>
  <separator name="grids" >
   <i type="int" name="NGX">    18</i>
   <i type="int" name="NGY">    18</i>
   <i type="int" name="NGZ">    18</i>
   <i type="int" name="NGXF">    36</i>
   <i type="int" name="NGYF">    36</i>
   <i type="int" name="NGZF">    36</i>
   <i type="logical" name="ADDGRID"> F  </i>
  </separator>
  <separator name="ionic" >
   <i type="int" name="NSW">     0</i>
   <i type="int" name="IBRION">    -1</i>
   <i type="int" name="MDALGO">     0</i>
   <i type="int" name="ISIF">     2</i>
   <i name="PSTRESS">      0.00000000</i>
   <i name="EDIFFG">      0.00000100</i>
   <i type="int" name="NFREE">     0</i>
   <i name="POTIM">      0.50000000</i>
   <i name="SMASS">     -3.00000000</i>
   <i name="SCALEE">      1.00000000</i>
  </separator>
  <separator name="ionic md" >
   <i name="TEBEG">      0.00010000</i>
   <i name="TEEND">      0.00010000</i>
   <i type="int" name="NBLOCK">     1</i>
   <i type="int" name="KBLOCK">     1</i>
   <i type="int" name="NPACO">   256</i>
   <i name="APACO">     16.00000000</i>
  </separator>
  <separator name="symmetry" >
   <i type="int" name="ISYM">     2</i>
   <i name="SYMPREC">      0.00001000</i>
  </separator>
  <separator name="dos" >
   <i type="int" name="LORBIT">    11</i>
   <v name="RWIGS">     -1.00000000</v>
   <i type="int" name="NEDOS">   301</i>
   <i name="EMIN">     10.00000000</i>
   <i name="EMAX">    -10.00000000</i>
   <i name="EFERMI">      0.00000000</i>
  </separator>
  <separator name="writing" >
   <i type="int" name="NWRITE">     2</i>
   <i type="logical" name="LWAVE"> F  </i>
   <i type="logical" name="LDOWNSAMPLE"> F  </i>
   <i type="logical" name="LCHARG"> F  </i>
   <i type="logical" name="LPARD"> F  </i>
   <i type="logical" name="LVTOT"> F  </i>
   <i type="logical" name="LVHAR"> F  </i>
   <i type="logical" name="LELF"> F  </i>
   <i type="logical" name="LOPTICS"> F  </i>
   <v name="STM">      0.00000000      0.00000000      0.00000000      0.00000000      0.00000000      0.00000000      0.00000000</v>
  </separator>
  <separator name="performance" >
   <i type="int" name="NPAR">     1</i>
   <i type="int" name="NSIM">     4</i>
   <i type="int" name="NBLK">    -1</i>
   <i type="logical" name="LPLANE"> T  </i>
   <i type="logical" name="LSCALAPACK"> T  </i>
   <i type="logical" name="LSCAAWARE"> F  </i>
   <i type="logical" name="LSCALU"> F  </i>
   <i type="logical" name="LASYNC"> F  </i>
   <i type="logical" name="LORBITALREAL"> F  </i>
  </separator>
  <separator name="miscellaneous" >
   <i type="int" name="IDIOT">     3</i>
   <i type="int" name="ISPECIAL">     0</i>
   <i type="logical" name="LMUSIC"> F  </i>
   <v name="POMASS">     55.84700000</v>
   <v name="DARWINR">      0.00000000</v>
   <v name="DARWINV">      1.00000000</v>
   <i type="logical" name="LCORR"> T  </i>
  </separator>
  <i type="logical" name="GGA_COMPAT"> T  </i>
  <i type="logical" name="LBERRY"> F  </i>
  <i type="int" name="ICORELEVEL">     0</i>
  <i type="logical" name="LDAU"> F  </i>
  <i type="int" name="I_CONSTRAINED_M">     0</i>
  <separator name="electronic exchange-correlation" >
   <i type="string" name="GGA">--</i>
   <i type="int" name="VOSKOWN">     0</i>
   <i type="logical" name="LHFCALC"> F  </i>
   <i type="string" name="PRECFOCK"></i>
   <i type="logical" name="LSYMGRAD"> F  </i>
   <i type="logical" name="LHFONE"> F  </i>
   <i type="logical" name="LRHFCALC"> F  </i>
   <i type="logical" name="LTHOMAS"> F  </i>
   <i type="logical" name="LMODELHF"> F  </i>
   <i name="ENCUT4O">     -1.00000000</i>
   <i type="int" name="EXXOEP">     0</i>
   <i type="int" name="FOURORBIT">     0</i>
   <i name="AEXX">      0.00000000</i>
   <i name="HFALPHA">      0.00000000</i>
   <i name="MCALPHA">      0.00000000</i>
   <i name="ALDAX">      1.00000000</i>
   <i name="AGGAX">      1.00000000</i>
   <i name="ALDAC">      1.00000000</i>
   <i name="AGGAC">      1.00000000</i>
   <i type="int" name="NKREDX">     1</i>
   <i type="int" name="NKREDY">     1</i>
   <i type="int" name="NKREDZ">     1</i>
   <i type="logical" name="SHIFTRED"> F  </i>
   <i type="logical" name="ODDONLY"> F  </i>
   <i type="logical" name="EVENONLY"> F  </i>
   <i type="int" name="LMAXFOCK">     0</i>
   <i type="int" name="NMAXFOCKAE">     0</i>
   <i type="logical" name="LFOCKAEDFT"> F  </i>
   <i name="HFSCREEN">      0.00000000</i>
   <i name="HFSCREENC">      0.00000000</i>
   <i type="int" name="NBANDSGWLOW">     0</i>
  </separator>
  <separator name="vdW DFT" >
   <i type="logical" name="LUSE_VDW"> F  </i>
   <i name="Zab_VDW">     -0.84910000</i>
   <i name="PARAM1">      0.12340000</i>
   <i name="PARAM2">      1.00000000</i>
   <i name="PARAM3">      0.00000000</i>
  </separator>
  <separator name="model GW" >
   <i type="int" name="MODEL_GW">     0</i>
   <i name="MODEL_EPS0">      6.79241461</i>
   <i name="MODEL_ALPHA">      1.00000000</i>
  </separator>
  <separator name="linear response parameters" >
   <i type="logical" name="LEPSILON"> F  </i>
   <i type="logical" name="LRPA"> F  </i>
   <i type="logical" name="LNABLA"> F  </i>
   <i type="logical" name="LVEL"> F  </i>
   <i type="int" name="KINTER">     0</i>
   <i name="CSHIFT">      0.10000000</i>
   <i name="OMEGAMAX">     -1.00000000</i>
   <i name="DEG_THRESHOLD">      0.00200000</i>
   <i name="RTIME">     -0.10000000</i>
   <i name="WPLASMAI">      0.00000000</i>
   <v name="DFIELD">      0.00000000      0.00000000      0.00000000</v>
   <v name="WPLASMA">      0.00000000      0.00000000      0.00000000      0.00000000      0.00000000      0.00000000      0.00000000      0.00000000      0.00000000</v>
  </separator>
  <separator name="orbital magnetization" >
   <i type="logical" name="NUCIND"> F  </i>
   <v name="MAGPOS">      0.00000000      0.00000000      0.00000000</v>
   <i type="logical" name="LNICSALL"> T  </i>
   <i type="logical" name="ORBITALMAG"> F  </i>
   <i type="logical" name="LMAGBLOCH"> F  </i>
   <i type="logical" name="LCHIMAG"> F  </i>
   <i type="logical" name="LGAUGE"> T  </i>
   <i type="int" name="MAGATOM">     0</i>
   <v name="MAGDIPOL">      0.00000000      0.00000000      0.00000000</v>
   <v name="AVECCONST">      0.00000000      0.00000000      0.00000000</v>
  </separator>
  <separator name="response functions" >
   <i type="logical" name="LADDER"> F  </i>
   <i type="logical" name="LRPAFORCE"> F  </i>
   <i type="logical" name="LFXC"> F  </i>
   <i type="logical" name="LHARTREE"> T  </i>
   <i type="int" name="IBSE">     0</i>
   <v type="int" name="KPOINT">    -1     0     0     0</v>
   <i type="logical" name="LTCTE"> F  </i>
   <i type="logical" name="LTETE"> F  </i>
   <i type="logical" name="LTRIPLET"> F  </i>
   <i type="logical" name="LFXCEPS"> F  </i>
   <i type="logical" name="LFXHEG"> F  </i>
   <i type="int" name="NATURALO">     2</i>
   <i type="logical" name="L2ORDER"> F  </i>
   <i type="logical" name="LMP2LT"> F  </i>
   <i type="logical" name="LUSEW"> F  </i>
   <i name="ENCUTGW">     -2.00000000</i>
   <i name="ENCUTGWSOFT">     -2.00000000</i>
   <i name="ENCUTLF">     -1.00000000</i>
   <i type="int" name="LMAXMP2">    -1</i>
   <i name="SCISSOR">      0.00000000</i>
   <i type="int" name="NOMEGA">     0</i>
   <i type="int" name="NOMEGAR">     0</i>
   <i type="int" name="NBANDSGW">    -1</i>
   <i type="int" name="NBANDSO">    -1</i>
   <i type="int" name="NBANDSV">    -1</i>
   <i type="int" name="NELM">   100</i>
   <i type="int" name="NELMHF">     1</i>
   <i type="int" name="DIM">     3</i>
   <i type="int" name="ANTIRES">     0</i>
   <i name="OMEGAMAX">    -30.00000000</i>
   <i name="OMEGAMIN">    -30.00000000</i>
   <i name="OMEGATL">   -200.00000000</i>
   <i type="int" name="OMEGAGRID">   140</i>
   <i name="CSHIFT">     -0.10000000</i>
   <i type="logical" name="SELFENERGY"> F  </i>
   <i type="logical" name="LSPECTRAL"> F  </i>
   <i type="logical" name="LSPECTRALGW"> F  </i>
   <i type="logical" name="LSINGLES"> F  </i>
   <i type="logical" name="LFERMIGW"> F  </i>
   <i type="logical" name="ODDONLYGW"> F  </i>
   <i type="logical" name="EVENONLYGW"> F  </i>
   <i type="int" name="NKREDLFX">     1</i>
   <i type="int" name="NKREDLFY">     1</i>
   <i type="int" name="NKREDLFZ">     1</i>
   <i type="int" name="MAXMEM">  2800</i>
   <i type="int" name="TELESCOPE">     0</i>
   <i type="int" name="TAUPAR">     1</i>
   <i type="int" name="OMEGAPAR">    -1</i>
   <i name="LAMBDA">      1.00000000</i>
  </separator>
  <separator name="External order field" >
   <i name="OFIELD_KAPPA">      0.00000000</i>
   <v name="OFIELD_K">      0.00000000      0.00000000      0.00000000</v>
   <i name="OFIELD_Q6_NEAR">      0.00000000</i>
   <i name="OFIELD_Q6_FAR">      0.00000000</i>
   <i name="OFIELD_A">      0.00000000</i>
  </separator>
 </parameters>
 <atominfo>
  <atoms>       2 </atoms>
  <types>       1 </types>
  <array name="atoms" >
   <dimension dim="1">ion</dimension>
   <field type="string">element</field>
   <field type="int">atomtype</field>
   <set>
    <rc><c>Fe</c><c>   1</c></rc>
    <rc><c>Fe</c><c>   1</c></rc>
   </set>
  </array>
  <array name="atomtypes" >
   <dimension dim="1">type</dimension>
   <field type="int">atomspertype</field>
   <field type="string">element</field>
   <field>mass</field>
   <field>valence</field>
   <field type="string">pseudopotential</field>
   <set>
    <rc><c>   2</c><c>Fe</c><c>     55.84700000</c><c>      8.00000000</c><c>  PAW_PBE Fe 06Sep2000                  </c></rc>
   </set>
  </array>
 </atominfo>
 <structure name="initialpos" >
  <crystal>
   <varray name="basis" >
    <v>       2.82900888       0.00000000       0.00000000 </v>
    <v>       0.00000000       2.82900888       0.00000000 </v>
    <v>       0.00000000       0.00000000       2.82900888 </v>
   </varray>
   <i name="volume">     22.64138204 </i>
   <varray name="rec_basis" >
    <v>       0.35348069       0.00000000       0.00000000 </v>
    <v>       0.00000000       0.35348069       0.00000000 </v>
    <v>       0.00000000       0.00000000       0.35348069 </v>
   </varray>
  </crystal>
  <varray name="positions" >
   <v>       0.00000000       0.00000000       0.00000000 </v>
   <v>       0.50000000       0.50000000       0.50000000 </v>
  </varray>
 </structure>
 <calculation>
  <scstep>
   <time name="dav">    0.20    0.20</time>
   <time name="total">    0.21    0.23</time>
   <energy>
    <i name="alphaZ">    122.10169127 </i>
    <i name="ewald">  -1185.52755918 </i>
    <i name="hartreedc">   -222.53661930 </i>
    <i name="XCdc">      9.05768293 </i>
    <i name="pawpsdc">   1108.55857356 </i>
    <i name="pawaedc">  -1123.98403091 </i>
    <i name="eentropy">     -0.00001902 </i>
    <i name="bandstr">    176.94073467 </i>
    <i name="atom">   1188.58915604 </i>
    <i name="e_fr_energy">     73.19961007 </i>
    <i name="e_wo_entrp">     73.19962909 </i>
    <i name="e_0_energy">     73.19961641 </i>
   </energy>
  </scstep>
  <scstep>
   <time name="dav">    0.19    0.19</time>
   <time name="total">    0.19    0.19</time>
   <energy>
    <i name="e_fr_energy">    -14.15943314 </i>
    <i name="e_wo_entrp">    -14.15942546 </i>
    <i name="e_0_energy">    -14.15943058 </i>
   </energy>
  </scstep>
  <scstep>
   <time name="dav">    0.23    0.28</time>
   <time name="total">    0.24    0.28</time>
   <energy>
    <i name="e_fr_energy">    -18.32254722 </i>
    <i name="e_wo_entrp">    -18.32255353 </i>
    <i name="e_0_energy">    -18.32254932 </i>
   </energy>
  </scstep>
  <scstep>
   <time name="dav">    0.23    0.23</time>
   <time name="total">    0.23    0.23</time>
   <energy>
    <i name="e_fr_energy">    -18.55903708 </i>
    <i name="e_wo_entrp">    -18.55904855 </i>
    <i name="e_0_energy">    -18.55904091 </i>
   </energy>
  </scstep>
  <scstep>
   <time name="dav">    0.21    0.21</time>
   <time name="total">    0.22    0.23</time>
   <energy>
    <i name="e_fr_energy">    -18.56368360 </i>
    <i name="e_wo_entrp">    -18.56369570 </i>
    <i name="e_0_energy">    -18.56368763 </i>
   </energy>
  </scstep>
  <scstep>
   <time name="dav">    0.22    0.22</time>
   <time name="total">    0.25    0.25</time>
   <energy>
    <i name="e_fr_energy">    -16.64144480 </i>
    <i name="e_wo_entrp">    -16.64144924 </i>
    <i name="e_0_energy">    -16.64144628 </i>
   </energy>
  </scstep>
  <scstep>
   <time name="dav">    0.21    0.21</time>
   <time name="total">    0.24    0.24</time>
   <energy>
    <i name="e_fr_energy">    -16.50808393 </i>
    <i name="e_wo_entrp">    -16.50805372 </i>
    <i name="e_0_energy">    -16.50807386 </i>
   </energy>
  </scstep>
  <scstep>
   <time name="dav">    0.20    0.20</time>
   <time name="total">    0.23    0.23</time>
   <energy>
    <i name="e_fr_energy">    -16.50035250 </i>
    <i name="e_wo_entrp">    -16.50033737 </i>
    <i name="e_0_energy">    -16.50034746 </i>
   </energy>
  </scstep>
  <scstep>
   <time name="dav">    0.20    0.21</time>
   <time name="total">    0.23    0.24</time>
   <energy>
    <i name="e_fr_energy">    -16.48669992 </i>
    <i name="e_wo_entrp">    -16.48671194 </i>
    <i name="e_0_energy">    -16.48670392 </i>
   </energy>
  </scstep>
  <scstep>
   <time name="dav">    0.21    0.21</time>
   <time name="total">    0.28    0.29</time>
   <energy>
    <i name="e_fr_energy">    -16.48654006 </i>
    <i name="e_wo_entrp">    -16.48656726 </i>
    <i name="e_0_energy">    -16.48654913 </i>
   </energy>
  </scstep>
  <scstep>
   <time name="dav">    0.19    0.19</time>
   <time name="total">    0.22    0.22</time>
   <energy>
    <i name="e_fr_energy">    -16.48654669 </i>
    <i name="e_wo_entrp">    -16.48657827 </i>
    <i name="e_0_energy">    -16.48655722 </i>
   </energy>
  </scstep>
  <scstep>
   <time name="dav">    0.21    0.21</time>
   <time name="total">    0.24    0.24</time>
   <energy>
    <i name="e_fr_energy">    -16.48654149 </i>
    <i name="e_wo_entrp">    -16.48656917 </i>
    <i name="e_0_energy">    -16.48655072 </i>
   </energy>
  </scstep>
  <scstep>
   <time name="dav">    0.20    0.20</time>
   <time name="total">    0.23    0.23</time>
   <energy>
    <i name="e_fr_energy">    -16.48653838 </i>
    <i name="e_wo_entrp">    -16.48656749 </i>
    <i name="e_0_energy">    -16.48654808 </i>
   </energy>
  </scstep>
  <scstep>
   <time name="dav">    0.12    0.12</time>
   <time name="total">    0.15    0.16</time>
   <energy>
    <i name="e_fr_energy">    -16.48653919 </i>
    <i name="e_wo_entrp">    -16.48656772 </i>
    <i name="e_0_energy">    -16.48654870 </i>
   </energy>
  </scstep>
  <scstep>
   <time name="dav">    0.12    0.13</time>
   <time name="total">    0.15    0.16</time>
   <energy>
    <i name="e_fr_energy">    -16.48653940 </i>
    <i name="e_wo_entrp">    -16.48656801 </i>
    <i name="e_0_energy">    -16.48654894 </i>
   </energy>
  </scstep>
  <scstep>
   <time name="dav">    0.12    0.13</time>
   <time name="total">    0.14    0.14</time>
   <energy>
    <i name="alphaZ">    122.10169127 </i>
    <i name="ewald">  -1185.52755918 </i>
    <i name="hartreedc">   -189.59224472 </i>
    <i name="XCdc">      8.68156096 </i>
    <i name="pawpsdc">   1445.36303425 </i>
    <i name="pawaedc">  -1463.62088832 </i>
    <i name="eentropy">      0.00002863 </i>
    <i name="bandstr">     57.51868164 </i>
    <i name="atom">   1188.58915604 </i>
    <i name="e_fr_energy">    -16.48653943 </i>
    <i name="e_wo_entrp">    -16.48656806 </i>
    <i name="e_0_energy">    -16.48654898 </i>
   </energy>
  </scstep>
  <structure>
   <crystal>
    <varray name="basis" >
     <v>       2.82900888       0.00000000       0.00000000 </v>
     <v>       0.00000000       2.82900888       0.00000000 </v>
     <v>       0.00000000       0.00000000       2.82900888 </v>
    </varray>
    <i name="volume">     22.64138204 </i>
    <varray name="rec_basis" >
     <v>       0.35348069       0.00000000       0.00000000 </v>
     <v>       0.00000000       0.35348069       0.00000000 </v>
     <v>       0.00000000       0.00000000       0.35348069 </v>
    </varray>
   </crystal>
   <varray name="positions" >
    <v>       0.00000000       0.00000000       0.00000000 </v>
    <v>       0.50000000       0.50000000       0.50000000 </v>
   </varray>
  </structure>
  <varray name="forces" >
   <v>       0.00000000       0.00000000       0.00000000 </v>
   <v>       0.00000000       0.00000000       0.00000000 </v>
  </varray>
  <varray name="stress" >
   <v>       4.70341507      -0.00000000       0.00000000 </v>
   <v>      -0.00000000       4.70341507      -0.00000000 </v>
   <v>      -0.00000000       0.00000000       4.70341507 </v>
  </varray>
  <energy>
   <i name="e_fr_energy">    -16.48653943 </i>
   <i name="e_wo_entrp">    -16.48654898 </i>
   <i name="e_0_energy">      0.00002863 </i>
  </energy>
  <time name="totalsc">    3.65    3.79</time>
  <eigenvalues>
   <array>
    <dimension dim="1">band</dimension>
    <dimension dim="2">kpoint</dimension>
    <dimension dim="3">spin</dimension>
    <field>eigene</field>
    <field>occ</field>
    <set>
     <set comment="spin 1">
      <set comment="kpoint 1">
       <r>   -2.4256    1.0000 </r>
       <r>    2.8212    1.0000 </r>
       <r>    2.8212    1.0000 </r>
       <r>    5.4967    1.0000 </r>
       <r>    5.4967    1.0000 </r>
       <r>    5.4967    1.0000 </r>
       <r>    7.5198    0.0000 </r>
       <r>    7.5198    0.0000 </r>
       <r>    8.2159    0.0000 </r>
       <r>    8.2159    0.0000 </r>
       <r>    8.2159    0.0000 </r>
      </set>
      <set comment="kpoint 2">
       <r>   -2.3188    1.0000 </r>
       <r>    2.8592    1.0000 </r>
       <r>    2.8751    1.0000 </r>
       <r>    5.4919    1.0000 </r>
       <r>    5.4919    1.0000 </r>
       <r>    5.5290    1.0000 </r>
       <r>    7.4580    0.0000 </r>
       <r>    7.5437    0.0000 </r>
       <r>    8.0961    0.0000 </r>
       <r>    8.0961    0.0000 </r>
       <r>    8.1800    0.0000 </r>
      </set>
      <set comment="kpoint 3">
       <r>   -2.0025    1.0000 </r>
       <r>    2.9575    1.0000 </r>
       <r>    3.0347    1.0000 </r>
       <r>    5.4818    1.0000 </r>
       <r>    5.4818    1.0000 </r>
       <r>    5.6244    1.0000 </r>
       <r>    7.2756    0.0000 </r>
       <r>    7.6114    0.0000 </r>
       <r>    7.7799    0.0000 </r>
       <r>    7.7799    0.0000 </r>
       <r>    8.0744    0.0000 </r>
      </set>
      <set comment="kpoint 4">
       <r>   -1.4895    1.0000 </r>
       <r>    3.0680    1.0000 </r>
       <r>    3.2949    1.0000 </r>
       <r>    5.4780    1.0000 </r>
       <r>    5.4780    1.0000 </r>
       <r>    5.7790    1.0000 </r>
       <r>    6.9816    0.0000 </r>
       <r>    7.3586    0.0000 </r>
       <r>    7.3586    0.0000 </r>
       <r>    7.7135    0.0000 </r>
       <r>    7.9051    0.0000 </r>
      </set>
      <set comment="kpoint 5">
       <r>   -0.8029    1.0000 </r>
       <r>    3.1035    1.0000 </r>
       <r>    3.6457    1.0000 </r>
       <r>    5.4984    1.0000 </r>
       <r>    5.4984    1.0000 </r>
       <r>    5.9863   -0.0000 </r>
       <r>    6.5919    0.0000 </r>
       <r>    6.9145    0.0000 </r>
       <r>    6.9145    0.0000 </r>
       <r>    7.6815    0.0000 </r>
       <r>    7.8390    0.0000 </r>
      </set>
      <set comment="kpoint 6">
       <r>    0.0192    1.0000 </r>
       <r>    2.9480    1.0000 </r>
       <r>    4.0734    1.0000 </r>
       <r>    5.5613    1.0000 </r>
       <r>    5.5613    1.0000 </r>
       <r>    6.1272   -0.0000 </r>
       <r>    6.2367    0.0000 </r>
       <r>    6.5017    0.0000 </r>
       <r>    6.5017    0.0000 </r>
       <r>    7.4163    0.0000 </r>
       <r>    7.9830    0.0000 </r>
      </set>
      <set comment="kpoint 7">
       <r>    0.9156    1.0000 </r>
       <r>    2.5066    1.0000 </r>
       <r>    4.5599    1.0000 </r>
       <r>    5.6142    1.0000 </r>
       <r>    5.6836    1.0000 </r>
       <r>    5.6836    1.0000 </r>
       <r>    6.1521    0.0000 </r>
       <r>    6.1521    0.0000 </r>
       <r>    6.5189    0.0000 </r>
       <r>    7.1241    0.0000 </r>
       <r>    8.1630    0.0000 </r>
      </set>
      <set comment="kpoint 8">
       <r>    1.7895    1.0000 </r>
       <r>    1.7895    1.0000 </r>
       <r>    5.0822    1.0000 </r>
       <r>    5.0822    1.0000 </r>
       <r>    5.8785   -0.0088 </r>
       <r>    5.8785   -0.0088 </r>
       <r>    5.8785   -0.0088 </r>
       <r>    5.8785   -0.0088 </r>
       <r>    6.8197    0.0000 </r>
       <r>    6.8197    0.0000 </r>
       <r>    8.4427    0.0000 </r>
      </set>
      <set comment="kpoint 9">
       <r>   -2.2128    1.0000 </r>
       <r>    2.9071    1.0000 </r>
       <r>    2.9180    1.0000 </r>
       <r>    5.4268    1.0000 </r>
       <r>    5.4838    1.0000 </r>
       <r>    5.6213    1.0000 </r>
       <r>    7.4449    0.0000 </r>
       <r>    7.5252    0.0000 </r>
       <r>    7.9015    0.0000 </r>
       <r>    7.9768    0.0000 </r>
       <r>    8.2308    0.0000 </r>
      </set>
      <set comment="kpoint 10">
       <r>   -1.8990    1.0000 </r>
       <r>    3.0101    1.0000 </r>
       <r>    3.0698    1.0000 </r>
       <r>    5.3688    1.0000 </r>
       <r>    5.4637    1.0000 </r>
       <r>    5.7641    1.0000 </r>
       <r>    7.2936    0.0000 </r>
       <r>    7.5484    0.0000 </r>
       <r>    7.5806    0.0000 </r>
       <r>    7.6650    0.0000 </r>
       <r>    8.1906    0.0000 </r>
      </set>
      <set comment="kpoint 11">
       <r>   -1.3904    1.0000 </r>
       <r>    3.1212    1.0000 </r>
       <r>    3.3215    1.0000 </r>
       <r>    5.3351    1.0000 </r>
       <r>    5.4433    1.0000 </r>
       <r>    5.9473   -0.0000 </r>
       <r>    7.0270    0.0000 </r>
       <r>    7.1236    0.0000 </r>
       <r>    7.2583    0.0000 </r>
       <r>    7.6862    0.0000 </r>
       <r>    8.0573    0.0000 </r>
      </set>
      <set comment="kpoint 12">
       <r>   -0.7110    1.0000 </r>
       <r>    3.1543    1.0000 </r>
       <r>    3.6590    1.0000 </r>
       <r>    5.3363    1.0000 </r>
       <r>    5.4335    1.0000 </r>
       <r>    6.1708    0.0000 </r>
       <r>    6.6799    0.0000 </r>
       <r>    6.6879    0.0000 </r>
       <r>    6.8476    0.0000 </r>
       <r>    7.8159    0.0000 </r>
       <r>    7.8544    0.0000 </r>
      </set>
      <set comment="kpoint 13">
       <r>    0.1010    1.0000 </r>
       <r>    2.9937    1.0000 </r>
       <r>    4.0658    1.0000 </r>
       <r>    5.3862    1.0000 </r>
       <r>    5.4244    1.0000 </r>
       <r>    6.2866    0.0000 </r>
       <r>    6.3033    0.0000 </r>
       <r>    6.4298    0.0000 </r>
       <r>    6.4949    0.0000 </r>
       <r>    7.6016    0.0000 </r>
       <r>    7.9642    0.0000 </r>
      </set>
      <set comment="kpoint 14">
       <r>    0.9840    1.0000 </r>
       <r>    2.5512    1.0000 </r>
       <r>    4.5170    1.0000 </r>
       <r>    5.3134    1.0000 </r>
       <r>    5.4983    1.0000 </r>
       <r>    5.9475   -0.0000 </r>
       <r>    6.0378   -0.0000 </r>
       <r>    6.2248    0.0000 </r>
       <r>    6.7157    0.0000 </r>
       <r>    7.3165    0.0000 </r>
       <r>    8.1521    0.0000 </r>
      </set>
      <set comment="kpoint 15">
       <r>    1.8433    1.0000 </r>
       <r>    1.8433    1.0000 </r>
       <r>    4.9688    1.0000 </r>
       <r>    4.9688    1.0000 </r>
       <r>    5.6837    1.0000 </r>
       <r>    5.6837    1.0000 </r>
       <r>    6.0466   -0.0000 </r>
       <r>    6.0466   -0.0000 </r>
       <r>    7.0160    0.0000 </r>
       <r>    7.0160    0.0000 </r>
       <r>    8.4510    0.0000 </r>
      </set>
      <set comment="kpoint 16">
       <r>   -1.5930    1.0000 </r>
       <r>    3.1576    1.0000 </r>
       <r>    3.1655    1.0000 </r>
       <r>    5.2347    1.0000 </r>
       <r>    5.4170    1.0000 </r>
       <r>    5.9809   -0.0000 </r>
       <r>    7.1441    0.0000 </r>
       <r>    7.2866    0.0000 </r>
       <r>    7.3728    0.0000 </r>
       <r>    7.5441    0.0000 </r>
       <r>    8.2724    0.0000 </r>
      </set>
      <set comment="kpoint 17">
       <r>   -1.0988    1.0000 </r>
       <r>    3.2562    1.0000 </r>
       <r>    3.4045    1.0000 </r>
       <r>    5.1339    1.0000 </r>
       <r>    5.3590    1.0000 </r>
       <r>    6.2264    0.0000 </r>
       <r>    6.6994    0.0000 </r>
       <r>    7.0158    0.0000 </r>
       <r>    7.1296    0.0000 </r>
       <r>    7.6182    0.0000 </r>
       <r>    8.2443    0.0000 </r>
      </set>
      <set comment="kpoint 18">
       <r>   -0.4421    1.0000 </r>
       <r>    3.2686    1.0000 </r>
       <r>    3.7168    1.0000 </r>
       <r>    5.0802    1.0000 </r>
       <r>    5.3001    1.0000 </r>
       <r>    6.2658    0.0000 </r>
       <r>    6.4963    0.0000 </r>
       <r>    6.7014    0.0000 </r>
       <r>    6.8804    0.0000 </r>
       <r>    7.7519    0.0000 </r>
       <r>    8.1192    0.0000 </r>
      </set>
      <set comment="kpoint 19">
       <r>    0.3363    1.0000 </r>
       <r>    3.0879    1.0000 </r>
       <r>    4.0798    1.0000 </r>
       <r>    5.0864    1.0000 </r>
       <r>    5.2262    1.0000 </r>
       <r>    5.8783   -0.0093 </r>
       <r>    6.4985    0.0000 </r>
       <r>    6.6207    0.0000 </r>
       <r>    6.7851    0.0000 </r>
       <r>    7.9096    0.0000 </r>
       <r>    7.9198    0.0000 </r>
      </set>
      <set comment="kpoint 20">
       <r>    1.1736    1.0000 </r>
       <r>    2.6495    1.0000 </r>
       <r>    4.4628    1.0000 </r>
       <r>    5.0823    1.0000 </r>
       <r>    5.1632    1.0000 </r>
       <r>    5.5591    1.0000 </r>
       <r>    6.4032    0.0000 </r>
       <r>    6.4353    0.0000 </r>
       <r>    7.0847    0.0000 </r>
       <r>    7.6678    0.0000 </r>
       <r>    8.1175    0.0000 </r>
      </set>
      <set comment="kpoint 21">
       <r>    1.9807    1.0000 </r>
       <r>    1.9807    1.0000 </r>
       <r>    4.8182    1.0000 </r>
       <r>    4.8182    1.0000 </r>
       <r>    5.3197    1.0000 </r>
       <r>    5.3197    1.0000 </r>
       <r>    6.3757    0.0000 </r>
       <r>    6.3757    0.0000 </r>
       <r>    7.3838    0.0000 </r>
       <r>    7.3838    0.0000 </r>
       <r>    8.4695    0.0000 </r>
      </set>
      <set comment="kpoint 22">
       <r>   -0.6313    1.0000 </r>
       <r>    3.3530    1.0000 </r>
       <r>    3.5977    1.0000 </r>
       <r>    4.9655    1.0000 </r>
       <r>    5.2639    1.0000 </r>
       <r>    6.2485    0.0000 </r>
       <r>    6.5302    0.0000 </r>
       <r>    6.7533    0.0000 </r>
       <r>    7.1855    0.0000 </r>
       <r>    7.5813    0.0000 </r>
       <r>    8.3332    0.0000 </r>
      </set>
      <set comment="kpoint 23">
       <r>   -0.0180    1.0000 </r>
       <r>    3.3160    1.0000 </r>
       <r>    3.8933    1.0000 </r>
       <r>    4.8509    1.0000 </r>
       <r>    5.1831    1.0000 </r>
       <r>    5.8234    1.0000 </r>
       <r>    6.5832    0.0000 </r>
       <r>    6.8447    0.0000 </r>
       <r>    7.0903    0.0000 </r>
       <r>    7.6689    0.0000 </r>
       <r>    8.3129    0.0000 </r>
      </set>
      <set comment="kpoint 24">
       <r>    0.6940    1.0000 </r>
       <r>    3.1069    1.0000 </r>
       <r>    4.2252    1.0000 </r>
       <r>    4.8041    1.0000 </r>
       <r>    5.1129    1.0000 </r>
       <r>    5.4548    1.0000 </r>
       <r>    6.5542    0.0000 </r>
       <r>    6.9326    0.0000 </r>
       <r>    7.1607    0.0000 </r>
       <r>    7.8256    0.0000 </r>
       <r>    8.1963    0.0000 </r>
      </set>
      <set comment="kpoint 25">
       <r>    1.4379    1.0000 </r>
       <r>    2.7062    1.0000 </r>
       <r>    4.5508    1.0000 </r>
       <r>    4.8362    1.0000 </r>
       <r>    5.0114    1.0000 </r>
       <r>    5.1618    1.0000 </r>
       <r>    6.6245    0.0000 </r>
       <r>    6.8034    0.0000 </r>
       <r>    7.4681    0.0000 </r>
       <r>    8.0032    0.0000 </r>
       <r>    8.0548    0.0000 </r>
      </set>
      <set comment="kpoint 26">
       <r>    2.1333    1.0000 </r>
       <r>    2.1333    1.0000 </r>
       <r>    4.8259    1.0000 </r>
       <r>    4.8259    1.0000 </r>
       <r>    4.9546    1.0000 </r>
       <r>    4.9546    1.0000 </r>
       <r>    6.7142    0.0000 </r>
       <r>    6.7142    0.0000 </r>
       <r>    7.7542    0.0000 </r>
       <r>    7.7542    0.0000 </r>
       <r>    8.4772    0.0000 </r>
      </set>
      <set comment="kpoint 27">
       <r>    0.5220    1.0000 </r>
       <r>    3.2118    1.0000 </r>
       <r>    4.2008    1.0000 </r>
       <r>    4.6783    1.0000 </r>
       <r>    5.1283    1.0000 </r>
       <r>    5.4160    1.0000 </r>
       <r>    6.5728    0.0000 </r>
       <r>    7.1908    0.0000 </r>
       <r>    7.2070    0.0000 </r>
       <r>    7.6377    0.0000 </r>
       <r>    8.4011    0.0000 </r>
      </set>
      <set comment="kpoint 28">
       <r>    1.1201    1.0000 </r>
       <r>    2.9820    1.0000 </r>
       <r>    4.5512    1.0000 </r>
       <r>    4.5786    1.0000 </r>
       <r>    5.0728    1.0000 </r>
       <r>    5.1400    1.0000 </r>
       <r>    6.6798    0.0000 </r>
       <r>    7.1767    0.0000 </r>
       <r>    7.5200    0.0000 </r>
       <r>    7.7351    0.0000 </r>
       <r>    8.3821    0.0000 </r>
      </set>
      <set comment="kpoint 29">
       <r>    1.7070    1.0000 </r>
       <r>    2.6507    1.0000 </r>
       <r>    4.5634    1.0000 </r>
       <r>    4.8110    1.0000 </r>
       <r>    4.8679    1.0000 </r>
       <r>    5.1607    1.0000 </r>
       <r>    6.8499    0.0000 </r>
       <r>    7.1012    0.0000 </r>
       <r>    7.8193    0.0000 </r>
       <r>    7.9584    0.0000 </r>
       <r>    8.2675    0.0000 </r>
      </set>
      <set comment="kpoint 30">
       <r>    2.2251    1.0000 </r>
       <r>    2.2251    1.0000 </r>
       <r>    4.6402    1.0000 </r>
       <r>    4.6402    1.0000 </r>
       <r>    5.0853    1.0000 </r>
       <r>    5.0853    1.0000 </r>
       <r>    7.0038    0.0000 </r>
       <r>    7.0038    0.0000 </r>
       <r>    8.0740    0.0000 </r>
       <r>    8.0740    0.0000 </r>
       <r>    8.4326    0.0000 </r>
      </set>
      <set comment="kpoint 31">
       <r>    1.5476    1.0000 </r>
       <r>    2.7685    1.0000 </r>
       <r>    4.4288    1.0000 </r>
       <r>    4.7601    1.0000 </r>
       <r>    4.9657    1.0000 </r>
       <r>    5.3171    1.0000 </r>
       <r>    6.8606    0.0000 </r>
       <r>    7.2972    0.0000 </r>
       <r>    7.7032    0.0000 </r>
       <r>    7.8433    0.0000 </r>
       <r>    8.4627    0.0000 </r>
      </set>
      <set comment="kpoint 32">
       <r>    1.9243    1.0000 </r>
       <r>    2.5176    1.0000 </r>
       <r>    4.3673    1.0000 </r>
       <r>    4.5333    1.0000 </r>
       <r>    5.3494    1.0000 </r>
       <r>    5.5397    1.0000 </r>
       <r>    7.0581    0.0000 </r>
       <r>    7.2957    0.0000 </r>
       <r>    7.8342    0.0000 </r>
       <r>    8.1141    0.0000 </r>
       <r>    8.4381    0.0000 </r>
      </set>
      <set comment="kpoint 33">
       <r>    2.2412    1.0000 </r>
       <r>    2.2412    1.0000 </r>
       <r>    4.4013    1.0000 </r>
       <r>    4.4013    1.0000 </r>
       <r>    5.5777    1.0000 </r>
       <r>    5.5777    1.0000 </r>
       <r>    7.2176    0.0000 </r>
       <r>    7.2176    0.0000 </r>
       <r>    8.2775    0.0000 </r>
       <r>    8.2775    0.0000 </r>
       <r>    8.3175    0.0000 </r>
      </set>
      <set comment="kpoint 34">
       <r>    2.0861    1.0000 </r>
       <r>    2.3660    1.0000 </r>
       <r>    4.2611    1.0000 </r>
       <r>    4.3443    1.0000 </r>
       <r>    5.8499    1.0098 </r>
       <r>    6.0042   -0.0000 </r>
       <r>    7.2312    0.0000 </r>
       <r>    7.3733    0.0000 </r>
       <r>    7.7569    0.0000 </r>
       <r>    8.3355    0.0000 </r>
       <r>    8.5055    0.0000 </r>
      </set>
      <set comment="kpoint 35">
       <r>    2.2237    1.0000 </r>
       <r>    2.2237    1.0000 </r>
       <r>    4.2526    1.0000 </r>
       <r>    4.2526    1.0000 </r>
       <r>    6.1601    0.0000 </r>
       <r>    6.1601    0.0000 </r>
       <r>    7.3462    0.0000 </r>
       <r>    7.3462    0.0000 </r>
       <r>    7.9903    0.0000 </r>
       <r>    7.9903    0.0000 </r>
       <r>    8.4693    0.0000 </r>
      </set>
      <set comment="kpoint 36">
       <r>    2.2126    1.0000 </r>
       <r>    2.2126    1.0000 </r>
       <r>    4.2018    1.0000 </r>
       <r>    4.2018    1.0000 </r>
       <r>    6.4871    0.0000 </r>
       <r>    6.4871    0.0000 </r>
       <r>    7.3879    0.0000 </r>
       <r>    7.3879    0.0000 </r>
       <r>    7.7779    0.0000 </r>
       <r>    7.7779    0.0000 </r>
       <r>    8.5206    0.0000 </r>
      </set>
      <set comment="kpoint 37">
       <r>   -2.1075    1.0000 </r>
       <r>    2.9577    1.0000 </r>
       <r>    2.9577    1.0000 </r>
       <r>    5.4172    1.0000 </r>
       <r>    5.4172    1.0000 </r>
       <r>    5.7141    1.0000 </r>
       <r>    7.4722    0.0000 </r>
       <r>    7.4722    0.0000 </r>
       <r>    7.6327    0.0000 </r>
       <r>    8.1123    0.0000 </r>
       <r>    8.1123    0.0000 </r>
      </set>
      <set comment="kpoint 38">
       <r>   -1.7961    1.0000 </r>
       <r>    3.0604    1.0000 </r>
       <r>    3.1072    1.0000 </r>
       <r>    5.3333    1.0000 </r>
       <r>    5.3912    1.0000 </r>
       <r>    5.8802   -0.0051 </r>
       <r>    7.2339    0.0000 </r>
       <r>    7.3160    0.0000 </r>
       <r>    7.5484    0.0000 </r>
       <r>    7.8019    0.0000 </r>
       <r>    8.1458    0.0000 </r>
      </set>
      <set comment="kpoint 39">
       <r>   -1.2918    1.0000 </r>
       <r>    3.1747    1.0000 </r>
       <r>    3.3491    1.0000 </r>
       <r>    5.2775    1.0000 </r>
       <r>    5.3574    1.0000 </r>
       <r>    6.0850   -0.0000 </r>
       <r>    6.7983    0.0000 </r>
       <r>    7.0682    0.0000 </r>
       <r>    7.3932    0.0000 </r>
       <r>    7.6607    0.0000 </r>
       <r>    8.0669    0.0000 </r>
      </set>
      <set comment="kpoint 40">
       <r>   -0.6189    1.0000 </r>
       <r>    3.2080    1.0000 </r>
       <r>    3.6715    1.0000 </r>
       <r>    5.2650    1.0000 </r>
       <r>    5.3227    1.0000 </r>
       <r>    6.3252    0.0000 </r>
       <r>    6.3897    0.0000 </r>
       <r>    6.7525    0.0000 </r>
       <r>    6.9707    0.0000 </r>
       <r>    7.7949    0.0000 </r>
       <r>    7.9038    0.0000 </r>
      </set>
      <set comment="kpoint 41">
       <r>    0.1834    1.0000 </r>
       <r>    3.0433    1.0000 </r>
       <r>    4.0556    1.0000 </r>
       <r>    5.2757    1.0000 </r>
       <r>    5.3091    1.0000 </r>
       <r>    6.0548   -0.0000 </r>
       <r>    6.4189    0.0000 </r>
       <r>    6.5928    0.0000 </r>
       <r>    6.5953    0.0000 </r>
       <r>    7.6854    0.0000 </r>
       <r>    7.9475    0.0000 </r>
      </set>
      <set comment="kpoint 42">
       <r>    1.0537    1.0000 </r>
       <r>    2.5990    1.0000 </r>
       <r>    4.4719    1.0000 </r>
       <r>    5.1516    1.0000 </r>
       <r>    5.4172    1.0000 </r>
       <r>    5.7957    1.0000 </r>
       <r>    6.1736    0.0000 </r>
       <r>    6.3013    0.0000 </r>
       <r>    6.8829    0.0000 </r>
       <r>    7.4366    0.0000 </r>
       <r>    8.1451    0.0000 </r>
      </set>
      <set comment="kpoint 43">
       <r>    1.8994    1.0000 </r>
       <r>    1.8994    1.0000 </r>
       <r>    4.8675    1.0000 </r>
       <r>    4.8675    1.0000 </r>
       <r>    5.5843    1.0000 </r>
       <r>    5.5843    1.0000 </r>
       <r>    6.1390    0.0000 </r>
       <r>    6.1390    0.0000 </r>
       <r>    7.1683    0.0000 </r>
       <r>    7.1683    0.0000 </r>
       <r>    8.4695    0.0000 </r>
      </set>
      <set comment="kpoint 44">
       <r>   -1.4920    1.0000 </r>
       <r>    3.2042    1.0000 </r>
       <r>    3.2063    1.0000 </r>
       <r>    5.2151    1.0000 </r>
       <r>    5.3241    1.0000 </r>
       <r>    6.0988   -0.0000 </r>
       <r>    6.7973    0.0000 </r>
       <r>    7.3194    0.0000 </r>
       <r>    7.5102    0.0000 </r>
       <r>    7.6326    0.0000 </r>
       <r>    8.1572    0.0000 </r>
      </set>
      <set comment="kpoint 45">
       <r>   -1.0012    1.0000 </r>
       <r>    3.3118    1.0000 </r>
       <r>    3.4329    1.0000 </r>
       <r>    5.1067    1.0000 </r>
       <r>    5.2587    1.0000 </r>
       <r>    6.3544    0.0000 </r>
       <r>    6.3560    0.0000 </r>
       <r>    7.1645    0.0000 </r>
       <r>    7.2802    0.0000 </r>
       <r>    7.5969    0.0000 </r>
       <r>    8.1482    0.0000 </r>
      </set>
      <set comment="kpoint 46">
       <r>   -0.3499    1.0000 </r>
       <r>    3.3316    1.0000 </r>
       <r>    3.7253    1.0000 </r>
       <r>    5.0444    1.0000 </r>
       <r>    5.1908    1.0000 </r>
       <r>    5.9748   -0.0000 </r>
       <r>    6.6350    0.0000 </r>
       <r>    6.9228    0.0000 </r>
       <r>    6.9283    0.0000 </r>
       <r>    7.7361    0.0000 </r>
       <r>    8.0522    0.0000 </r>
      </set>
      <set comment="kpoint 47">
       <r>    0.4205    1.0000 </r>
       <r>    3.1489    1.0000 </r>
       <r>    4.0608    1.0000 </r>
       <r>    5.0239    1.0000 </r>
       <r>    5.1316    1.0000 </r>
       <r>    5.6890    1.0000 </r>
       <r>    6.6422    0.0000 </r>
       <r>    6.6777    0.0000 </r>
       <r>    6.9341    0.0000 </r>
       <r>    7.8874    0.0000 </r>
       <r>    7.8990    0.0000 </r>
      </set>
      <set comment="kpoint 48">
       <r>    1.2472    1.0000 </r>
       <r>    2.7071    1.0000 </r>
       <r>    4.4068    1.0000 </r>
       <r>    4.9326    1.0000 </r>
       <r>    5.1644    1.0000 </r>
       <r>    5.4736    1.0000 </r>
       <r>    6.4748    0.0000 </r>
       <r>    6.4890    0.0000 </r>
       <r>    7.2228    0.0000 </r>
       <r>    7.6874    0.0000 </r>
       <r>    8.1254    0.0000 </r>
      </set>
      <set comment="kpoint 49">
       <r>    2.0434    1.0000 </r>
       <r>    2.0434    1.0000 </r>
       <r>    4.7150    1.0000 </r>
       <r>    4.7150    1.0000 </r>
       <r>    5.2949    1.0000 </r>
       <r>    5.2949    1.0000 </r>
       <r>    6.4199    0.0000 </r>
       <r>    6.4199    0.0000 </r>
       <r>    7.4724    0.0000 </r>
       <r>    7.4724    0.0000 </r>
       <r>    8.5241    0.0000 </r>
      </set>
      <set comment="kpoint 50">
       <r>   -0.5357    1.0000 </r>
       <r>    3.4149    1.0000 </r>
       <r>    3.6218    1.0000 </r>
       <r>    4.9394    1.0000 </r>
       <r>    5.1635    1.0000 </r>
       <r>    5.9297   -0.0000 </r>
       <r>    6.6616    0.0000 </r>
       <r>    7.0213    0.0000 </r>
       <r>    7.2174    0.0000 </r>
       <r>    7.5659    0.0000 </r>
       <r>    8.2191    0.0000 </r>
      </set>
      <set comment="kpoint 51">
       <r>    0.0742    1.0000 </r>
       <r>    3.3863    1.0000 </r>
       <r>    3.8989    1.0000 </r>
       <r>    4.8216    1.0000 </r>
       <r>    5.0802    1.0000 </r>
       <r>    5.5768    1.0000 </r>
       <r>    6.7928    0.0000 </r>
       <r>    6.9814    0.0000 </r>
       <r>    7.1243    0.0000 </r>
       <r>    7.6600    0.0000 </r>
       <r>    8.2042    0.0000 </r>
      </set>
      <set comment="kpoint 52">
       <r>    0.7807    1.0000 </r>
       <r>    3.1782    1.0000 </r>
       <r>    4.1965    1.0000 </r>
       <r>    4.7636    1.0000 </r>
       <r>    5.0176    1.0000 </r>
       <r>    5.3156    1.0000 </r>
       <r>    6.6823    0.0000 </r>
       <r>    6.9598    0.0000 </r>
       <r>    7.3080    0.0000 </r>
       <r>    7.8263    0.0000 </r>
       <r>    8.1014    0.0000 </r>
      </set>
      <set comment="kpoint 53">
       <r>    1.5172    1.0000 </r>
       <r>    2.7749    1.0000 </r>
       <r>    4.4703    1.0000 </r>
       <r>    4.7447    1.0000 </r>
       <r>    4.9761    1.0000 </r>
       <r>    5.1246    1.0000 </r>
       <r>    6.6861    0.0000 </r>
       <r>    6.8260    0.0000 </r>
       <r>    7.5718    0.0000 </r>
       <r>    7.9395    0.0000 </r>
       <r>    8.1045    0.0000 </r>
      </set>
      <set comment="kpoint 54">
       <r>    2.2051    1.0000 </r>
       <r>    2.2051    1.0000 </r>
       <r>    4.6691    1.0000 </r>
       <r>    4.6691    1.0000 </r>
       <r>    5.0006    1.0000 </r>
       <r>    5.0006    1.0000 </r>
       <r>    6.7409    0.0000 </r>
       <r>    6.7409    0.0000 </r>
       <r>    7.7617    0.0000 </r>
       <r>    7.7617    0.0000 </r>
       <r>    8.6102    0.0000 </r>
      </set>
      <set comment="kpoint 55">
       <r>    0.6135    1.0000 </r>
       <r>    3.2838    1.0000 </r>
       <r>    4.1996    1.0000 </r>
       <r>    4.6511    1.0000 </r>
       <r>    5.0211    1.0000 </r>
       <r>    5.2361    1.0000 </r>
       <r>    6.7278    0.0000 </r>
       <r>    7.2258    0.0000 </r>
       <r>    7.3445    0.0000 </r>
       <r>    7.6338    0.0000 </r>
       <r>    8.2780    0.0000 </r>
      </set>
      <set comment="kpoint 56">
       <r>    1.2093    1.0000 </r>
       <r>    3.0543    1.0000 </r>
       <r>    4.5166    1.0000 </r>
       <r>    4.5495    1.0000 </r>
       <r>    4.9758    1.0000 </r>
       <r>    5.0285    1.0000 </r>
       <r>    6.7763    0.0000 </r>
       <r>    7.1933    0.0000 </r>
       <r>    7.6489    0.0000 </r>
       <r>    7.7713    0.0000 </r>
       <r>    8.2504    0.0000 </r>
      </set>
      <set comment="kpoint 57">
       <r>    1.7914    1.0000 </r>
       <r>    2.7244    1.0000 </r>
       <r>    4.5230    1.0000 </r>
       <r>    4.6574    1.0000 </r>
       <r>    4.9118    1.0000 </r>
       <r>    5.0645    1.0000 </r>
       <r>    6.9003    0.0000 </r>
       <r>    7.1125    0.0000 </r>
       <r>    7.7935    0.0000 </r>
       <r>    8.1291    0.0000 </r>
       <r>    8.1596    0.0000 </r>
      </set>
      <set comment="kpoint 58">
       <r>    2.3035    1.0000 </r>
       <r>    2.3035    1.0000 </r>
       <r>    4.5705    1.0000 </r>
       <r>    4.5705    1.0000 </r>
       <r>    5.0367    1.0000 </r>
       <r>    5.0367    1.0000 </r>
       <r>    7.0237    0.0000 </r>
       <r>    7.0237    0.0000 </r>
       <r>    7.9533    0.0000 </r>
       <r>    7.9533    0.0000 </r>
       <r>    8.7114    0.0000 </r>
      </set>
      <set comment="kpoint 59">
       <r>    1.6369    1.0000 </r>
       <r>    2.8404    1.0000 </r>
       <r>    4.4045    1.0000 </r>
       <r>    4.6893    1.0000 </r>
       <r>    4.9237    1.0000 </r>
       <r>    5.1829    1.0000 </r>
       <r>    6.9263    0.0000 </r>
       <r>    7.3114    0.0000 </r>
       <r>    7.7042    0.0000 </r>
       <r>    8.0330    0.0000 </r>
       <r>    8.2942    0.0000 </r>
      </set>
      <set comment="kpoint 60">
       <r>    2.0100    1.0000 </r>
       <r>    2.5921    1.0000 </r>
       <r>    4.3417    1.0000 </r>
       <r>    4.4862    1.0000 </r>
       <r>    5.2785    1.0000 </r>
       <r>    5.3964    1.0000 </r>
       <r>    7.0974    0.0000 </r>
       <r>    7.3061    0.0000 </r>
       <r>    7.7923    0.0000 </r>
       <r>    8.2093    0.0000 </r>
       <r>    8.3720    0.0000 </r>
      </set>
      <set comment="kpoint 61">
       <r>    2.3209    1.0000 </r>
       <r>    2.3209    1.0000 </r>
       <r>    4.3685    1.0000 </r>
       <r>    4.3685    1.0000 </r>
       <r>    5.4642    1.0000 </r>
       <r>    5.4642    1.0000 </r>
       <r>    7.2356    0.0000 </r>
       <r>    7.2356    0.0000 </r>
       <r>    7.9978    0.0000 </r>
       <r>    7.9978    0.0000 </r>
       <r>    8.7983    0.0000 </r>
      </set>
      <set comment="kpoint 62">
       <r>    2.1686    1.0000 </r>
       <r>    2.4417    1.0000 </r>
       <r>    4.2400    1.0000 </r>
       <r>    4.3149    1.0000 </r>
       <r>    5.7278    1.0000 </r>
       <r>    5.8092    1.0000 </r>
       <r>    7.2599    0.0000 </r>
       <r>    7.3855    0.0000 </r>
       <r>    7.7592    0.0000 </r>
       <r>    8.1237    0.0000 </r>
       <r>    8.6087    0.0000 </r>
      </set>
      <set comment="kpoint 63">
       <r>    2.3025    1.0000 </r>
       <r>    2.3025    1.0000 </r>
       <r>    4.2301    1.0000 </r>
       <r>    4.2301    1.0000 </r>
       <r>    5.9734   -0.0000 </r>
       <r>    5.9734   -0.0000 </r>
       <r>    7.3639    0.0000 </r>
       <r>    7.3639    0.0000 </r>
       <r>    7.8875    0.0000 </r>
       <r>    7.8875    0.0000 </r>
       <r>    8.8510    0.0000 </r>
      </set>
      <set comment="kpoint 64">
       <r>    2.2912    1.0000 </r>
       <r>    2.2912    1.0000 </r>
       <r>    4.1824    1.0000 </r>
       <r>    4.1824    1.0000 </r>
       <r>    6.2331    0.0000 </r>
       <r>    6.2331    0.0000 </r>
       <r>    7.4064    0.0000 </r>
       <r>    7.4064    0.0000 </r>
       <r>    7.7803    0.0000 </r>
       <r>    7.7803    0.0000 </r>
       <r>    8.8682    0.0000 </r>
      </set>
      <set comment="kpoint 65">
       <r>   -1.1938    1.0000 </r>
       <r>    3.3256    1.0000 </r>
       <r>    3.3256    1.0000 </r>
       <r>    5.1597    1.0000 </r>
       <r>    5.1597    1.0000 </r>
       <r>    6.3245    0.0000 </r>
       <r>    6.3437    0.0000 </r>
       <r>    7.4105    0.0000 </r>
       <r>    7.4105    0.0000 </r>
       <r>    7.8614    0.0000 </r>
       <r>    7.8614    0.0000 </r>
      </set>
      <set comment="kpoint 66">
       <r>   -0.7140    1.0000 </r>
       <r>    3.4600    1.0000 </r>
       <r>    3.5145    1.0000 </r>
       <r>    5.0207    1.0000 </r>
       <r>    5.0780    1.0000 </r>
       <r>    5.8774   -0.0125 </r>
       <r>    6.6331    0.0000 </r>
       <r>    7.2530    0.0000 </r>
       <r>    7.4869    0.0000 </r>
       <r>    7.5411    0.0000 </r>
       <r>    7.9638    0.0000 </r>
      </set>
      <set comment="kpoint 67">
       <r>   -0.0806    1.0000 </r>
       <r>    3.4919    1.0000 </r>
       <r>    3.7571    1.0000 </r>
       <r>    4.9430    1.0000 </r>
       <r>    4.9791    1.0000 </r>
       <r>    5.5389    1.0000 </r>
       <r>    6.9460    0.0000 </r>
       <r>    7.0548    0.0000 </r>
       <r>    7.1218    0.0000 </r>
       <r>    7.6919    0.0000 </r>
       <r>    7.9521    0.0000 </r>
      </set>
      <set comment="kpoint 68">
       <r>    0.6628    1.0000 </r>
       <r>    3.2949    1.0000 </r>
       <r>    4.0303    1.0000 </r>
       <r>    4.8652    1.0000 </r>
       <r>    4.9436    1.0000 </r>
       <r>    5.3580    1.0000 </r>
       <r>    6.8272    0.0000 </r>
       <r>    6.8463    0.0000 </r>
       <r>    7.2589    0.0000 </r>
       <r>    7.8640    0.0000 </r>
       <r>    7.8714    0.0000 </r>
      </set>
      <set comment="kpoint 69">
       <r>    1.4526    1.0000 </r>
       <r>    2.8465    1.0000 </r>
       <r>    4.3023    1.0000 </r>
       <r>    4.7253    1.0000 </r>
       <r>    5.0217    1.0000 </r>
       <r>    5.2606    1.0000 </r>
       <r>    6.6435    0.0000 </r>
       <r>    6.6744    0.0000 </r>
       <r>    7.5032    0.0000 </r>
       <r>    7.7499    0.0000 </r>
       <r>    8.1675    0.0000 </r>
      </set>
      <set comment="kpoint 70">
       <r>    2.2080    1.0000 </r>
       <r>    2.2080    1.0000 </r>
       <r>    4.5402    1.0000 </r>
       <r>    4.5402    1.0000 </r>
       <r>    5.1463    1.0000 </r>
       <r>    5.1463    1.0000 </r>
       <r>    6.5938    0.0000 </r>
       <r>    6.5938    0.0000 </r>
       <r>    7.6422    0.0000 </r>
       <r>    7.6422    0.0000 </r>
       <r>    8.6912    0.0000 </r>
      </set>
      <set comment="kpoint 71">
       <r>   -0.2552    1.0000 </r>
       <r>    3.5837    1.0000 </r>
       <r>    3.6901    1.0000 </r>
       <r>    4.8657    1.0000 </r>
       <r>    4.9561    1.0000 </r>
       <r>    5.4406    1.0000 </r>
       <r>    6.9637    0.0000 </r>
       <r>    7.3079    0.0000 </r>
       <r>    7.3639    0.0000 </r>
       <r>    7.5190    0.0000 </r>
       <r>    7.9401    0.0000 </r>
      </set>
      <set comment="kpoint 72">
       <r>    0.3431    1.0000 </r>
       <r>    3.5856    1.0000 </r>
       <r>    3.9094    1.0000 </r>
       <r>    4.7417    1.0000 </r>
       <r>    4.8576    1.0000 </r>
       <r>    5.1438    1.0000 </r>
       <r>    7.1127    0.0000 </r>
       <r>    7.2095    0.0000 </r>
       <r>    7.3146    0.0000 </r>
       <r>    7.6348    0.0000 </r>
       <r>    7.9617    0.0000 </r>
      </set>
      <set comment="kpoint 73">
       <r>    1.0311    1.0000 </r>
       <r>    3.3734    1.0000 </r>
       <r>    4.1147    1.0000 </r>
       <r>    4.6567    1.0000 </r>
       <r>    4.8059    1.0000 </r>
       <r>    5.0372    1.0000 </r>
       <r>    6.9252    0.0000 </r>
       <r>    7.0639    0.0000 </r>
       <r>    7.6025    0.0000 </r>
       <r>    7.8661    0.0000 </r>
       <r>    7.9201    0.0000 </r>
      </set>
      <set comment="kpoint 74">
       <r>    1.7412    1.0000 </r>
       <r>    2.9575    1.0000 </r>
       <r>    4.2961    1.0000 </r>
       <r>    4.5625    1.0000 </r>
       <r>    4.8455    1.0000 </r>
       <r>    5.0060    1.0000 </r>
       <r>    6.8415    0.0000 </r>
       <r>    6.9311    0.0000 </r>
       <r>    7.7184    0.0000 </r>
       <r>    7.8433    0.0000 </r>
       <r>    8.3161    0.0000 </r>
      </set>
      <set comment="kpoint 75">
       <r>    2.4009    1.0000 </r>
       <r>    2.4009    1.0000 </r>
       <r>    4.4448    1.0000 </r>
       <r>    4.4448    1.0000 </r>
       <r>    4.9372    1.0000 </r>
       <r>    4.9372    1.0000 </r>
       <r>    6.8496    0.0000 </r>
       <r>    6.8496    0.0000 </r>
       <r>    7.7766    0.0000 </r>
       <r>    7.7766    0.0000 </r>
       <r>    8.9490    0.0000 </r>
      </set>
      <set comment="kpoint 76">
       <r>    0.8798    1.0000 </r>
       <r>    3.4886    1.0000 </r>
       <r>    4.1938    1.0000 </r>
       <r>    4.5759    1.0000 </r>
       <r>    4.7812    1.0000 </r>
       <r>    4.8625    1.0000 </r>
       <r>    7.0262    0.0000 </r>
       <r>    7.3027    0.0000 </r>
       <r>    7.6205    0.0000 </r>
       <r>    7.7005    0.0000 </r>
       <r>    8.0078    0.0000 </r>
      </set>
      <set comment="kpoint 77">
       <r>    1.4676    1.0000 </r>
       <r>    3.2573    1.0000 </r>
       <r>    4.4053    1.0000 </r>
       <r>    4.4700    1.0000 </r>
       <r>    4.7669    1.0000 </r>
       <r>    4.7726    1.0000 </r>
       <r>    6.9950    0.0000 </r>
       <r>    7.2621    0.0000 </r>
       <r>    7.6985    0.0000 </r>
       <r>    7.9973    0.0000 </r>
       <r>    8.1120    0.0000 </r>
      </set>
      <set comment="kpoint 78">
       <r>    2.0334    1.0000 </r>
       <r>    2.9298    1.0000 </r>
       <r>    4.4165    1.0000 </r>
       <r>    4.4262    1.0000 </r>
       <r>    4.8335    1.0000 </r>
       <r>    4.8531    1.0000 </r>
       <r>    7.0336    0.0000 </r>
       <r>    7.1774    0.0000 </r>
       <r>    7.7793    0.0000 </r>
       <r>    7.9288    0.0000 </r>
       <r>    8.5971    0.0000 </r>
      </set>
      <set comment="kpoint 79">
       <r>    2.5240    1.0000 </r>
       <r>    2.5240    1.0000 </r>
       <r>    4.4065    1.0000 </r>
       <r>    4.4065    1.0000 </r>
       <r>    4.8911    1.0000 </r>
       <r>    4.8911    1.0000 </r>
       <r>    7.1008    0.0000 </r>
       <r>    7.1008    0.0000 </r>
       <r>    7.8479    0.0000 </r>
       <r>    7.8479    0.0000 </r>
       <r>    9.2296    0.0000 </r>
      </set>
      <set comment="kpoint 80">
       <r>    1.8961    1.0000 </r>
       <r>    3.0430    1.0000 </r>
       <r>    4.3376    1.0000 </r>
       <r>    4.5138    1.0000 </r>
       <r>    4.8052    1.0000 </r>
       <r>    4.8746    1.0000 </r>
       <r>    7.0905    0.0000 </r>
       <r>    7.3667    0.0000 </r>
       <r>    7.7062    0.0000 </r>
       <r>    8.0182    0.0000 </r>
       <r>    8.4893    0.0000 </r>
      </set>
      <set comment="kpoint 81">
       <r>    2.2574    1.0000 </r>
       <r>    2.8027    1.0000 </r>
       <r>    4.2724    1.0000 </r>
       <r>    4.3657    1.0000 </r>
       <r>    5.0647    1.0000 </r>
       <r>    5.0857    1.0000 </r>
       <r>    7.2041    0.0000 </r>
       <r>    7.3569    0.0000 </r>
       <r>    7.7682    0.0000 </r>
       <r>    7.9596    0.0000 </r>
       <r>    8.9167    0.0000 </r>
      </set>
      <set comment="kpoint 82">
       <r>    2.5484    1.0000 </r>
       <r>    2.5484    1.0000 </r>
       <r>    4.2815    1.0000 </r>
       <r>    4.2815    1.0000 </r>
       <r>    5.1814    1.0000 </r>
       <r>    5.1814    1.0000 </r>
       <r>    7.2985    0.0000 </r>
       <r>    7.2985    0.0000 </r>
       <r>    7.8578    0.0000 </r>
       <r>    7.8578    0.0000 </r>
       <r>    9.4611    0.0000 </r>
      </set>
      <set comment="kpoint 83">
       <r>    2.4074    1.0000 </r>
       <r>    2.6578    1.0000 </r>
       <r>    4.1824    1.0000 </r>
       <r>    4.2371    1.0000 </r>
       <r>    5.3910    1.0000 </r>
       <r>    5.4223    1.0000 </r>
       <r>    7.3390    0.0000 </r>
       <r>    7.4339    0.0000 </r>
       <r>    7.7654    0.0000 </r>
       <r>    7.9103    0.0000 </r>
       <r>    9.2433    0.0000 </r>
      </set>
      <set comment="kpoint 84">
       <r>    2.5285    1.0000 </r>
       <r>    2.5285    1.0000 </r>
       <r>    4.1696    1.0000 </r>
       <r>    4.1696    1.0000 </r>
       <r>    5.5599    1.0000 </r>
       <r>    5.5599    1.0000 </r>
       <r>    7.4198    0.0000 </r>
       <r>    7.4198    0.0000 </r>
       <r>    7.8182    0.0000 </r>
       <r>    7.8182    0.0000 </r>
       <r>    9.6016    0.0000 </r>
      </set>
      <set comment="kpoint 85">
       <r>    2.5160    1.0000 </r>
       <r>    2.5160    1.0000 </r>
       <r>    4.1286    1.0000 </r>
       <r>    4.1286    1.0000 </r>
       <r>    5.7352    1.0000 </r>
       <r>    5.7352    1.0000 </r>
       <r>    7.4589    0.0000 </r>
       <r>    7.4589    0.0000 </r>
       <r>    7.7869    0.0000 </r>
       <r>    7.7869    0.0000 </r>
       <r>    9.6461    0.0000 </r>
      </set>
      <set comment="kpoint 86">
       <r>    0.1903    1.0000 </r>
       <r>    3.7939    1.0000 </r>
       <r>    3.7939    1.0000 </r>
       <r>    4.7590    1.0000 </r>
       <r>    4.7590    1.0000 </r>
       <r>    4.9859    1.0000 </r>
       <r>    7.3297    0.0000 </r>
       <r>    7.4413    0.0000 </r>
       <r>    7.4413    0.0000 </r>
       <r>    7.6127    0.0000 </r>
       <r>    7.6127    0.0000 </r>
      </set>
      <set comment="kpoint 87">
       <r>    0.7647    1.0000 </r>
       <r>    3.8570    1.0000 </r>
       <r>    3.9181    1.0000 </r>
       <r>    4.6315    1.0000 </r>
       <r>    4.6362    1.0000 </r>
       <r>    4.7258    1.0000 </r>
       <r>    7.3248    0.0000 </r>
       <r>    7.3375    0.0000 </r>
       <r>    7.5852    0.0000 </r>
       <r>    7.7269    0.0000 </r>
       <r>    7.7509    0.0000 </r>
      </set>
      <set comment="kpoint 88">
       <r>    1.4127    1.0000 </r>
       <r>    3.5880    1.0000 </r>
       <r>    4.0471    1.0000 </r>
       <r>    4.5121    1.0000 </r>
       <r>    4.6025    1.0000 </r>
       <r>    4.7669    1.0000 </r>
       <r>    7.1246    0.0000 </r>
       <r>    7.2192    0.0000 </r>
       <r>    7.7035    0.0000 </r>
       <r>    7.7981    0.0000 </r>
       <r>    8.1675    0.0000 </r>
      </set>
      <set comment="kpoint 89">
       <r>    2.0628    1.0000 </r>
       <r>    3.1588    1.0000 </r>
       <r>    4.1692    1.0000 </r>
       <r>    4.3947    1.0000 </r>
       <r>    4.6717    1.0000 </r>
       <r>    4.8341    1.0000 </r>
       <r>    7.0303    0.0000 </r>
       <r>    7.1080    0.0000 </r>
       <r>    7.7694    0.0000 </r>
       <r>    7.7990    0.0000 </r>
       <r>    8.6974    0.0000 </r>
      </set>
      <set comment="kpoint 90">
       <r>    2.6520    1.0000 </r>
       <r>    2.6520    1.0000 </r>
       <r>    4.2830    1.0000 </r>
       <r>    4.2830    1.0000 </r>
       <r>    4.7844    1.0000 </r>
       <r>    4.7844    1.0000 </r>
       <r>    7.0338    0.0000 </r>
       <r>    7.0338    0.0000 </r>
       <r>    7.7912    0.0000 </r>
       <r>    7.7912    0.0000 </r>
       <r>    9.3836    0.0000 </r>
      </set>
      <set comment="kpoint 91">
       <r>    1.2945    1.0000 </r>
       <r>    3.7901    1.0000 </r>
       <r>    4.1797    1.0000 </r>
       <r>    4.4543    1.0000 </r>
       <r>    4.4693    1.0000 </r>
       <r>    4.5319    1.0000 </r>
       <r>    7.3104    0.0000 </r>
       <r>    7.4186    0.0000 </r>
       <r>    7.5947    0.0000 </r>
       <r>    7.7335    0.0000 </r>
       <r>    8.1480    0.0000 </r>
      </set>
      <set comment="kpoint 92">
       <r>    1.8644    1.0000 </r>
       <r>    3.5392    1.0000 </r>
       <r>    4.2242    1.0000 </r>
       <r>    4.3608    1.0000 </r>
       <r>    4.4981    1.0000 </r>
       <r>    4.5682    1.0000 </r>
       <r>    7.2306    0.0000 </r>
       <r>    7.3748    0.0000 </r>
       <r>    7.6918    0.0000 </r>
       <r>    7.7830    0.0000 </r>
       <r>    8.6024    0.0000 </r>
      </set>
      <set comment="kpoint 93">
       <r>    2.3940    1.0000 </r>
       <r>    3.2090    1.0000 </r>
       <r>    4.2115    1.0000 </r>
       <r>    4.2813    1.0000 </r>
       <r>    4.5740    1.0000 </r>
       <r>    4.7094    1.0000 </r>
       <r>    7.2066    0.0000 </r>
       <r>    7.2990    0.0000 </r>
       <r>    7.7704    0.0000 </r>
       <r>    7.8024    0.0000 </r>
       <r>    9.1358    0.0000 </r>
      </set>
      <set comment="kpoint 94">
       <r>    2.8368    1.0000 </r>
       <r>    2.8368    1.0000 </r>
       <r>    4.2309    1.0000 </r>
       <r>    4.2309    1.0000 </r>
       <r>    4.6896    1.0000 </r>
       <r>    4.6896    1.0000 </r>
       <r>    7.2357    0.0000 </r>
       <r>    7.2357    0.0000 </r>
       <r>    7.8007    0.0000 </r>
       <r>    7.8007    0.0000 </r>
       <r>    9.8273    0.0000 </r>
      </set>
      <set comment="kpoint 95">
       <r>    2.2968    1.0000 </r>
       <r>    3.3302    1.0000 </r>
       <r>    4.2447    1.0000 </r>
       <r>    4.3108    1.0000 </r>
       <r>    4.5318    1.0000 </r>
       <r>    4.6329    1.0000 </r>
       <r>    7.2914    0.0000 </r>
       <r>    7.4605    0.0000 </r>
       <r>    7.7056    0.0000 </r>
       <r>    7.8091    0.0000 </r>
       <r>    9.0620    0.0000 </r>
      </set>
      <set comment="kpoint 96">
       <r>    2.6359    1.0000 </r>
       <r>    3.1073    1.0000 </r>
       <r>    4.1790    1.0000 </r>
       <r>    4.2213    1.0000 </r>
       <r>    4.6903    1.0000 </r>
       <r>    4.8254    1.0000 </r>
       <r>    7.3498    0.0000 </r>
       <r>    7.4491    0.0000 </r>
       <r>    7.7621    0.0000 </r>
       <r>    7.8167    0.0000 </r>
       <r>    9.5776    0.0000 </r>
      </set>
      <set comment="kpoint 97">
       <r>    2.8874    1.0000 </r>
       <r>    2.8874    1.0000 </r>
       <r>    4.1710    1.0000 </r>
       <r>    4.1710    1.0000 </r>
       <r>    4.8398    1.0000 </r>
       <r>    4.8398    1.0000 </r>
       <r>    7.4040    0.0000 </r>
       <r>    7.4040    0.0000 </r>
       <r>    7.8018    0.0000 </r>
       <r>    7.8018    0.0000 </r>
       <r>   10.2194    0.0000 </r>
      </set>
      <set comment="kpoint 98">
       <r>    2.7728    1.0000 </r>
       <r>    2.9782    1.0000 </r>
       <r>    4.1041    1.0000 </r>
       <r>    4.1390    1.0000 </r>
       <r>    4.9424    1.0000 </r>
       <r>    5.0488    1.0000 </r>
       <r>    7.4515    0.0000 </r>
       <r>    7.5154    0.0000 </r>
       <r>    7.7734    0.0000 </r>
       <r>    7.8154    0.0000 </r>
       <r>   10.0289    0.0000 </r>
      </set>
      <set comment="kpoint 99">
       <r>    2.8697    1.0000 </r>
       <r>    2.8697    1.0000 </r>
       <r>    4.0894    1.0000 </r>
       <r>    4.0894    1.0000 </r>
       <r>    5.1078    1.0000 </r>
       <r>    5.1078    1.0000 </r>
       <r>    7.5072    0.0000 </r>
       <r>    7.5072    0.0000 </r>
       <r>    7.7980    0.0000 </r>
       <r>    7.7980    0.0000 </r>
       <r>   10.5049    0.0000 </r>
      </set>
      <set comment="kpoint 100">
       <r>    2.8561    1.0000 </r>
       <r>    2.8561    1.0000 </r>
       <r>    4.0563    1.0000 </r>
       <r>    4.0563    1.0000 </r>
       <r>    5.2319    1.0000 </r>
       <r>    5.2319    1.0000 </r>
       <r>    7.5387    0.0000 </r>
       <r>    7.5387    0.0000 </r>
       <r>    7.7964    0.0000 </r>
       <r>    7.7964    0.0000 </r>
       <r>   10.6148    0.0000 </r>
      </set>
      <set comment="kpoint 101">
       <r>    1.8076    1.0000 </r>
       <r>    4.0397    1.0000 </r>
       <r>    4.1567    1.0000 </r>
       <r>    4.1567    1.0000 </r>
       <r>    4.3525    1.0000 </r>
       <r>    4.3525    1.0000 </r>
       <r>    7.5281    0.0000 </r>
       <r>    7.5281    0.0000 </r>
       <r>    7.5539    0.0000 </r>
       <r>    7.5539    0.0000 </r>
       <r>    8.6250    0.0000 </r>
      </set>
      <set comment="kpoint 102">
       <r>    2.3382    1.0000 </r>
       <r>    3.7163    1.0000 </r>
       <r>    4.1308    1.0000 </r>
       <r>    4.2469    1.0000 </r>
       <r>    4.2949    1.0000 </r>
       <r>    4.4240    1.0000 </r>
       <r>    7.4115    0.0000 </r>
       <r>    7.5005    0.0000 </r>
       <r>    7.6705    0.0000 </r>
       <r>    7.6796    0.0000 </r>
       <r>    9.1276    0.0000 </r>
      </set>
      <set comment="kpoint 103">
       <r>    2.7907    1.0000 </r>
       <r>    3.4168    1.0000 </r>
       <r>    4.1152    1.0000 </r>
       <r>    4.1682    1.0000 </r>
       <r>    4.3769    1.0000 </r>
       <r>    4.5641    1.0000 </r>
       <r>    7.3740    0.0000 </r>
       <r>    7.4418    0.0000 </r>
       <r>    7.7512    0.0000 </r>
       <r>    7.7621    0.0000 </r>
       <r>    9.7043    0.0000 </r>
      </set>
      <set comment="kpoint 104">
       <r>    3.1304    1.0000 </r>
       <r>    3.1304    1.0000 </r>
       <r>    4.1247    1.0000 </r>
[...]
        <r>  0.0000  0.0193  0.0193  0.0000  0.2010  0.0000  0.0434  0.2010  0.0145 </r>
       </set>
       <set comment="band 5">
        <r>  0.0120  0.0125  0.0125  0.0625  0.0156  0.2931  0.0059  0.0156  0.0178 </r>
        <r>  0.0118  0.0123  0.0123  0.0637  0.0159  0.2876  0.0058  0.0159  0.0175 </r>
       </set>
       <set comment="band 6">
        <r>  0.0118  0.0123  0.0123  0.0637  0.0159  0.2876  0.0058  0.0159  0.0175 </r>
        <r>  0.0120  0.0125  0.0125  0.0625  0.0156  0.2931  0.0059  0.0156  0.0178 </r>
       </set>
       <set comment="band 7">
        <r>  0.0000  0.0006  0.0006  0.0000  0.0405  0.0000  0.3097  0.0405  0.1032 </r>
        <r>  0.0000  0.0006  0.0006  0.0000  0.0414  0.0000  0.3028  0.0414  0.1009 </r>
       </set>
       <set comment="band 8">
        <r>  0.0000  0.0006  0.0006  0.0000  0.0414  0.0000  0.3028  0.0414  0.1009 </r>
        <r>  0.0000  0.0006  0.0006  0.0000  0.0405  0.0000  0.3097  0.0405  0.1032 </r>
       </set>
       <set comment="band 9">
        <r>  0.0008  0.0003  0.0003  0.0010  0.0192  0.0076  0.0889  0.0192  0.2666 </r>
        <r>  0.0012  0.0004  0.0004  0.0007  0.0126  0.0116  0.1353  0.0126  0.4058 </r>
       </set>
       <set comment="band 10">
        <r>  0.0012  0.0004  0.0004  0.0007  0.0126  0.0116  0.1353  0.0126  0.4058 </r>
        <r>  0.0008  0.0003  0.0003  0.0010  0.0192  0.0076  0.0889  0.0192  0.2666 </r>
       </set>
       <set comment="band 11">
        <r>  0.0728  0.0582  0.0582  0.0307  0.0224  0.1476  0.0038  0.0224  0.0114 </r>
        <r>  0.0155  0.0124  0.0124  0.1444  0.1051  0.0314  0.0008  0.1051  0.0024 </r>
       </set>
      </set>
      <set comment="kpoint 114">
       <set comment="band 1">
        <r>  0.0163  0.0030  0.0157  0.0030  0.2023  0.1059  0.0101  0.1059  0.0000 </r>
        <r>  0.0163  0.0030  0.0157  0.0030  0.2023  0.1059  0.0101  0.1059  0.0000 </r>
       </set>
       <set comment="band 2">
        <r>  0.0156  0.0001  0.0445  0.0001  0.3475  0.0030  0.0399  0.0030  0.0000 </r>
        <r>  0.0156  0.0001  0.0445  0.0001  0.3475  0.0030  0.0399  0.0030  0.0000 </r>
       </set>
       <set comment="band 3">
        <r>  0.0000  0.0147  0.0000  0.0147  0.0000  0.2134  0.0000  0.2134  0.0096 </r>
        <r>  0.0000  0.0147  0.0000  0.0147  0.0000  0.2134  0.0000  0.2134  0.0096 </r>
       </set>
       <set comment="band 4">
        <r>  0.0009  0.0121  0.0312  0.0121  0.1350  0.1033  0.0573  0.1033  0.0000 </r>
        <r>  0.0009  0.0121  0.0312  0.0121  0.1350  0.1033  0.0573  0.1033  0.0000 </r>
       </set>
       <set comment="band 5">
        <r>  0.0180  0.0439  0.0030  0.0439  0.0003  0.1661  0.0017  0.1661  0.0000 </r>
        <r>  0.0180  0.0439  0.0030  0.0439  0.0003  0.1661  0.0017  0.1661  0.0000 </r>
       </set>
       <set comment="band 6">
        <r>  0.0000  0.0421  0.0000  0.0421  0.0000  0.1586  0.0000  0.1586  0.0474 </r>
        <r>  0.0000  0.0421  0.0000  0.0421  0.0000  0.1586  0.0000  0.1586  0.0474 </r>
       </set>
       <set comment="band 7">
        <r>  0.0003  0.0000  0.0005  0.0000  0.0443  0.0018  0.4432  0.0018  0.0000 </r>
        <r>  0.0003  0.0000  0.0005  0.0000  0.0443  0.0018  0.4432  0.0018  0.0000 </r>
       </set>
       <set comment="band 8">
        <r>  0.0003  0.0002  0.0011  0.0002  0.0637  0.0067  0.4129  0.0067  0.0000 </r>
        <r>  0.0003  0.0002  0.0011  0.0002  0.0637  0.0067  0.4129  0.0067  0.0000 </r>
       </set>
       <set comment="band 9">
        <r>  0.0000  0.0000  0.0000  0.0000  0.0000  0.0056  0.0000  0.0056  0.4812 </r>
        <r>  0.0000  0.0000  0.0000  0.0000  0.0000  0.0056  0.0000  0.0056  0.4812 </r>
       </set>
       <set comment="band 10">
        <r>  0.0000  0.0010  0.0000  0.0010  0.0000  0.0264  0.0000  0.0264  0.4374 </r>
        <r>  0.0000  0.0010  0.0000  0.0010  0.0000  0.0264  0.0000  0.0264  0.4374 </r>
       </set>
       <set comment="band 11">
        <r>  0.0489  0.0601  0.0285  0.0601  0.0613  0.0852  0.0008  0.0852  0.0000 </r>
        <r>  0.0489  0.0601  0.0285  0.0601  0.0613  0.0852  0.0008  0.0852  0.0000 </r>
       </set>
      </set>
      <set comment="kpoint 115">
       <set comment="band 1">
        <r>  0.0156  0.0045  0.0286  0.0016  0.2318  0.0800  0.0227  0.0634  0.0009 </r>
        <r>  0.0140  0.0041  0.0256  0.0018  0.2589  0.0717  0.0204  0.0708  0.0008 </r>
       </set>
       <set comment="band 2">
        <r>  0.0140  0.0041  0.0256  0.0018  0.2589  0.0717  0.0204  0.0708  0.0008 </r>
        <r>  0.0156  0.0045  0.0286  0.0016  0.2318  0.0800  0.0227  0.0634  0.0009 </r>
       </set>
       <set comment="band 3">
        <r>  0.0013  0.0157  0.0183  0.0088  0.0998  0.1034  0.0271  0.1838  0.0026 </r>
        <r>  0.0013  0.0159  0.0185  0.0087  0.0988  0.1044  0.0274  0.1820  0.0026 </r>
       </set>
       <set comment="band 4">
        <r>  0.0013  0.0159  0.0185  0.0087  0.0988  0.1044  0.0274  0.1820  0.0026 </r>
        <r>  0.0013  0.0157  0.0183  0.0088  0.0998  0.1034  0.0271  0.1838  0.0026 </r>
       </set>
       <set comment="band 5">
        <r>  0.0064  0.0546  0.0017  0.0272  0.0002  0.3130  0.0001  0.0688  0.0162 </r>
        <r>  0.0023  0.0199  0.0006  0.0747  0.0006  0.1141  0.0000  0.1886  0.0059 </r>
       </set>
       <set comment="band 6">
        <r>  0.0023  0.0199  0.0006  0.0747  0.0006  0.1141  0.0000  0.1886  0.0059 </r>
        <r>  0.0064  0.0546  0.0017  0.0272  0.0002  0.3130  0.0001  0.0688  0.0162 </r>
       </set>
       <set comment="band 7">
        <r>  0.0003  0.0001  0.0006  0.0000  0.0468  0.0001  0.4157  0.0078  0.0332 </r>
        <r>  0.0003  0.0001  0.0006  0.0000  0.0500  0.0000  0.3890  0.0083  0.0311 </r>
       </set>
       <set comment="band 8">
        <r>  0.0003  0.0001  0.0006  0.0000  0.0500  0.0000  0.3890  0.0083  0.0311 </r>
        <r>  0.0003  0.0001  0.0006  0.0000  0.0468  0.0001  0.4157  0.0078  0.0332 </r>
       </set>
       <set comment="band 9">
        <r>  0.0001  0.0002  0.0001  0.0003  0.0044  0.0022  0.0284  0.0108  0.3909 </r>
        <r>  0.0002  0.0003  0.0001  0.0002  0.0034  0.0028  0.0360  0.0085  0.4963 </r>
       </set>
       <set comment="band 10">
        <r>  0.0002  0.0003  0.0001  0.0002  0.0034  0.0028  0.0360  0.0085  0.4963 </r>
        <r>  0.0001  0.0002  0.0001  0.0003  0.0044  0.0022  0.0284  0.0108  0.3909 </r>
       </set>
       <set comment="band 11">
        <r>  0.0453  0.1128  0.0286  0.0375  0.0135  0.1454  0.0019  0.0320  0.0039 </r>
        <r>  0.0112  0.0278  0.0070  0.1521  0.0549  0.0359  0.0005  0.1297  0.0010 </r>
       </set>
      </set>
      <set comment="kpoint 116">
       <set comment="band 1">
        <r>  0.0027  0.0000  0.0079  0.0000  0.6341  0.0000  0.0076  0.0000  0.0000 </r>
        <r>  0.0286  0.0000  0.0842  0.0000  0.0598  0.0000  0.0804  0.0000  0.0000 </r>
       </set>
       <set comment="band 2">
        <r>  0.0286  0.0000  0.0842  0.0000  0.0598  0.0000  0.0804  0.0000  0.0000 </r>
        <r>  0.0027  0.0000  0.0079  0.0000  0.6341  0.0000  0.0076  0.0000  0.0000 </r>
       </set>
       <set comment="band 3">
        <r>  0.0000  0.0029  0.0000  0.0277  0.0000  0.0416  0.0000  0.3937  0.0000 </r>
        <r>  0.0000  0.0277  0.0000  0.0029  0.0000  0.3937  0.0000  0.0416  0.0000 </r>
       </set>
       <set comment="band 4">
        <r>  0.0000  0.0277  0.0000  0.0029  0.0000  0.3937  0.0000  0.0416  0.0000 </r>
        <r>  0.0000  0.0029  0.0000  0.0277  0.0000  0.0416  0.0000  0.3937  0.0000 </r>
       </set>
       <set comment="band 5">
        <r>  0.0000  0.0053  0.0000  0.0855  0.0000  0.0209  0.0000  0.3372  0.0000 </r>
        <r>  0.0000  0.0855  0.0000  0.0053  0.0000  0.3372  0.0000  0.0209  0.0000 </r>
       </set>
       <set comment="band 6">
        <r>  0.0000  0.0855  0.0000  0.0053  0.0000  0.3372  0.0000  0.0209  0.0000 </r>
        <r>  0.0000  0.0053  0.0000  0.0855  0.0000  0.0209  0.0000  0.3372  0.0000 </r>
       </set>
       <set comment="band 7">
        <r>  0.0007  0.0000  0.0009  0.0000  0.0283  0.0000  0.6358  0.0000  0.0000 </r>
        <r>  0.0003  0.0000  0.0003  0.0000  0.0736  0.0000  0.2445  0.0000  0.0000 </r>
       </set>
       <set comment="band 8">
        <r>  0.0003  0.0000  0.0003  0.0000  0.0736  0.0000  0.2445  0.0000  0.0000 </r>
        <r>  0.0007  0.0000  0.0009  0.0000  0.0283  0.0000  0.6358  0.0000  0.0000 </r>
       </set>
       <set comment="band 9">
        <r>  0.0000  0.0000  0.0000  0.0000  0.0000  0.0000  0.0000  0.0000  0.8172 </r>
        <r>  0.0000  0.0000  0.0000  0.0000  0.0000  0.0000  0.0000  0.0000  0.1682 </r>
       </set>
       <set comment="band 10">
        <r>  0.0000  0.0000  0.0000  0.0000  0.0000  0.0000  0.0000  0.0000  0.1682 </r>
        <r>  0.0000  0.0000  0.0000  0.0000  0.0000  0.0000  0.0000  0.0000  0.8172 </r>
       </set>
       <set comment="band 11">
        <r>  0.0000  0.1756  0.0000  0.0394  0.0000  0.1618  0.0000  0.0363  0.0000 </r>
        <r>  0.0000  0.0394  0.0000  0.1756  0.0000  0.0363  0.0000  0.1618  0.0000 </r>
       </set>
      </set>
      <set comment="kpoint 117">
       <set comment="band 1">
        <r>  0.0091  0.0093  0.0093  0.0093  0.1421  0.1421  0.0000  0.1421  0.0000 </r>
        <r>  0.0091  0.0093  0.0093  0.0093  0.1421  0.1421  0.0000  0.1421  0.0000 </r>
       </set>
       <set comment="band 2">
        <r>  0.0000  0.0175  0.0030  0.0211  0.0289  0.2061  0.0015  0.1711  0.0125 </r>
        <r>  0.0000  0.0175  0.0030  0.0211  0.0289  0.2061  0.0015  0.1711  0.0125 </r>
       </set>
       <set comment="band 3">
        <r>  0.0000  0.0102  0.0248  0.0066  0.2418  0.0646  0.0125  0.0996  0.0015 </r>
        <r>  0.0000  0.0102  0.0248  0.0066  0.2418  0.0646  0.0125  0.0996  0.0015 </r>
       </set>
       <set comment="band 4">
        <r>  0.0000  0.0112  0.0448  0.0137  0.2267  0.0695  0.0290  0.0568  0.0011 </r>
        <r>  0.0000  0.0112  0.0448  0.0137  0.2267  0.0695  0.0290  0.0568  0.0011 </r>
       </set>
       <set comment="band 5">
        <r>  0.0000  0.0353  0.0017  0.0328  0.0086  0.1658  0.0011  0.1785  0.0290 </r>
        <r>  0.0000  0.0353  0.0017  0.0328  0.0086  0.1658  0.0011  0.1785  0.0290 </r>
       </set>
       <set comment="band 6">
        <r>  0.0177  0.0287  0.0287  0.0287  0.1135  0.1135  0.0000  0.1135  0.0000 </r>
        <r>  0.0177  0.0287  0.0287  0.0287  0.1135  0.1135  0.0000  0.1135  0.0000 </r>
       </set>
       <set comment="band 7">
        <r>  0.0000  0.0000  0.0001  0.0000  0.0100  0.0013  0.4403  0.0049  0.0359 </r>
        <r>  0.0000  0.0000  0.0001  0.0000  0.0100  0.0013  0.4403  0.0049  0.0359 </r>
       </set>
       <set comment="band 8">
        <r>  0.0000  0.0001  0.0000  0.0001  0.0008  0.0095  0.0359  0.0058  0.4403 </r>
        <r>  0.0000  0.0001  0.0000  0.0001  0.0008  0.0095  0.0359  0.0058  0.4403 </r>
       </set>
       <set comment="band 9">
        <r>  0.0000  0.0004  0.0002  0.0003  0.0070  0.0113  0.1402  0.0160  0.3171 </r>
        <r>  0.0000  0.0004  0.0002  0.0003  0.0070  0.0113  0.1402  0.0160  0.3171 </r>
       </set>
       <set comment="band 10">
        <r>  0.0000  0.0002  0.0004  0.0003  0.0159  0.0116  0.3171  0.0069  0.1402 </r>
        <r>  0.0000  0.0002  0.0004  0.0003  0.0159  0.0116  0.3171  0.0069  0.1402 </r>
       </set>
       <set comment="band 11">
        <r>  0.0465  0.0537  0.0537  0.0537  0.0721  0.0721  0.0000  0.0721  0.0000 </r>
        <r>  0.0465  0.0537  0.0537  0.0537  0.0721  0.0721  0.0000  0.0721  0.0000 </r>
       </set>
      </set>
      <set comment="kpoint 118">
       <set comment="band 1">
        <r>  0.0047  0.0130  0.0130  0.0107  0.1401  0.1409  0.0007  0.1401  0.0022 </r>
        <r>  0.0050  0.0140  0.0140  0.0099  0.1301  0.1518  0.0008  0.1301  0.0024 </r>
       </set>
       <set comment="band 2">
        <r>  0.0050  0.0140  0.0140  0.0099  0.1301  0.1518  0.0008  0.1301  0.0024 </r>
        <r>  0.0047  0.0130  0.0130  0.0107  0.1401  0.1409  0.0007  0.1401  0.0022 </r>
       </set>
       <set comment="band 3">
        <r>  0.0000  0.0363  0.0363  0.0000  0.1315  0.0000  0.0199  0.1315  0.0066 </r>
        <r>  0.0000  0.0190  0.0190  0.0000  0.2503  0.0000  0.0105  0.2503  0.0035 </r>
       </set>
       <set comment="band 4">
        <r>  0.0000  0.0190  0.0190  0.0000  0.2503  0.0000  0.0105  0.2503  0.0035 </r>
        <r>  0.0000  0.0363  0.0363  0.0000  0.1315  0.0000  0.0199  0.1315  0.0066 </r>
       </set>
       <set comment="band 5">
        <r>  0.0041  0.0148  0.0148  0.0475  0.0547  0.2594  0.0012  0.0547  0.0036 </r>
        <r>  0.0038  0.0139  0.0139  0.0508  0.0585  0.2424  0.0011  0.0585  0.0034 </r>
       </set>
       <set comment="band 6">
        <r>  0.0038  0.0139  0.0139  0.0508  0.0585  0.2424  0.0011  0.0585  0.0034 </r>
        <r>  0.0041  0.0148  0.0148  0.0475  0.0547  0.2594  0.0012  0.0547  0.0036 </r>
       </set>
       <set comment="band 7">
        <r>  0.0000  0.0001  0.0001  0.0000  0.0135  0.0000  0.2953  0.0135  0.0984 </r>
        <r>  0.0000  0.0002  0.0002  0.0000  0.0098  0.0000  0.4080  0.0098  0.1360 </r>
       </set>
       <set comment="band 8">
        <r>  0.0000  0.0002  0.0002  0.0000  0.0098  0.0000  0.4080  0.0098  0.1360 </r>
        <r>  0.0000  0.0001  0.0001  0.0000  0.0135  0.0000  0.2953  0.0135  0.0984 </r>
       </set>
       <set comment="band 9">
        <r>  0.0000  0.0001  0.0001  0.0001  0.0042  0.0006  0.1200  0.0042  0.3599 </r>
        <r>  0.0000  0.0001  0.0001  0.0001  0.0041  0.0006  0.1218  0.0041  0.3655 </r>
       </set>
       <set comment="band 10">
        <r>  0.0000  0.0001  0.0001  0.0001  0.0041  0.0006  0.1218  0.0041  0.3655 </r>
        <r>  0.0000  0.0001  0.0001  0.0001  0.0042  0.0006  0.1200  0.0042  0.3599 </r>
       </set>
       <set comment="band 11">
        <r>  0.0524  0.0905  0.0905  0.0063  0.0038  0.1701  0.0009  0.0038  0.0026 </r>
        <r>  0.0018  0.0032  0.0032  0.1795  0.1096  0.0059  0.0000  0.1096  0.0001 </r>
       </set>
      </set>
      <set comment="kpoint 119">
       <set comment="band 1">
        <r>  0.0000  0.0384  0.0000  0.0052  0.0000  0.3688  0.0000  0.0495  0.0000 </r>
        <r>  0.0000  0.0052  0.0000  0.0384  0.0000  0.0495  0.0000  0.3688  0.0000 </r>
       </set>
       <set comment="band 2">
        <r>  0.0000  0.0052  0.0000  0.0384  0.0000  0.0495  0.0000  0.3688  0.0000 </r>
        <r>  0.0000  0.0384  0.0000  0.0052  0.0000  0.3688  0.0000  0.0495  0.0000 </r>
       </set>
       <set comment="band 3">
        <r>  0.0035  0.0000  0.0440  0.0000  0.4596  0.0000  0.0106  0.0000  0.0000 </r>
        <r>  0.0052  0.0000  0.0657  0.0000  0.3077  0.0000  0.0158  0.0000  0.0000 </r>
       </set>
       <set comment="band 4">
        <r>  0.0052  0.0000  0.0657  0.0000  0.3077  0.0000  0.0158  0.0000  0.0000 </r>
        <r>  0.0035  0.0000  0.0440  0.0000  0.4596  0.0000  0.0106  0.0000  0.0000 </r>
       </set>
       <set comment="band 5">
        <r>  0.0000  0.0693  0.0000  0.0047  0.0000  0.3551  0.0000  0.0241  0.0000 </r>
        <r>  0.0000  0.0047  0.0000  0.0693  0.0000  0.0241  0.0000  0.3551  0.0000 </r>
       </set>
       <set comment="band 6">
        <r>  0.0000  0.0047  0.0000  0.0693  0.0000  0.0241  0.0000  0.3551  0.0000 </r>
        <r>  0.0000  0.0693  0.0000  0.0047  0.0000  0.3551  0.0000  0.0241  0.0000 </r>
       </set>
       <set comment="band 7">
        <r>  0.0000  0.0000  0.0000  0.0000  0.0297  0.0000  0.0240  0.0000  0.0000 </r>
        <r>  0.0001  0.0000  0.0004  0.0000  0.0008  0.0000  0.9303  0.0000  0.0000 </r>
       </set>
       <set comment="band 8">
        <r>  0.0001  0.0000  0.0004  0.0000  0.0008  0.0000  0.9303  0.0000  0.0000 </r>
        <r>  0.0000  0.0000  0.0000  0.0000  0.0297  0.0000  0.0240  0.0000  0.0000 </r>
       </set>
       <set comment="band 9">
        <r>  0.0000  0.0000  0.0000  0.0000  0.0000  0.0000  0.0000  0.0000  0.4863 </r>
        <r>  0.0000  0.0000  0.0000  0.0000  0.0000  0.0000  0.0000  0.0000  0.4993 </r>
       </set>
       <set comment="band 10">
        <r>  0.0000  0.0000  0.0000  0.0000  0.0000  0.0000  0.0000  0.0000  0.4993 </r>
        <r>  0.0000  0.0000  0.0000  0.0000  0.0000  0.0000  0.0000  0.0000  0.4863 </r>
       </set>
       <set comment="band 11">
        <r>  0.0000  0.0012  0.0000  0.2103  0.0000  0.0011  0.0000  0.1989  0.0000 </r>
        <r>  0.0000  0.2103  0.0000  0.0012  0.0000  0.1989  0.0000  0.0011  0.0000 </r>
       </set>
      </set>
      <set comment="kpoint 120">
       <set comment="band 1">
        <r>  0.0000  0.0361  0.0143  0.0077  0.2468  0.1300  0.0000  0.0220  0.0000 </r>
        <r>  0.0000  0.0032  0.0359  0.0189  0.0984  0.0532  0.0000  0.2481  0.0000 </r>
       </set>
       <set comment="band 2">
        <r>  0.0000  0.0220  0.0098  0.0268  0.1143  0.1908  0.0000  0.0906  0.0000 </r>
        <r>  0.0000  0.0132  0.0166  0.0278  0.0676  0.1842  0.0000  0.1510  0.0000 </r>
       </set>
       <set comment="band 3">
        <r>  0.0000  0.0150  0.0262  0.0049  0.0417  0.0426  0.0000  0.3978  0.0000 </r>
        <r>  0.0000  0.0579  0.0061  0.0062  0.1799  0.0337  0.0000  0.1029  0.0000 </r>
       </set>
       <set comment="band 4">
        <r>  0.0000  0.0203  0.0195  0.0193  0.1295  0.1274  0.0000  0.1355  0.0000 </r>
        <r>  0.0000  0.0197  0.0188  0.0185  0.1339  0.1327  0.0000  0.1395  0.0000 </r>
       </set>
       <set comment="band 5">
        <r>  0.0000  0.0102  0.0156  0.0450  0.0131  0.2449  0.0000  0.0547  0.0000 </r>
        <r>  0.0000  0.0080  0.0019  0.0356  0.1070  0.3089  0.0000  0.0698  0.0000 </r>
       </set>
       <set comment="band 6">
        <r>  0.0000  0.0127  0.0308  0.0125  0.2531  0.0628  0.0000  0.0979  0.0000 </r>
        <r>  0.0000  0.0143  0.0368  0.0091  0.2116  0.0859  0.0000  0.0872  0.0000 </r>
       </set>
       <set comment="band 7">
        <r>  0.0000  0.0000  0.0000  0.0000  0.0000  0.0000  0.1452  0.0000  0.0391 </r>
        <r>  0.0000  0.0000  0.0000  0.0000  0.0000  0.0000  0.0319  0.0000  0.7695 </r>
       </set>
       <set comment="band 8">
        <r>  0.0000  0.0000  0.0000  0.0000  0.0000  0.0000  0.1640  0.0000  0.0195 </r>
        <r>  0.0000  0.0000  0.0000  0.0000  0.0000  0.0000  0.8013  0.0000  0.0008 </r>
       </set>
       <set comment="band 9">
        <r>  0.0000  0.0000  0.0000  0.0000  0.0000  0.0000  0.2291  0.0000  0.4610 </r>
        <r>  0.0000  0.0000  0.0000  0.0000  0.0000  0.0000  0.1117  0.0000  0.1839 </r>
       </set>
       <set comment="band 10">
        <r>  0.0000  0.0000  0.0000  0.0000  0.0000  0.0000  0.4473  0.0000  0.4661 </r>
        <r>  0.0000  0.0000  0.0000  0.0000  0.0000  0.0000  0.0407  0.0000  0.0315 </r>
       </set>
       <set comment="band 11">
        <r>  0.0000  0.0112  0.1234  0.0204  0.0478  0.1292  0.0000  0.0763  0.0000 </r>
        <r>  0.0000  0.0767  0.0480  0.1298  0.1228  0.0203  0.0000  0.0112  0.0000 </r>
       </set>
      </set>
     </set>
    </set>
   </array>
  </projected>
 </calculation>
 <structure name="finalpos" >
  <crystal>
   <varray name="basis" >
    <v>       2.82900888       0.00000000       0.00000000 </v>
    <v>       0.00000000       2.82900888       0.00000000 </v>
    <v>       0.00000000       0.00000000       2.82900888 </v>
   </varray>
   <i name="volume">     22.64138204 </i>
   <varray name="rec_basis" >
    <v>       0.35348069       0.00000000       0.00000000 </v>
    <v>       0.00000000       0.35348069       0.00000000 </v>
    <v>       0.00000000       0.00000000       0.35348069 </v>
   </varray>
  </crystal>
  <varray name="positions" >
   <v>       0.00000000       0.00000000       0.00000000 </v>
   <v>       0.50000000       0.50000000       0.50000000 </v>
  </varray>
 </structure>
</modeling>
