 vasp.5.4.4.18Apr17-6-g9f103f2a35 (build Dec 20 2018 12:05:58) complex          
  
 executed on             LinuxIFC date 2019.06.20  19:51:44
 running on   32 total cores
 distrk:  each k-point on    8 cores,    4 groups
 distr:  one band on NCORES_PER_BAND=   4 cores,    2 groups


--------------------------------------------------------------------------------------------------------


 INCAR:
 POTCAR:    PAW_PBE Al 04Jan2001                  
 POTCAR:    PAW_PBE Mn 06Sep2000                  

 ----------------------------------------------------------------------------- 
|                                                                             |
|           W    W    AA    RRRRR   N    N  II  N    N   GGGG   !!!           |
|           W    W   A  A   R    R  NN   N  II  NN   N  G    G  !!!           |
|           W    W  A    A  R    R  N N  N  II  N N  N  G       !!!           |
|           W WW W  AAAAAA  RRRRR   N  N N  II  N  N N  G  GGG   !            |
|           WW  WW  A    A  R   R   N   NN  II  N   NN  G    G                |
|           W    W  A    A  R    R  N    N  II  N    N   GGGG   !!!           |
|                                                                             |
|      You have enabled k-point parallelism (KPAR>1).                         |
|      This developmental code was originally  written by Paul Kent at ORNL,  |
|      and carefully double checked in Vienna.                                |
|      GW as well as linear response parallelism added by Martijn Marsman     |
|      and Georg Kresse.                                                      |
|      Carefully verify results versus KPAR=1.                                |
|      Report problems to Paul Kent and Vienna.                               |
|                                                                             |
 ----------------------------------------------------------------------------- 

 POTCAR:    PAW_PBE Al 04Jan2001                  
   VRHFIN =Al: s2p1                                                             
   LEXCH  = PE                                                                  
   EATOM  =    53.5387 eV,    3.9350 Ry                                         
                                                                                
   TITEL  = PAW_PBE Al 04Jan2001                                                
   LULTRA =        F    use ultrasoft PP ?                                      
   IUNSCR =        1    unscreen: 0-lin 1-nonlin 2-no                           
   RPACOR =    1.500    partial core radius                                     
   POMASS =   26.981; ZVAL   =    3.000    mass and valenz                      
   RCORE  =    1.900    outmost cutoff radius                                   
   RWIGS  =    2.650; RWIGS  =    1.402    wigner-seitz radius (au A)           
   ENMAX  =  240.300; ENMIN  =  180.225 eV                                      
   ICORE  =        2    local potential                                         
   LCOR   =        T    correct aug charges                                     
   LPAW   =        T    paw PP                                                  
   EAUG   =  291.052                                                            
   DEXC   =    0.000                                                            
   RMAX   =    1.939    core radius for proj-oper                               
   RAUG   =    1.300    factor for augmentation sphere                          
   RDEP   =    1.966    radius for radial grids                                 
   RDEPT  =    1.856    core radius for aug-charge                              
                                                                                
   Atomic configuration                                                         
    6 entries                                                                   
     n  l   j            E        occ.                                          
     1  0  0.50     -1511.1048   2.0000                                         
     2  0  0.50      -108.1629   2.0000                                         
     2  1  1.50       -69.6402   6.0000                                         
     3  0  0.50        -7.7528   2.0000                                         
     3  1  1.50        -2.7121   1.0000                                         
     3  2  2.50        -2.7212   0.0000                                         
   Description                                                                  
     l       E           TYP  RCUT    TYP  RCUT                                 
     0     -7.7528455     23  1.900                                             
     0     -3.3096929     23  1.900                                             
     1     -2.7120682     23  1.900                                             
     1     13.6058260     23  1.900                                             
     2     -2.7211652      7  1.900                                             
  local pseudopotential read in
  partial core-charges read in
  partial kinetic energy density read in
  atomic valenz-charges read in
  non local Contribution for L=           0  read in
    real space projection operators read in
  non local Contribution for L=           0  read in
    real space projection operators read in
  non local Contribution for L=           1  read in
    real space projection operators read in
  non local Contribution for L=           1  read in
    real space projection operators read in
    PAW grid and wavefunctions read in
 
   number of l-projection  operators is LMAX  =           4
   number of lm-projection operators is LMMAX =           8
 
 POTCAR:    PAW_PBE Mn 06Sep2000                  
   VRHFIN =Mn: d6 s1                                                            
   LEXCH  = PE                                                                  
   EATOM  =   416.7541 eV,   30.6306 Ry                                         
                                                                                
   TITEL  = PAW_PBE Mn 06Sep2000                                                
   LULTRA =        F    use ultrasoft PP ?                                      
   IUNSCR =        1    unscreen: 0-lin 1-nonlin 2-no                           
   RPACOR =    2.000    partial core radius                                     
   POMASS =   54.938; ZVAL   =    7.000    mass and valenz                      
   RCORE  =    2.300    outmost cutoff radius                                   
   RWIGS  =    2.500; RWIGS  =    1.323    wigner-seitz radius (au A)           
   ENMAX  =  269.864; ENMIN  =  202.398 eV                                      
   RCLOC  =    1.725    cutoff for local pot                                    
   LCOR   =        T    correct aug charges                                     
   LPAW   =        T    paw PP                                                  
   EAUG   =  500.711                                                            
   DEXC   =    0.000                                                            
   RMAX   =    2.343    core radius for proj-oper                               
   RAUG   =    1.300    factor for augmentation sphere                          
   RDEP   =    2.338    radius for radial grids                                 
   RDEPT  =    1.911    core radius for aug-charge                              
                                                                                
   Atomic configuration                                                         
    9 entries                                                                   
     n  l   j            E        occ.                                          
     1  0  0.50     -6424.8288   2.0000                                         
     2  0  0.50      -739.1154   2.0000                                         
     2  1  1.50      -625.3949   6.0000                                         
     3  0  0.50       -81.6100   2.0000                                         
     3  1  1.50       -50.4667   6.0000                                         
     3  2  2.50        -3.3745   6.0000                                         
     4  0  0.50        -4.1331   1.0000                                         
     4  1  0.50        -4.0817   0.0000                                         
     4  3  2.50        -1.3606   0.0000                                         
   Description                                                                  
     l       E           TYP  RCUT    TYP  RCUT                                 
     2     -3.3744664     23  2.300                                             
     2     -4.7350490     23  2.300                                             
     0     -4.1331408     23  2.300                                             
     0      7.6656614     23  2.300                                             
     1     -2.7211652     23  2.300                                             
     1     20.4087390     23  2.300                                             
  local pseudopotential read in
  partial core-charges read in
  partial kinetic energy density read in
  atomic valenz-charges read in
  non local Contribution for L=           2  read in
    real space projection operators read in
  non local Contribution for L=           2  read in
    real space projection operators read in
  non local Contribution for L=           0  read in
    real space projection operators read in
  non local Contribution for L=           0  read in
    real space projection operators read in
  non local Contribution for L=           1  read in
    real space projection operators read in
  non local Contribution for L=           1  read in
    real space projection operators read in
    PAW grid and wavefunctions read in
 
   number of l-projection  operators is LMAX  =           6
   number of lm-projection operators is LMMAX =          18
 

 ----------------------------------------------------------------------------- 
|                                                                             |
|  ADVICE TO THIS USER RUNNING 'VASP/VAMP'   (HEAR YOUR MASTER'S VOICE ...):  |
|                                                                             |
|      You have a (more or less) 'large supercell' and for larger cells       |
|      it might be more efficient to use real space projection opertators     |
|      So try LREAL= Auto  in the INCAR   file.                               |
|      Mind:          For very  accurate calculation you might also keep the  |
|      reciprocal projection scheme          (i.e. LREAL=.FALSE.)             |
|                                                                             |
 ----------------------------------------------------------------------------- 

  PAW_PBE Al 04Jan2001                  :
 energy of atom  1       EATOM=  -53.5387
 kinetic energy error for atom=    0.0005 (will be added to EATOM!!)
  PAW_PBE Mn 06Sep2000                  :
 energy of atom  2       EATOM= -416.7541
 kinetic energy error for atom=    0.0080 (will be added to EATOM!!)
 
 
 POSCAR: NewRef: 27, @ ['Mn', array([1.37502469, 
  positions in cartesian coordinates
  velocities in cartesian coordinates
  No initial velocities read in
 exchange correlation table for  LEXCH =        8
   RHO(1)=    0.500       N(1)  =     2000
   RHO(2)=  100.500       N(2)  =     4000
 


--------------------------------------------------------------------------------------------------------


 ion  position               nearest neighbor table
   1  0.000  0.000  0.000-  28 2.61  30 2.61  34 2.61  36 2.61  46 2.61  48 2.61  52 2.61  54 2.61
                             4 2.75  10 2.75   7 2.75  19 2.75
   2  0.000  0.000  0.333-  28 2.61  34 2.61  46 2.61  52 2.61  29 2.61  47 2.61  35 2.61  53 2.61
                             5 2.75  11 2.75   8 2.75  20 2.75
   3  0.000  0.000  0.667-  29 2.61  35 2.61  47 2.61  53 2.61  30 2.61  48 2.61  36 2.61  54 2.61
                             6 2.75  12 2.75   9 2.75  21 2.75
   4  0.000  0.333  0.000-  28 2.61  30 2.61  46 2.61  48 2.61  31 2.61  33 2.61  49 2.61  51 2.61
                            13 2.75   1 2.75   7 2.75  22 2.75
   5  0.000  0.333  0.333-  28 2.61  46 2.61  31 2.61  49 2.61  47 2.61  29 2.61  32 2.61  50 2.61
                            14 2.75   2 2.75   8 2.75  23 2.75
   6  0.000  0.333  0.667-  29 2.61  47 2.61  32 2.61  50 2.61  48 2.61  30 2.61  33 2.61  51 2.61
                            15 2.75   3 2.75   9 2.75  24 2.75
   7  0.000  0.667  0.000-  31 2.61  33 2.61  49 2.61  51 2.61  34 2.61  36 2.61  52 2.61  54 2.61
                             4 2.75  16 2.75   1 2.75  25 2.75
   8  0.000  0.667  0.333-  31 2.61  49 2.61  34 2.61  52 2.61  50 2.61  32 2.61  35 2.61  53 2.61
                             5 2.75  17 2.75   2 2.75  26 2.75
   9  0.000  0.667  0.667-  32 2.61  50 2.61  35 2.61  53 2.61  51 2.61  33 2.61  36 2.61  54 2.61
                             6 2.75  18 2.75   3 2.75  27 2.75
  10  0.333  0.000  0.000-  28 2.61  30 2.61  34 2.61  36 2.61  37 2.61  39 2.61  43 2.61  45 2.61
                            19 2.75   1 2.75  13 2.75  16 2.75
  11  0.333  0.000  0.333-  28 2.61  34 2.61  37 2.61  43 2.61  29 2.61  35 2.61  38 2.61  44 2.61
                            20 2.75   2 2.75  14 2.75  17 2.75
  12  0.333  0.000  0.667-  29 2.61  35 2.61  38 2.61  44 2.61  30 2.61  36 2.61  39 2.61  45 2.61
                            21 2.75   3 2.75  15 2.75  18 2.75
  13  0.333  0.333  0.000-  28 2.61  30 2.61  31 2.61  33 2.61  37 2.61  39 2.61  40 2.61  42 2.61
                             4 2.75  10 2.75  16 2.75  22 2.75
  14  0.333  0.333  0.333-  28 2.61  31 2.61  37 2.61  29 2.61  40 2.61  38 2.61  32 2.61  41 2.61
                             5 2.75  11 2.75  17 2.75  23 2.75
  15  0.333  0.333  0.667-  29 2.61  32 2.61  38 2.61  30 2.61  41 2.61  39 2.61  33 2.61  42 2.61
                             6 2.75  12 2.75  18 2.75  24 2.75
  16  0.333  0.667  0.000-  31 2.61  33 2.61  34 2.61  36 2.61  40 2.61  42 2.61  43 2.61  45 2.61
                            25 2.75   7 2.75  13 2.75  10 2.75
  17  0.333  0.667  0.333-  31 2.61  34 2.61  40 2.61  32 2.61  43 2.61  41 2.61  35 2.61  44 2.61
                            26 2.75   8 2.75  14 2.75  11 2.75
  18  0.333  0.667  0.667-  32 2.61  35 2.61  41 2.61  33 2.61  44 2.61  42 2.61  36 2.61  45 2.61
                            27 2.75   9 2.75  15 2.75  12 2.75
  19  0.667  0.000  0.000-  37 2.61  39 2.61  43 2.61  45 2.61  46 2.61  48 2.61  52 2.61  54 2.61
                            10 2.75  22 2.75   1 2.75  25 2.75
  20  0.667  0.000  0.333-  37 2.61  43 2.61  46 2.61  52 2.61  38 2.61  44 2.61  47 2.61  53 2.61
                            11 2.75  23 2.75   2 2.75  26 2.75
  21  0.667  0.000  0.667-  38 2.61  44 2.61  47 2.61  53 2.61  39 2.61  45 2.61  48 2.61  54 2.61
                            12 2.75  24 2.75   3 2.75  27 2.75
  22  0.667  0.333  0.000-  37 2.61  39 2.61  40 2.61  42 2.61  46 2.61  48 2.61  49 2.61  51 2.61
                            25 2.75  13 2.75  19 2.75   4 2.75
  23  0.667  0.333  0.333-  37 2.61  40 2.61  46 2.61  38 2.61  49 2.61  47 2.61  41 2.61  50 2.61
                            26 2.75  14 2.75  20 2.75   5 2.75
  24  0.667  0.333  0.667-  38 2.61  41 2.61  47 2.61  39 2.61  50 2.61  48 2.61  42 2.61  51 2.61
                            27 2.75  15 2.75  21 2.75   6 2.75
  25  0.667  0.667  0.000-  40 2.61  42 2.61  43 2.61  45 2.61  49 2.61  51 2.61  52 2.61  54 2.61
                            16 2.75  22 2.75  19 2.75   7 2.75
  26  0.667  0.667  0.333-  40 2.61  43 2.61  49 2.61  41 2.61  52 2.61  50 2.61  44 2.61  53 2.61
                            17 2.75  23 2.75  20 2.75   8 2.75
  27  0.667  0.667  0.667-  41 2.61  44 2.61  50 2.61  42 2.61  53 2.61  51 2.61  45 2.61  54 2.61
                            18 2.75  24 2.75  21 2.75   9 2.75
  28  0.167  0.167  0.167-  14 2.61  11 2.61   5 2.61  13 2.61   2 2.61  10 2.61   4 2.61   1 2.61
                            31 2.75  37 2.75  34 2.75  46 2.75
  29  0.167  0.167  0.500-  15 2.61  12 2.61   6 2.61  14 2.61   3 2.61  11 2.61   5 2.61   2 2.61
                            32 2.75  38 2.75  35 2.75  47 2.75
  30  0.167  0.167  0.833-  13 2.61  15 2.61  10 2.61  12 2.61   4 2.61   6 2.61   1 2.61   3 2.61
                            33 2.75  39 2.75  36 2.75  48 2.75
  31  0.167  0.500  0.167-  17 2.61  14 2.61   8 2.61  16 2.61   5 2.61  13 2.61   7 2.61   4 2.61
                            28 2.75  34 2.75  40 2.75  49 2.75
  32  0.167  0.500  0.500-  18 2.61  15 2.61   9 2.61  17 2.61   6 2.61  14 2.61   8 2.61   5 2.61
                            29 2.75  35 2.75  41 2.75  50 2.75
  33  0.167  0.500  0.833-  16 2.61  18 2.61  13 2.61  15 2.61   7 2.61   9 2.61   4 2.61   6 2.61
                            30 2.75  36 2.75  42 2.75  51 2.75
  34  0.167  0.833  0.167-  11 2.61  17 2.61   2 2.61   8 2.61  16 2.61  10 2.61   7 2.61   1 2.61
                            31 2.75  43 2.75  28 2.75  52 2.75
  35  0.167  0.833  0.500-  12 2.61  18 2.61   3 2.61   9 2.61  17 2.61  11 2.61   8 2.61   2 2.61
                            32 2.75  44 2.75  29 2.75  53 2.75
  36  0.167  0.833  0.833-  10 2.61  12 2.61  16 2.61  18 2.61   1 2.61   3 2.61   7 2.61   9 2.61
                            33 2.75  45 2.75  30 2.75  54 2.75
  37  0.500  0.167  0.167-  23 2.61  20 2.61  14 2.61  22 2.61  11 2.61  19 2.61  13 2.61  10 2.61
                            28 2.75  40 2.75  46 2.75  43 2.75
  38  0.500  0.167  0.500-  24 2.61  21 2.61  15 2.61  23 2.61  12 2.61  20 2.61  14 2.61  11 2.61
                            29 2.75  41 2.75  47 2.75  44 2.75
  39  0.500  0.167  0.833-  22 2.61  24 2.61  19 2.61  21 2.61  13 2.61  15 2.61  10 2.61  12 2.61
                            30 2.75  42 2.75  48 2.75  45 2.75
  40  0.500  0.500  0.167-  26 2.61  23 2.61  17 2.61  25 2.61  14 2.61  22 2.61  16 2.61  13 2.61
                            31 2.75  37 2.75  43 2.75  49 2.75
  41  0.500  0.500  0.500-  27 2.61  24 2.61  18 2.61  26 2.61  15 2.61  23 2.61  17 2.61  14 2.61
                            32 2.75  38 2.75  44 2.75  50 2.75
  42  0.500  0.500  0.833-  25 2.61  27 2.61  22 2.61  24 2.61  16 2.61  18 2.61  13 2.61  15 2.61
                            33 2.75  39 2.75  45 2.75  51 2.75
  43  0.500  0.833  0.167-  20 2.61  26 2.61  11 2.61  17 2.61  25 2.61  19 2.61  16 2.61  10 2.61
                            34 2.75  40 2.75  52 2.75  37 2.75
  44  0.500  0.833  0.500-  21 2.61  27 2.61  12 2.61  18 2.61  26 2.61  20 2.61  17 2.61  11 2.61
                            35 2.75  41 2.75  53 2.75  38 2.75
  45  0.500  0.833  0.833-  19 2.61  21 2.61  25 2.61  27 2.61  10 2.61  12 2.61  16 2.61  18 2.61
                            36 2.75  42 2.75  54 2.75  39 2.75
  46  0.833  0.167  0.167-   5 2.61  23 2.61  20 2.61   2 2.61  22 2.61   4 2.61  19 2.61   1 2.61
                            37 2.75  49 2.75  28 2.75  52 2.75
  47  0.833  0.167  0.500-   6 2.61  24 2.61  21 2.61   3 2.61  23 2.61   5 2.61  20 2.61   2 2.61
                            38 2.75  50 2.75  29 2.75  53 2.75
  48  0.833  0.167  0.833-   4 2.61   6 2.61  22 2.61  24 2.61  19 2.61  21 2.61   1 2.61   3 2.61
                            39 2.75  51 2.75  30 2.75  54 2.75
  49  0.833  0.500  0.167-   8 2.61  26 2.61  23 2.61   5 2.61  25 2.61   7 2.61  22 2.61   4 2.61
                            40 2.75  46 2.75  52 2.75  31 2.75
  50  0.833  0.500  0.500-   9 2.61  27 2.61  24 2.61   6 2.61  26 2.61   8 2.61  23 2.61   5 2.61
                            41 2.75  47 2.75  53 2.75  32 2.75
  51  0.833  0.500  0.833-   7 2.61   9 2.61  25 2.61  27 2.61  22 2.61  24 2.61   4 2.61   6 2.61
                            42 2.75  48 2.75  54 2.75  33 2.75
  52  0.833  0.833  0.167-   2 2.61   8 2.61  20 2.61  26 2.61  19 2.61   7 2.61  25 2.61   1 2.61
                            43 2.75  49 2.75  46 2.75  34 2.75
  53  0.833  0.833  0.500-   3 2.61   9 2.61  21 2.61  27 2.61  20 2.61   8 2.61  26 2.61   2 2.61
                            44 2.75  50 2.75  47 2.75  35 2.75
  54  0.833  0.833  0.833-   1 2.61   3 2.61   7 2.61   9 2.61  19 2.61  21 2.61  25 2.61  27 2.61
                            45 2.75  51 2.75  48 2.75  36 2.75
 
  LATTYP: Found a simple tetragonal cell.
 ALAT       =     8.2501481662
 C/A-ratio  =     1.2642089792
  
  Lattice vectors:
  
 A1 = (   8.2501481662,   0.0000000000,   0.0000000000)
 A2 = (   0.0000000000,   8.2501481662,   0.0000000000)
 A3 = (   0.0000000000,   0.0000000000,  10.4299113916)


Analysis of symmetry for initial positions (statically):
=====================================================================
 Subroutine PRICEL returns following result:
 
  LATTYP: Found a simple tetragonal cell.
 ALAT       =     2.7500493888
 C/A-ratio  =     1.2642089792
  
  Lattice vectors:
  
 A1 = (   2.7500493888,   0.0000000000,   0.0000000000)
 A2 = (   0.0000000000,   2.7500493888,   0.0000000000)
 A3 = (   0.0000000000,   0.0000000000,   3.4766371306)
 
  27 primitive cells build up your supercell.
 

 Routine SETGRP: Setting up the symmetry group for a 
 simple tetragonal supercell.


 Subroutine GETGRP returns: Found 16 space group operations
 (whereof 16 operations were pure point group operations)
 out of a pool of 16 trial point group operations.


The static configuration has the point symmetry D_4h.


Analysis of symmetry for dynamics (positions and initial velocities):
=====================================================================
 Subroutine PRICEL returns following result:
 
  LATTYP: Found a simple tetragonal cell.
 ALAT       =     2.7500493888
 C/A-ratio  =     1.2642089792
  
  Lattice vectors:
  
 A1 = (   2.7500493888,   0.0000000000,   0.0000000000)
 A2 = (   0.0000000000,   2.7500493888,   0.0000000000)
 A3 = (   0.0000000000,   0.0000000000,   3.4766371306)
 
  27 primitive cells build up your supercell.
 

 Routine SETGRP: Setting up the symmetry group for a 
 simple tetragonal supercell.


 Subroutine GETGRP returns: Found 16 space group operations
 (whereof 16 operations were pure point group operations)
 out of a pool of 16 trial point group operations.


The dynamic configuration has the point symmetry D_4h.


Analysis of structural, dynamic, and magnetic symmetry:
=====================================================================
 Subroutine PRICEL returns:
 Original cell was already a primitive cell.
 

 Routine SETGRP: Setting up the symmetry group for a 
 simple tetragonal supercell.


 Subroutine GETGRP returns: Found  4 space group operations
 (whereof  4 operations were pure point group operations)
 out of a pool of 16 trial point group operations.


The magnetic configuration has the point symmetry C_2v.


 Subroutine INISYM returns: Found  4 space group operations
 (whereof  4 operations are pure point group operations),
 and found     1 'primitive' translations

 
 
 KPOINTS: automatic KPOINTS                       

Automatic generation of k-mesh.
 generate k-points for:    5    5    4
Space group operators:
 irot       det(A)        alpha          n_x          n_y          n_z        tau_x        tau_y        tau_z
    1     1.000000     0.000001     1.000000     0.000000     0.000000     0.000000     0.000000     0.000000
    2    -1.000000   180.000000     0.000000     0.000000     1.000000     0.000000     0.000000     0.000000
    3     1.000000   180.000000     0.707107     0.707107     0.000000     0.000000     0.000000     0.000000
    4    -1.000000   180.000000     0.707107    -0.707107     0.000000     0.000000     0.000000     0.000000
 
 Subroutine IBZKPT returns following result:
 ===========================================
 
 Found     27 irreducible k-points:
 
 Following reciprocal coordinates:
            Coordinates               Weight
  0.000000  0.000000  0.000000      1.000000
  0.200000  0.000000  0.000000      4.000000
  0.400000  0.000000  0.000000      4.000000
  0.200000  0.200000  0.000000      2.000000
  0.400000  0.200000  0.000000      4.000000
 -0.400000  0.200000  0.000000      4.000000
 -0.200000  0.200000  0.000000      2.000000
  0.400000  0.400000  0.000000      2.000000
 -0.400000  0.400000  0.000000      2.000000
  0.000000  0.000000  0.250000      2.000000
  0.200000  0.000000  0.250000      8.000000
  0.400000  0.000000  0.250000      8.000000
  0.200000  0.200000  0.250000      4.000000
  0.400000  0.200000  0.250000      8.000000
 -0.400000  0.200000  0.250000      8.000000
 -0.200000  0.200000  0.250000      4.000000
  0.400000  0.400000  0.250000      4.000000
 -0.400000  0.400000  0.250000      4.000000
  0.000000  0.000000  0.500000      1.000000
  0.200000  0.000000  0.500000      4.000000
  0.400000  0.000000  0.500000      4.000000
  0.200000  0.200000  0.500000      2.000000
  0.400000  0.200000  0.500000      4.000000
 -0.400000  0.200000  0.500000      4.000000
 -0.200000  0.200000  0.500000      2.000000
  0.400000  0.400000  0.500000      2.000000
 -0.400000  0.400000  0.500000      2.000000
 
 Following cartesian coordinates:
            Coordinates               Weight
  0.000000  0.000000  0.000000      1.000000
  0.024242  0.000000  0.000000      4.000000
  0.048484  0.000000  0.000000      4.000000
  0.024242  0.024242  0.000000      2.000000
  0.048484  0.024242  0.000000      4.000000
 -0.048484  0.024242  0.000000      4.000000
 -0.024242  0.024242  0.000000      2.000000
  0.048484  0.048484  0.000000      2.000000
 -0.048484  0.048484  0.000000      2.000000
  0.000000  0.000000  0.023970      2.000000
  0.024242  0.000000  0.023970      8.000000
  0.048484  0.000000  0.023970      8.000000
  0.024242  0.024242  0.023970      4.000000
  0.048484  0.024242  0.023970      8.000000
 -0.048484  0.024242  0.023970      8.000000
 -0.024242  0.024242  0.023970      4.000000
  0.048484  0.048484  0.023970      4.000000
 -0.048484  0.048484  0.023970      4.000000
  0.000000  0.000000  0.047939      1.000000
  0.024242  0.000000  0.047939      4.000000
  0.048484  0.000000  0.047939      4.000000
  0.024242  0.024242  0.047939      2.000000
  0.048484  0.024242  0.047939      4.000000
 -0.048484  0.024242  0.047939      4.000000
 -0.024242  0.024242  0.047939      2.000000
  0.048484  0.048484  0.047939      2.000000
 -0.048484  0.048484  0.047939      2.000000
 


--------------------------------------------------------------------------------------------------------




 Dimension of arrays:
   k-points           NKPTS =     27   k-points in BZ     NKDIM =     27   number of bands    NBANDS=    186
   number of dos      NEDOS =    301   number of ions     NIONS =     54
   non local maximal  LDIM  =      6   non local SUM 2l+1 LMDIM =     18
   total plane-waves  NPLWV = 204120
   max r-space proj   IRMAX =      1   max aug-charges    IRDMAX=  89713
   dimension x,y,z NGX =    54 NGY =   54 NGZ =   70
   dimension x,y,z NGXF=   108 NGYF=  108 NGZF=  140
   support grid    NGXF=   216 NGYF=  216 NGZF=  280
   ions per type =              27  27
   NGX,Y,Z   is equivalent  to a cutoff of  10.88, 10.88, 11.16 a.u.
   NGXF,Y,Z  is equivalent  to a cutoff of  21.76, 21.76, 22.32 a.u.

 SYSTEM =  AlMn_pv                                 
 POSCAR =  NewRef: 27, @ ['Mn', array([1.37502469, 

 Startparameter for this run:
   NWRITE =      2    write-flag & timer
   PREC   = accura    normal or accurate (medium, high low for compatibility)
   ISTART =      0    job   : 0-new  1-cont  2-samecut
   ICHARG =      2    charge: 1-file 2-atom 10-const
   ISPIN  =      2    spin polarized calculation?
   LNONCOLLINEAR =      F non collinear calculations
   LSORBIT =      F    spin-orbit coupling
   INIWAV =      1    electr: 0-lowe 1-rand  2-diag
   LASPH  =      F    aspherical Exc in radial PAW
   METAGGA=      F    non-selfconsistent MetaGGA calc.

 Electronic Relaxation 1
   ENCUT  =  404.8 eV  29.75 Ry    5.45 a.u.  13.53 13.53 17.11*2*pi/ulx,y,z
   ENINI  =  404.8     initial cutoff
   ENAUG  =  500.7 eV  augmentation charge cutoff
   NELM   =    100;   NELMIN=  4; NELMDL= -8     # of ELM steps 
   EDIFF  = 0.1E-06   stopping-criterion for ELM
   LREAL  =      F    real-space projection
   NLSPLINE    = F    spline interpolate recip. space projectors
   LCOMPAT=      F    compatible to vasp.4.4
   GGA_COMPAT  = T    GGA compatible to vasp.4.4-vasp.4.6
   LMAXPAW     = -100 max onsite density
   LMAXMIX     =    2 max onsite mixed and CHGCAR
   VOSKOWN=      0    Vosko Wilk Nusair interpolation
   ROPT   =    0.00000   0.00000
 Ionic relaxation
   EDIFFG = 0.1E-05   stopping-criterion for IOM
   NSW    =      0    number of steps for IOM
   NBLOCK =      1;   KBLOCK =      1    inner block; outer block 
   IBRION =     -1    ionic relax: 0-MD 1-quasi-New 2-CG
   NFREE  =      0    steps in history (QN), initial steepest desc. (CG)
   ISIF   =      2    stress and relaxation
   IWAVPR =     10    prediction:  0-non 1-charg 2-wave 3-comb
   ISYM   =      2    0-nonsym 1-usesym 2-fastsym
   LCORR  =      T    Harris-Foulkes like correction to forces

   POTIM  = 0.2000    time-step for ionic-motion
   TEIN   =    0.0    initial temperature
   TEBEG  =    0.0;   TEEND  =   0.0 temperature during run
   SMASS  =  -3.00    Nose mass-parameter (am)
   estimated Nose-frequenzy (Omega)   =  0.10E-29 period in steps =****** mass=  -0.156E-26a.u.
   SCALEE = 1.0000    scale energy and forces
   NPACO  =    256;   APACO  = 16.0  distance and # of slots for P.C.
   PSTRESS=    0.0 pullay stress

  Mass of Ions in am
   POMASS =  26.98 54.94
  Ionic Valenz
   ZVAL   =   3.00  7.00
  Atomic Wigner-Seitz radii
   RWIGS  =  -1.00 -1.00
  virtual crystal weights 
   VCA    =   1.00  1.00
   NELECT =     270.0000    total number of electrons
   NUPDOWN=      -1.0000    fix difference up-down

 DOS related values:
   EMIN   =  10.00;   EMAX   =-10.00  energy-range for DOS
   EFERMI =   0.00
   ISMEAR =     1;   SIGMA  =   0.20  broadening in eV -4-tet -1-fermi 0-gaus

 Electronic relaxation 2 (details)
   IALGO  =     58    algorithm
   LDIAG  =      T    sub-space diagonalisation (order eigenvalues)
   LSUBROT=      F    optimize rotation matrix (better conditioning)
   TURBO    =      0    0=normal 1=particle mesh
   IRESTART =      0    0=no restart 2=restart with 2 vectors
   NREBOOT  =      0    no. of reboots
   NMIN     =      0    reboot dimension
   EREF     =   0.00    reference energy to select bands
   IMIX   =      4    mixing-type and parameters
     AMIX     =   0.40;   BMIX     =  1.00
     AMIX_MAG =   1.60;   BMIX_MAG =  1.00
     AMIN     =   0.10
     WC   =   100.;   INIMIX=   1;  MIXPRE=   1;  MAXMIX= -45

 Intra band minimization:
   WEIMIN = 0.0000     energy-eigenvalue tresh-hold
   EBREAK =  0.13E-09  absolut break condition
   DEPER  =   0.30     relativ break condition  

   TIME   =   0.40     timestep for ELM

  volume/ion in A,a.u.               =      13.15        88.72
  Fermi-wavevector in a.u.,A,eV,Ry     =   1.186118  2.241439 19.141722  1.406877
  Thomas-Fermi vector in A             =   2.322298
 
 Write flags
   LWAVE        =      F    write WAVECAR
   LDOWNSAMPLE  =      F    k-point downsampling of WAVECAR
   LCHARG       =      F    write CHGCAR
   LVTOT        =      F    write LOCPOT, total local potential
   LVHAR        =      F    write LOCPOT, Hartree potential only
   LELF         =      F    write electronic localiz. function (ELF)
   LORBIT       =     10    0 simple, 1 ext, 2 COOP (PROOUT), +10 PAW based schemes


 Dipole corrections
   LMONO  =      F    monopole corrections only (constant potential shift)
   LDIPOL =      F    correct potential (dipole corrections)
   IDIPOL =      0    1-x, 2-y, 3-z, 4-all directions 
   EPSILON=  1.0000000 bulk dielectric constant

 Exchange correlation treatment:
   GGA     =    --    GGA type
   LEXCH   =     8    internal setting for exchange type
   VOSKOWN=      0    Vosko Wilk Nusair interpolation
   LHFCALC =     F    Hartree Fock is set to
   LHFONE  =     F    Hartree Fock one center treatment
   AEXX    =    0.0000 exact exchange contribution

 Linear response parameters
   LEPSILON=     F    determine dielectric tensor
   LRPA    =     F    only Hartree local field effects (RPA)
   LNABLA  =     F    use nabla operator in PAW spheres
   LVEL    =     F    velocity operator in full k-point grid
   LINTERFAST=   F  fast interpolation
   KINTER  =     0    interpolate to denser k-point grid
   CSHIFT  =0.1000    complex shift for real part using Kramers Kronig
   OMEGAMAX=  -1.0    maximum frequency
   DEG_THRESHOLD= 0.2000000E-02 threshold for treating states as degnerate
   RTIME   =   -0.100 relaxation time in fs
  (WPLASMAI=    0.000 imaginary part of plasma frequency in eV, 0.658/RTIME)
   DFIELD  = 0.0000000 0.0000000 0.0000000 field for delta impulse in time
 
 Orbital magnetization related:
   ORBITALMAG=     F  switch on orbital magnetization
   LCHIMAG   =     F  perturbation theory with respect to B field
   DQ        =  0.001000  dq finite difference perturbation B field
   LLRAUG    =     F  two centre corrections for induced B field



--------------------------------------------------------------------------------------------------------


 Static calculation
 charge density and potential will be updated during run
 spin polarized calculation
 Conjugate gradient for all bands (Freysoldt, et al. PRB 79, 241103 (2009))
 preconditioned conjugated gradient                                        
 perform sub-space diagonalisation
    before iterative eigenvector-optimisation
 modified Broyden-mixing scheme, WC =      100.0
 initial mixing is a Kerker type mixing with AMIX =  0.4000 and BMIX =      1.0000
 Hartree-type preconditioning will be used
 using additional bands           51
 reciprocal scheme for non local part
 use partial core corrections
 no Harris-corrections to forces 
 use gradient corrections 
 use of overlap-Matrix (Vanderbilt PP)
 Methfessel and Paxton  Order N= 1 SIGMA  =   0.20


--------------------------------------------------------------------------------------------------------


  energy-cutoff  :      404.80
  volume of cell :      709.91
      direct lattice vectors                 reciprocal lattice vectors
     8.250148166  0.000000000  0.000000000     0.121209944  0.000000000  0.000000000
     0.000000000  8.250148166  0.000000000     0.000000000  0.121209944  0.000000000
     0.000000000  0.000000000 10.429911392     0.000000000  0.000000000  0.095878092

  length of vectors
     8.250148166  8.250148166 10.429911392     0.121209944  0.121209944  0.095878092


 
 k-points in units of 2pi/SCALE and weight: automatic KPOINTS                       
   0.00000000  0.00000000  0.00000000       0.010
   0.02424199  0.00000000  0.00000000       0.040
   0.04848398  0.00000000  0.00000000       0.040
   0.02424199  0.02424199  0.00000000       0.020
   0.04848398  0.02424199  0.00000000       0.040
  -0.04848398  0.02424199  0.00000000       0.040
  -0.02424199  0.02424199  0.00000000       0.020
   0.04848398  0.04848398  0.00000000       0.020
  -0.04848398  0.04848398  0.00000000       0.020
   0.00000000  0.00000000  0.02396952       0.020
   0.02424199  0.00000000  0.02396952       0.080
   0.04848398  0.00000000  0.02396952       0.080
   0.02424199  0.02424199  0.02396952       0.040
   0.04848398  0.02424199  0.02396952       0.080
  -0.04848398  0.02424199  0.02396952       0.080
  -0.02424199  0.02424199  0.02396952       0.040
   0.04848398  0.04848398  0.02396952       0.040
  -0.04848398  0.04848398  0.02396952       0.040
   0.00000000  0.00000000  0.04793905       0.010
   0.02424199  0.00000000  0.04793905       0.040
   0.04848398  0.00000000  0.04793905       0.040
   0.02424199  0.02424199  0.04793905       0.020
   0.04848398  0.02424199  0.04793905       0.040
  -0.04848398  0.02424199  0.04793905       0.040
  -0.02424199  0.02424199  0.04793905       0.020
   0.04848398  0.04848398  0.04793905       0.020
  -0.04848398  0.04848398  0.04793905       0.020
 
 k-points in reciprocal lattice and weights: automatic KPOINTS                       
   0.00000000  0.00000000  0.00000000       0.010
   0.20000000  0.00000000  0.00000000       0.040
   0.40000000  0.00000000  0.00000000       0.040
   0.20000000  0.20000000  0.00000000       0.020
   0.40000000  0.20000000  0.00000000       0.040
  -0.40000000  0.20000000  0.00000000       0.040
  -0.20000000  0.20000000  0.00000000       0.020
   0.40000000  0.40000000  0.00000000       0.020
  -0.40000000  0.40000000  0.00000000       0.020
   0.00000000  0.00000000  0.25000000       0.020
   0.20000000  0.00000000  0.25000000       0.080
   0.40000000  0.00000000  0.25000000       0.080
   0.20000000  0.20000000  0.25000000       0.040
   0.40000000  0.20000000  0.25000000       0.080
  -0.40000000  0.20000000  0.25000000       0.080
  -0.20000000  0.20000000  0.25000000       0.040
   0.40000000  0.40000000  0.25000000       0.040
  -0.40000000  0.40000000  0.25000000       0.040
   0.00000000  0.00000000  0.50000000       0.010
   0.20000000  0.00000000  0.50000000       0.040
   0.40000000  0.00000000  0.50000000       0.040
   0.20000000  0.20000000  0.50000000       0.020
   0.40000000  0.20000000  0.50000000       0.040
  -0.40000000  0.20000000  0.50000000       0.040
  -0.20000000  0.20000000  0.50000000       0.020
   0.40000000  0.40000000  0.50000000       0.020
  -0.40000000  0.40000000  0.50000000       0.020
 
 position of ions in fractional coordinates (direct lattice) 
   0.00000000  0.00000000  0.00000000
   0.00000000  0.00000000  0.33333333
   0.00000000  0.00000000  0.66666667
   0.00000000  0.33333333  0.00000000
   0.00000000  0.33333333  0.33333333
   0.00000000  0.33333333  0.66666667
   0.00000000  0.66666667  0.00000000
   0.00000000  0.66666667  0.33333333
   0.00000000  0.66666667  0.66666667
   0.33333333  0.00000000  0.00000000
   0.33333333  0.00000000  0.33333333
   0.33333333  0.00000000  0.66666667
   0.33333333  0.33333333  0.00000000
   0.33333333  0.33333333  0.33333333
   0.33333333  0.33333333  0.66666667
   0.33333333  0.66666667  0.00000000
   0.33333333  0.66666667  0.33333333
   0.33333333  0.66666667  0.66666667
   0.66666667  0.00000000  0.00000000
   0.66666667  0.00000000  0.33333333
   0.66666667  0.00000000  0.66666667
   0.66666667  0.33333333  0.00000000
   0.66666667  0.33333333  0.33333333
   0.66666667  0.33333333  0.66666667
   0.66666667  0.66666667  0.00000000
   0.66666667  0.66666667  0.33333333
   0.66666667  0.66666667  0.66666667
   0.16666667  0.16666667  0.16666667
   0.16666667  0.16666667  0.50000000
   0.16666667  0.16666667  0.83333333
   0.16666667  0.50000000  0.16666667
   0.16666667  0.50000000  0.50000000
   0.16666667  0.50000000  0.83333333
   0.16666667  0.83333333  0.16666667
   0.16666667  0.83333333  0.50000000
   0.16666667  0.83333333  0.83333333
   0.50000000  0.16666667  0.16666667
   0.50000000  0.16666667  0.50000000
   0.50000000  0.16666667  0.83333333
   0.50000000  0.50000000  0.16666667
   0.50000000  0.50000000  0.50000000
   0.50000000  0.50000000  0.83333333
   0.50000000  0.83333333  0.16666667
   0.50000000  0.83333333  0.50000000
   0.50000000  0.83333333  0.83333333
   0.83333333  0.16666667  0.16666667
   0.83333333  0.16666667  0.50000000
   0.83333333  0.16666667  0.83333333
   0.83333333  0.50000000  0.16666667
   0.83333333  0.50000000  0.50000000
   0.83333333  0.50000000  0.83333333
   0.83333333  0.83333333  0.16666667
   0.83333333  0.83333333  0.50000000
   0.83333333  0.83333333  0.83333333
 
 position of ions in cartesian coordinates  (Angst):
   0.00000000  0.00000000  0.00000000
   0.00000000  0.00000000  3.47663713
   0.00000000  0.00000000  6.95327426
   0.00000000  2.75004939  0.00000000
   0.00000000  2.75004939  3.47663713
   0.00000000  2.75004939  6.95327426
   0.00000000  5.50009878  0.00000000
   0.00000000  5.50009878  3.47663713
   0.00000000  5.50009878  6.95327426
   2.75004939  0.00000000  0.00000000
   2.75004939  0.00000000  3.47663713
   2.75004939  0.00000000  6.95327426
   2.75004939  2.75004939  0.00000000
   2.75004939  2.75004939  3.47663713
   2.75004939  2.75004939  6.95327426
   2.75004939  5.50009878  0.00000000
   2.75004939  5.50009878  3.47663713
   2.75004939  5.50009878  6.95327426
   5.50009878  0.00000000  0.00000000
   5.50009878  0.00000000  3.47663713
   5.50009878  0.00000000  6.95327426
   5.50009878  2.75004939  0.00000000
   5.50009878  2.75004939  3.47663713
   5.50009878  2.75004939  6.95327426
   5.50009878  5.50009878  0.00000000
   5.50009878  5.50009878  3.47663713
   5.50009878  5.50009878  6.95327426
   1.37502469  1.37502469  1.73831857
   1.37502469  1.37502469  5.21495570
   1.37502469  1.37502469  8.69159283
   1.37502469  4.12507408  1.73831857
   1.37502469  4.12507408  5.21495570
   1.37502469  4.12507408  8.69159283
   1.37502469  6.87512347  1.73831857
   1.37502469  6.87512347  5.21495570
   1.37502469  6.87512347  8.69159283
   4.12507408  1.37502469  1.73831857
   4.12507408  1.37502469  5.21495570
   4.12507408  1.37502469  8.69159283
   4.12507408  4.12507408  1.73831857
   4.12507408  4.12507408  5.21495570
   4.12507408  4.12507408  8.69159283
   4.12507408  6.87512347  1.73831857
   4.12507408  6.87512347  5.21495570
   4.12507408  6.87512347  8.69159283
   6.87512347  1.37502469  1.73831857
   6.87512347  1.37502469  5.21495570
   6.87512347  1.37502469  8.69159283
   6.87512347  4.12507408  1.73831857
   6.87512347  4.12507408  5.21495570
   6.87512347  4.12507408  8.69159283
   6.87512347  6.87512347  1.73831857
   6.87512347  6.87512347  5.21495570
   6.87512347  6.87512347  8.69159283
 


--------------------------------------------------------------------------------------------------------


 k-point  1 :   0.0000 0.0000 0.0000  plane waves:   13099
 k-point  2 :   0.2000 0.0000 0.0000  plane waves:   13101
 k-point  3 :   0.4000 0.0000 0.0000  plane waves:   13111
 k-point  4 :   0.2000 0.2000 0.0000  plane waves:   13137
 k-point  5 :   0.4000 0.2000 0.0000  plane waves:   13119
 k-point  6 :  -0.4000 0.2000 0.0000  plane waves:   13119
 k-point  7 :  -0.2000 0.2000 0.0000  plane waves:   13137
 k-point  8 :   0.4000 0.4000 0.0000  plane waves:   13129
 k-point  9 :  -0.4000 0.4000 0.0000  plane waves:   13129
 k-point 10 :   0.0000 0.0000 0.2500  plane waves:   13134
 k-point 11 :   0.2000 0.0000 0.2500  plane waves:   13149
 k-point 12 :   0.4000 0.0000 0.2500  plane waves:   13119
 k-point 13 :   0.2000 0.2000 0.2500  plane waves:   13145
 k-point 14 :   0.4000 0.2000 0.2500  plane waves:   13134
 k-point 15 :  -0.4000 0.2000 0.2500  plane waves:   13134
 k-point 16 :  -0.2000 0.2000 0.2500  plane waves:   13145
 k-point 17 :   0.4000 0.4000 0.2500  plane waves:   13108
 k-point 18 :  -0.4000 0.4000 0.2500  plane waves:   13108
 k-point 19 :   0.0000 0.0000 0.5000  plane waves:   13186
 k-point 20 :   0.2000 0.0000 0.5000  plane waves:   13124
 k-point 21 :   0.4000 0.0000 0.5000  plane waves:   13152
 k-point 22 :   0.2000 0.2000 0.5000  plane waves:   13136
 k-point 23 :   0.4000 0.2000 0.5000  plane waves:   13128
 k-point 24 :  -0.4000 0.2000 0.5000  plane waves:   13128
 k-point 25 :  -0.2000 0.2000 0.5000  plane waves:   13136
 k-point 26 :   0.4000 0.4000 0.5000  plane waves:   13112
 k-point 27 :  -0.4000 0.4000 0.5000  plane waves:   13112

 maximum and minimum number of plane-waves per node :      3304     3246

 maximum number of plane-waves:     13186
 maximum index in each direction: 
   IXMAX=   13   IYMAX=   13   IZMAX=   17
   IXMIN=  -13   IYMIN=  -13   IZMIN=  -17


 parallel 3D FFT for wavefunctions:
    minimum data exchange during FFTs selected (reduces bandwidth)
 parallel 3D FFT for charge:
    minimum data exchange during FFTs selected (reduces bandwidth)


 total amount of memory used by VASP MPI-rank0   950766. kBytes
=======================================================================

   base      :      30000. kBytes
   nonl-proj :      28494. kBytes
   fftplans  :      31580. kBytes
   grid      :      21385. kBytes
   one-center:        435. kBytes
   wavefun   :     838872. kBytes
 
     INWAV:  cpu time    0.0000: real time    0.0000
 Broyden mixing: mesh for mixing (old mesh)
   NGX = 27   NGY = 27   NGZ = 35
  (NGX  =108   NGY  =108   NGZ  =140)
  gives a total of  25515 points

 initial charge density was supplied:
 charge density of overlapping atoms calculated
 number of electron     270.0000000 magnetization      45.0000000
 keeping initial charge density in first step


--------------------------------------------------------------------------------------------------------


 Maximum index for augmentation-charges        10967 (set IRDMAX)


--------------------------------------------------------------------------------------------------------


 First call to EWALD:  gamma=   0.199
 Maximum number of real-space cells 3x 3x 2
 Maximum number of reciprocal cells 3x 3x 3

    FEWALD:  cpu time    0.0275: real time    0.0275


--------------------------------------- Iteration      1(   1)  ---------------------------------------


    POTLOK:  cpu time    0.4170: real time    0.4181
    SETDIJ:  cpu time    0.4505: real time    0.4515
    TRIAL :  cpu time   34.1448: real time   34.5365
    CORREC:  cpu time    0.0058: real time    0.0067
    --------------------------------------------
      LOOP:  cpu time   35.3037: real time   35.7069

 eigenvalue-minimisations  : 20088
 total energy-change (2. order) : 0.2014816E+04  (-0.9026771E+04)
 number of electron     270.0000000 magnetization      45.0000000
 augmentation part      270.0000000 magnetization      45.0000000

 Free energy of the ion-electron system (eV)
  ---------------------------------------------------
  alpha Z        PSCENC =       798.38614055
  Ewald energy   TEWEN  =    -12901.57693327
  -Hartree energ DENC   =     -2855.60785864
  -exchange      EXHF   =         0.00000000
  -V(xc)+E(xc)   XCENC  =      -996.04783661
  PAW double counting   =     12741.82587617   -11476.22345381
  entropy T*S    EENTRO =         0.00419719
  eigenvalues    EBANDS =      4006.38181686
  atomic energy  EATOM  =     12697.67401269
  ---------------------------------------------------
  free energy    TOTEN  =      2014.81596111 eV

  energy without entropy =     2014.81176392  energy(sigma->0) =     2014.81456205


--------------------------------------------------------------------------------------------------------




--------------------------------------- Iteration      1(   2)  ---------------------------------------


    TRIAL :  cpu time   34.1202: real time   34.2969
    CORREC:  cpu time    0.0073: real time    0.0082
    --------------------------------------------
      LOOP:  cpu time   34.1307: real time   34.3085

 eigenvalue-minimisations  : 20088
 total energy-change (2. order) :-0.2137021E+04  (-0.2059190E+04)
 number of electron     270.0000000 magnetization      45.0000000
 augmentation part      270.0000000 magnetization      45.0000000

 Free energy of the ion-electron system (eV)
  ---------------------------------------------------
  alpha Z        PSCENC =       798.38614055
  Ewald energy   TEWEN  =    -12901.57693327
  -Hartree energ DENC   =     -2855.60785864
  -exchange      EXHF   =         0.00000000
  -V(xc)+E(xc)   XCENC  =      -996.04783661
  PAW double counting   =     12741.82587617   -11476.22345381
  entropy T*S    EENTRO =        -0.00305662
  eigenvalues    EBANDS =      1869.36823651
  atomic energy  EATOM  =     12697.67401269
  ---------------------------------------------------
  free energy    TOTEN  =      -122.20487305 eV

  energy without entropy =     -122.20181643  energy(sigma->0) =     -122.20385418


--------------------------------------------------------------------------------------------------------




--------------------------------------- Iteration      1(   3)  ---------------------------------------


    TRIAL :  cpu time   45.9498: real time   46.4253
    CORREC:  cpu time    0.0356: real time    0.0357
    --------------------------------------------
      LOOP:  cpu time   45.9864: real time   46.4647

 eigenvalue-minimisations  : 29940
 total energy-change (2. order) :-0.2432073E+03  (-0.2079457E+03)
 number of electron     270.0000000 magnetization      45.0000000
 augmentation part      270.0000000 magnetization      45.0000000

 Free energy of the ion-electron system (eV)
  ---------------------------------------------------
  alpha Z        PSCENC =       798.38614055
  Ewald energy   TEWEN  =    -12901.57693327
  -Hartree energ DENC   =     -2855.60785864
  -exchange      EXHF   =         0.00000000
  -V(xc)+E(xc)   XCENC  =      -996.04783661
  PAW double counting   =     12741.82587617   -11476.22345381
  entropy T*S    EENTRO =         0.00573927
  eigenvalues    EBANDS =      1626.15216103
  atomic energy  EATOM  =     12697.67401269
  ---------------------------------------------------
  free energy    TOTEN  =      -365.41215263 eV

  energy without entropy =     -365.41789190  energy(sigma->0) =     -365.41406572


--------------------------------------------------------------------------------------------------------




--------------------------------------- Iteration      1(   4)  ---------------------------------------


    TRIAL :  cpu time   49.6119: real time   50.0794
    CORREC:  cpu time    0.0086: real time    0.0094
    --------------------------------------------
      LOOP:  cpu time   49.6476: real time   50.1187

 eigenvalue-minimisations  : 32496
 total energy-change (2. order) :-0.3545075E+02  (-0.3080025E+02)
 number of electron     270.0000000 magnetization      45.0000000
 augmentation part      270.0000000 magnetization      45.0000000

 Free energy of the ion-electron system (eV)
  ---------------------------------------------------
  alpha Z        PSCENC =       798.38614055
  Ewald energy   TEWEN  =    -12901.57693327
  -Hartree energ DENC   =     -2855.60785864
  -exchange      EXHF   =         0.00000000
  -V(xc)+E(xc)   XCENC  =      -996.04783661
  PAW double counting   =     12741.82587617   -11476.22345381
  entropy T*S    EENTRO =         0.01617026
  eigenvalues    EBANDS =      1590.69098125
  atomic energy  EATOM  =     12697.67401269
  ---------------------------------------------------
  free energy    TOTEN  =      -400.86290143 eV

  energy without entropy =     -400.87907169  energy(sigma->0) =     -400.86829151


--------------------------------------------------------------------------------------------------------




--------------------------------------- Iteration      1(   5)  ---------------------------------------


    TRIAL :  cpu time   49.5998: real time   49.9796
    CORREC:  cpu time    0.0084: real time    0.0092
    --------------------------------------------
      LOOP:  cpu time   49.6117: real time   49.9925

 eigenvalue-minimisations  : 32456
 total energy-change (2. order) :-0.2796938E+01  (-0.2677982E+01)
 number of electron     270.0000000 magnetization      45.0000000
 augmentation part      270.0000000 magnetization      45.0000000

 Free energy of the ion-electron system (eV)
  ---------------------------------------------------
  alpha Z        PSCENC =       798.38614055
  Ewald energy   TEWEN  =    -12901.57693327
  -Hartree energ DENC   =     -2855.60785864
  -exchange      EXHF   =         0.00000000
  -V(xc)+E(xc)   XCENC  =      -996.04783661
  PAW double counting   =     12741.82587617   -11476.22345381
  entropy T*S    EENTRO =         0.01733916
  eigenvalues    EBANDS =      1587.89287386
  atomic energy  EATOM  =     12697.67401269
  ---------------------------------------------------
  free energy    TOTEN  =      -403.65983991 eV

  energy without entropy =     -403.67717907  energy(sigma->0) =     -403.66561963


--------------------------------------------------------------------------------------------------------




--------------------------------------- Iteration      1(   6)  ---------------------------------------


    TRIAL :  cpu time   49.5409: real time   49.9406
    CORREC:  cpu time    0.0086: real time    0.0095
    --------------------------------------------
      LOOP:  cpu time   49.5509: real time   49.9539

 eigenvalue-minimisations  : 32456
 total energy-change (2. order) :-0.2101559E+00  (-0.2070153E+00)
 number of electron     270.0000000 magnetization      45.0000000
 augmentation part      270.0000000 magnetization      45.0000000

 Free energy of the ion-electron system (eV)
  ---------------------------------------------------
  alpha Z        PSCENC =       798.38614055
  Ewald energy   TEWEN  =    -12901.57693327
  -Hartree energ DENC   =     -2855.60785864
  -exchange      EXHF   =         0.00000000
  -V(xc)+E(xc)   XCENC  =      -996.04783661
  PAW double counting   =     12741.82587617   -11476.22345381
  entropy T*S    EENTRO =         0.01800651
  eigenvalues    EBANDS =      1587.68205062
  atomic energy  EATOM  =     12697.67401269
  ---------------------------------------------------
  free energy    TOTEN  =      -403.86999581 eV

  energy without entropy =     -403.88800232  energy(sigma->0) =     -403.87599798


--------------------------------------------------------------------------------------------------------




--------------------------------------- Iteration      1(   7)  ---------------------------------------


    TRIAL :  cpu time   50.2731: real time   50.6422
    CORREC:  cpu time    0.0087: real time    0.0095
    --------------------------------------------
      LOOP:  cpu time   50.2832: real time   50.6556

 eigenvalue-minimisations  : 32960
 total energy-change (2. order) :-0.2164188E-01  (-0.2148789E-01)
 number of electron     270.0000000 magnetization      45.0000000
 augmentation part      270.0000000 magnetization      45.0000000

 Free energy of the ion-electron system (eV)
  ---------------------------------------------------
  alpha Z        PSCENC =       798.38614055
  Ewald energy   TEWEN  =    -12901.57693327
  -Hartree energ DENC   =     -2855.60785864
  -exchange      EXHF   =         0.00000000
  -V(xc)+E(xc)   XCENC  =      -996.04783661
  PAW double counting   =     12741.82587617   -11476.22345381
  entropy T*S    EENTRO =         0.01813527
  eigenvalues    EBANDS =      1587.66027997
  atomic energy  EATOM  =     12697.67401269
  ---------------------------------------------------
  free energy    TOTEN  =      -403.89163769 eV

  energy without entropy =     -403.90977297  energy(sigma->0) =     -403.89768278


--------------------------------------------------------------------------------------------------------




--------------------------------------- Iteration      1(   8)  ---------------------------------------


    TRIAL :  cpu time   48.9075: real time   49.1938
    CORREC:  cpu time    0.0089: real time    0.0099
    CHARGE:  cpu time    1.6568: real time    1.6569
    --------------------------------------------
      LOOP:  cpu time   50.5744: real time   50.8645

 eigenvalue-minimisations  : 31984
 total energy-change (2. order) :-0.1835643E-02  (-0.1828406E-02)
 number of electron     269.9999995 magnetization      32.4379042
 augmentation part       64.2333519 magnetization      18.6848150

 Free energy of the ion-electron system (eV)
  ---------------------------------------------------
  alpha Z        PSCENC =       798.38614055
  Ewald energy   TEWEN  =    -12901.57693327
  -Hartree energ DENC   =     -2855.60785864
  -exchange      EXHF   =         0.00000000
  -V(xc)+E(xc)   XCENC  =      -996.04783661
  PAW double counting   =     12741.82587617   -11476.22345381
  entropy T*S    EENTRO =         0.01813992
  eigenvalues    EBANDS =      1587.65843969
  atomic energy  EATOM  =     12697.67401269
  ---------------------------------------------------
  free energy    TOTEN  =      -403.89347334 eV

  energy without entropy =     -403.91161325  energy(sigma->0) =     -403.89951997


--------------------------------------------------------------------------------------------------------




--------------------------------------- Iteration      1(   9)  ---------------------------------------


    POTLOK:  cpu time    0.4046: real time    0.4047
    SETDIJ:  cpu time    0.4533: real time    0.4543
    TRIAL :  cpu time   17.0661: real time   17.3239
    CORREC:  cpu time    5.4155: real time    5.4438
    CHARGE:  cpu time    1.5601: real time    1.6532
    --------------------------------------------
      LOOP:  cpu time   24.9009: real time   25.2819

 eigenvalue-minimisations  :     0
 total energy-change (2. order) : 0.2988537E+03  (-0.2161573E+03)
 number of electron     269.9999993 magnetization      34.3329766
 augmentation part       82.7858750 magnetization      22.6043699

 Free energy of the ion-electron system (eV)
  ---------------------------------------------------
  alpha Z        PSCENC =       798.38614055
  Ewald energy   TEWEN  =    -12901.57693327
  -Hartree energ DENC   =     -1274.21003730
  -exchange      EXHF   =         0.00000000
  -V(xc)+E(xc)   XCENC  =     -1041.83511630
  PAW double counting   =     19173.02569974   -17753.59265959
  entropy T*S    EENTRO =        -0.00148178
  eigenvalues    EBANDS =       197.07095133
  atomic energy  EATOM  =     12697.67401269
  ---------------------------------------------------
  free energy    TOTEN  =      -105.03980224 eV

  energy without entropy =     -105.03832046  energy(sigma->0) =     -105.03930831


--------------------------------------------------------------------------------------------------------




--------------------------------------- Iteration      1(  10)  ---------------------------------------


    POTLOK:  cpu time    0.3926: real time    0.3925
    SETDIJ:  cpu time    0.4805: real time    0.4806
    TRIAL :  cpu time   17.0722: real time   17.1986
    CORREC:  cpu time    6.0036: real time    6.0051
    CHARGE:  cpu time    1.6371: real time    1.6371
    --------------------------------------------
      LOOP:  cpu time   25.5877: real time   25.7164

 eigenvalue-minimisations  :     0
 total energy-change (2. order) :-0.2141232E+03  (-0.1221174E+02)
 number of electron     269.9999993 magnetization      35.0243595
 augmentation part       86.6942035 magnetization      23.7360114

 Free energy of the ion-electron system (eV)
  ---------------------------------------------------
  alpha Z        PSCENC =       798.38614055
  Ewald energy   TEWEN  =    -12901.57693327
  -Hartree energ DENC   =     -2123.26928594
  -exchange      EXHF   =         0.00000000
  -V(xc)+E(xc)   XCENC  =     -1011.96969891
  PAW double counting   =     20771.13794715   -19536.72162476
  entropy T*S    EENTRO =        -0.00284806
  eigenvalues    EBANDS =       987.17795075
  atomic energy  EATOM  =     12697.67401269
  ---------------------------------------------------
  free energy    TOTEN  =      -319.16297352 eV

  energy without entropy =     -319.16012546  energy(sigma->0) =     -319.16202417


--------------------------------------------------------------------------------------------------------




--------------------------------------- Iteration      1(  11)  ---------------------------------------


    POTLOK:  cpu time    0.4180: real time    0.4180
    SETDIJ:  cpu time    0.4509: real time    0.4510
    TRIAL :  cpu time   17.8077: real time   18.0061
    CORREC:  cpu time    5.3555: real time    5.4505
    CHARGE:  cpu time    1.5974: real time    1.6033
    --------------------------------------------
      LOOP:  cpu time   25.6342: real time   25.9348

 eigenvalue-minimisations  :     0
 total energy-change (2. order) :-0.1159592E+02  (-0.9975967E+01)
 number of electron     269.9999992 magnetization      35.6839852
 augmentation part       88.9695495 magnetization      24.4953145

 Free energy of the ion-electron system (eV)
  ---------------------------------------------------
  alpha Z        PSCENC =       798.38614055
  Ewald energy   TEWEN  =    -12901.57693327
  -Hartree energ DENC   =     -2362.62294446
  -exchange      EXHF   =         0.00000000
  -V(xc)+E(xc)   XCENC  =     -1003.28043317
  PAW double counting   =     21640.96610946   -20444.05027377
  entropy T*S    EENTRO =         0.00178909
  eigenvalues    EBANDS =      1243.74827193
  atomic energy  EATOM  =     12697.67401269
  ---------------------------------------------------
  free energy    TOTEN  =      -330.75889811 eV

  energy without entropy =     -330.76068720  energy(sigma->0) =     -330.75949447


--------------------------------------------------------------------------------------------------------




--------------------------------------- Iteration      1(  12)  ---------------------------------------


    POTLOK:  cpu time    0.3927: real time    0.3929
    SETDIJ:  cpu time    0.4586: real time    0.4586
    TRIAL :  cpu time   17.1098: real time   17.2099
    CORREC:  cpu time    5.4140: real time    5.4759
    CHARGE:  cpu time    1.6024: real time    1.6024
    --------------------------------------------
      LOOP:  cpu time   24.9806: real time   25.1441

 eigenvalue-minimisations  :     0
 total energy-change (2. order) :-0.1008554E+02  (-0.1188169E+02)
 number of electron     269.9999993 magnetization      35.8871834
 augmentation part       87.0227496 magnetization      24.6777457

 Free energy of the ion-electron system (eV)
  ---------------------------------------------------
  alpha Z        PSCENC =       798.38614055
  Ewald energy   TEWEN  =    -12901.57693327
  -Hartree energ DENC   =     -2547.50045286
  -exchange      EXHF   =         0.00000000
  -V(xc)+E(xc)   XCENC  =      -997.03770235
  PAW double counting   =     21836.94465031   -20650.57895095
  entropy T*S    EENTRO =        -0.00557640
  eigenvalues    EBANDS =      1422.84300452
  atomic energy  EATOM  =     12697.67401269
  ---------------------------------------------------
  free energy    TOTEN  =      -340.84444227 eV

  energy without entropy =     -340.83886587  energy(sigma->0) =     -340.84258347


--------------------------------------------------------------------------------------------------------




--------------------------------------- Iteration      1(  13)  ---------------------------------------


    POTLOK:  cpu time    0.3920: real time    0.3920
    SETDIJ:  cpu time    0.4921: real time    0.4922
    TRIAL :  cpu time   17.7962: real time   17.8584
    CORREC:  cpu time    5.3113: real time    5.4508
    CHARGE:  cpu time    1.6101: real time    1.6241
    --------------------------------------------
      LOOP:  cpu time   25.6043: real time   25.8213

 eigenvalue-minimisations  :     0
 total energy-change (2. order) :-0.1176710E+02  (-0.1068745E+01)
 number of electron     269.9999993 magnetization      35.8291683
 augmentation part       86.4597834 magnetization      24.5969977

 Free energy of the ion-electron system (eV)
  ---------------------------------------------------
  alpha Z        PSCENC =       798.38614055
  Ewald energy   TEWEN  =    -12901.57693327
  -Hartree energ DENC   =     -2536.29718967
  -exchange      EXHF   =         0.00000000
  -V(xc)+E(xc)   XCENC  =      -998.53607302
  PAW double counting   =     21163.98924186   -19928.11054131
  entropy T*S    EENTRO =        -0.01128446
  eigenvalues    EBANDS =      1351.86537211
  atomic energy  EATOM  =     12697.67401269
  ---------------------------------------------------
  free energy    TOTEN  =      -352.61154646 eV

  energy without entropy =     -352.60026201  energy(sigma->0) =     -352.60778498


--------------------------------------------------------------------------------------------------------




--------------------------------------- Iteration      1(  14)  ---------------------------------------


    POTLOK:  cpu time    0.3922: real time    0.3924
    SETDIJ:  cpu time    0.4678: real time    0.4678
    TRIAL :  cpu time   17.1463: real time   17.2818
    CORREC:  cpu time    5.3783: real time    5.3886
    CHARGE:  cpu time    1.6131: real time    1.6135
    --------------------------------------------
      LOOP:  cpu time   24.9997: real time   25.1481

 eigenvalue-minimisations  :     0
 total energy-change (2. order) :-0.1040313E+01  (-0.9693779E+00)
 number of electron     269.9999992 magnetization      35.9088833
 augmentation part       86.0109329 magnetization      24.4510435

 Free energy of the ion-electron system (eV)
  ---------------------------------------------------
  alpha Z        PSCENC =       798.38614055
  Ewald energy   TEWEN  =    -12901.57693327
  -Hartree energ DENC   =     -2509.43562860
  -exchange      EXHF   =         0.00000000
  -V(xc)+E(xc)   XCENC  =      -999.56252261
  PAW double counting   =     20940.34504247   -19695.05514114
  entropy T*S    EENTRO =        -0.00859308
  eigenvalues    EBANDS =      1315.58445456
  atomic energy  EATOM  =     12697.67401269
  ---------------------------------------------------
  free energy    TOTEN  =      -353.65185980 eV

  energy without entropy =     -353.64326672  energy(sigma->0) =     -353.64899544


--------------------------------------------------------------------------------------------------------




--------------------------------------- Iteration      1(  15)  ---------------------------------------


    POTLOK:  cpu time    0.3909: real time    0.4033
    SETDIJ:  cpu time    0.4386: real time    0.4964
    TRIAL :  cpu time   17.7439: real time   17.8144
    CORREC:  cpu time    6.0814: real time    6.1591
    CHARGE:  cpu time    1.6659: real time    1.6659
    --------------------------------------------
      LOOP:  cpu time   26.3247: real time   26.5440

 eigenvalue-minimisations  :     0
 total energy-change (2. order) :-0.9652759E+00  (-0.9332396E+00)
 number of electron     269.9999992 magnetization      35.8616069
 augmentation part       86.3593164 magnetization      24.3714348

 Free energy of the ion-electron system (eV)
  ---------------------------------------------------
  alpha Z        PSCENC =       798.38614055
  Ewald energy   TEWEN  =    -12901.57693327
  -Hartree energ DENC   =     -2476.01926458
  -exchange      EXHF   =         0.00000000
  -V(xc)+E(xc)   XCENC  =     -1000.69431094
  PAW double counting   =     20366.46597799   -19112.11828462
  entropy T*S    EENTRO =        -0.00771762
  eigenvalues    EBANDS =      1273.27411955
  atomic energy  EATOM  =     12697.67401269
  ---------------------------------------------------
  free energy    TOTEN  =      -354.61713571 eV

  energy without entropy =     -354.60941809  energy(sigma->0) =     -354.61456317


--------------------------------------------------------------------------------------------------------




--------------------------------------- Iteration      1(  16)  ---------------------------------------


    POTLOK:  cpu time    0.3929: real time    0.3931
    SETDIJ:  cpu time    0.4618: real time    0.4622
    TRIAL :  cpu time   17.0261: real time   17.2916
    CORREC:  cpu time    5.3965: real time    5.4157
    CHARGE:  cpu time    1.6021: real time    1.6026
    --------------------------------------------
      LOOP:  cpu time   24.8814: real time   25.1691

 eigenvalue-minimisations  :     0
 total energy-change (2. order) :-0.9305185E+00  (-0.3194316E+00)
 number of electron     269.9999992 magnetization      35.8933258
 augmentation part       86.9141067 magnetization      24.4757185

 Free energy of the ion-electron system (eV)
  ---------------------------------------------------
  alpha Z        PSCENC =       798.38614055
  Ewald energy   TEWEN  =    -12901.57693327
  -Hartree energ DENC   =     -2478.02259048
  -exchange      EXHF   =         0.00000000
  -V(xc)+E(xc)   XCENC  =     -1000.41790130
  PAW double counting   =     19803.48148952   -18549.22202620
  entropy T*S    EENTRO =        -0.00751627
  eigenvalues    EBANDS =      1274.15787195
  atomic energy  EATOM  =     12697.67401269
  ---------------------------------------------------
  free energy    TOTEN  =      -355.54765416 eV

  energy without entropy =     -355.54013789  energy(sigma->0) =     -355.54514874


--------------------------------------------------------------------------------------------------------




--------------------------------------- Iteration      1(  17)  ---------------------------------------


    POTLOK:  cpu time    0.3914: real time    0.4084
    SETDIJ:  cpu time    0.4627: real time    0.4922
    TRIAL :  cpu time   17.1234: real time   17.2373
    CORREC:  cpu time    5.4771: real time    5.4876
    CHARGE:  cpu time    2.2732: real time    2.2734
    --------------------------------------------
      LOOP:  cpu time   25.7349: real time   25.9076

 eigenvalue-minimisations  :     0
 total energy-change (2. order) :-0.3190750E+00  (-0.1661211E+00)
 number of electron     269.9999992 magnetization      35.9081586
 augmentation part       87.2572477 magnetization      24.5867845

 Free energy of the ion-electron system (eV)
  ---------------------------------------------------
  alpha Z        PSCENC =       798.38614055
  Ewald energy   TEWEN  =    -12901.57693327
  -Hartree energ DENC   =     -2500.53744586
  -exchange      EXHF   =         0.00000000
  -V(xc)+E(xc)   XCENC  =      -999.41943941
  PAW double counting   =     19651.69883859   -18402.61476042
  entropy T*S    EENTRO =        -0.00620321
  eigenvalues    EBANDS =      1300.53037427
  atomic energy  EATOM  =     12697.67401269
  ---------------------------------------------------
  free energy    TOTEN  =      -355.86672914 eV

  energy without entropy =     -355.86052593  energy(sigma->0) =     -355.86466140


--------------------------------------------------------------------------------------------------------




--------------------------------------- Iteration      1(  18)  ---------------------------------------


    POTLOK:  cpu time    0.3922: real time    0.3921
    SETDIJ:  cpu time    0.4703: real time    0.4708
    TRIAL :  cpu time   17.7412: real time   17.9520
    CORREC:  cpu time    5.3948: real time    5.4804
    CHARGE:  cpu time    1.5963: real time    1.6022
    --------------------------------------------
      LOOP:  cpu time   25.5983: real time   25.9011

 eigenvalue-minimisations  :     0
 total energy-change (2. order) :-0.1662951E+00  (-0.1712824E+00)
 number of electron     269.9999992 magnetization      35.8320590
 augmentation part       87.2677067 magnetization      24.7137903

 Free energy of the ion-electron system (eV)
  ---------------------------------------------------
  alpha Z        PSCENC =       798.38614055
  Ewald energy   TEWEN  =    -12901.57693327
  -Hartree energ DENC   =     -2515.46549847
  -exchange      EXHF   =         0.00000000
  -V(xc)+E(xc)   XCENC  =      -998.69285465
  PAW double counting   =     19595.36707581   -18349.80789548
  entropy T*S    EENTRO =        -0.00785214
  eigenvalues    EBANDS =      1318.08913178
  atomic energy  EATOM  =     12697.67401269
  ---------------------------------------------------
  free energy    TOTEN  =      -356.03302424 eV

  energy without entropy =     -356.02517210  energy(sigma->0) =     -356.03040686


--------------------------------------------------------------------------------------------------------




--------------------------------------- Iteration      1(  19)  ---------------------------------------


    POTLOK:  cpu time    0.3929: real time    0.3936
    SETDIJ:  cpu time    0.4588: real time    0.4601
    TRIAL :  cpu time   17.1317: real time   17.2739
    CORREC:  cpu time    5.4126: real time    5.4886
    CHARGE:  cpu time    1.6068: real time    1.6071
    --------------------------------------------
      LOOP:  cpu time   25.0127: real time   25.2344

 eigenvalue-minimisations  :     0
 total energy-change (2. order) :-0.1709678E+00  (-0.1166038E+00)
 number of electron     269.9999992 magnetization      35.8936357
 augmentation part       87.0647217 magnetization      24.8511312

 Free energy of the ion-electron system (eV)
  ---------------------------------------------------
  alpha Z        PSCENC =       798.38614055
  Ewald energy   TEWEN  =    -12901.57693327
  -Hartree energ DENC   =     -2513.73013930
  -exchange      EXHF   =         0.00000000
  -V(xc)+E(xc)   XCENC  =      -998.46554836
  PAW double counting   =     19541.82976483   -18296.39985029
  entropy T*S    EENTRO =        -0.00587660
  eigenvalues    EBANDS =      1316.08641329
  atomic energy  EATOM  =     12697.67401269
  ---------------------------------------------------
  free energy    TOTEN  =      -356.20399201 eV

  energy without entropy =     -356.19811542  energy(sigma->0) =     -356.20203315


--------------------------------------------------------------------------------------------------------




--------------------------------------- Iteration      1(  20)  ---------------------------------------


    POTLOK:  cpu time    0.3913: real time    0.3912
    SETDIJ:  cpu time    0.4742: real time    0.4742
    TRIAL :  cpu time   17.7402: real time   17.7979
    CORREC:  cpu time    5.3637: real time    5.5446
    CHARGE:  cpu time    1.5856: real time    1.6015
    --------------------------------------------
      LOOP:  cpu time   25.5604: real time   25.8155

 eigenvalue-minimisations  :     0
 total energy-change (2. order) :-0.1158922E+00  (-0.3991813E-01)
 number of electron     269.9999992 magnetization      35.9129631
 augmentation part       86.9216402 magnetization      24.9023016

 Free energy of the ion-electron system (eV)
  ---------------------------------------------------
  alpha Z        PSCENC =       798.38614055
  Ewald energy   TEWEN  =    -12901.57693327
  -Hartree energ DENC   =     -2502.38252028
  -exchange      EXHF   =         0.00000000
  -V(xc)+E(xc)   XCENC  =      -998.62417978
  PAW double counting   =     19508.19389805   -18260.62348373
  entropy T*S    EENTRO =        -0.00484807
  eigenvalues    EBANDS =      1302.63905816
  atomic energy  EATOM  =     12697.67401269
  ---------------------------------------------------
  free energy    TOTEN  =      -356.31988421 eV

  energy without entropy =     -356.31503614  energy(sigma->0) =     -356.31826819


--------------------------------------------------------------------------------------------------------




--------------------------------------- Iteration      1(  21)  ---------------------------------------


    POTLOK:  cpu time    0.3929: real time    0.3928
    SETDIJ:  cpu time    0.4579: real time    0.4580
    TRIAL :  cpu time   17.0799: real time   17.2561
    CORREC:  cpu time    5.3587: real time    5.3696
    CHARGE:  cpu time    1.6023: real time    1.6022
    --------------------------------------------
      LOOP:  cpu time   24.8998: real time   25.0875

 eigenvalue-minimisations  :     0
 total energy-change (2. order) :-0.3989241E-01  (-0.4460620E-01)
 number of electron     269.9999992 magnetization      35.9106907
 augmentation part       86.8345615 magnetization      24.9720307

 Free energy of the ion-electron system (eV)
  ---------------------------------------------------
  alpha Z        PSCENC =       798.38614055
  Ewald energy   TEWEN  =    -12901.57693327
  -Hartree energ DENC   =     -2496.06800870
  -exchange      EXHF   =         0.00000000
  -V(xc)+E(xc)   XCENC  =      -998.74127497
  PAW double counting   =     19499.69602292   -18250.77862150
  entropy T*S    EENTRO =        -0.00561080
  eigenvalues    EBANDS =      1295.05373372
  atomic energy  EATOM  =     12697.67401269
  ---------------------------------------------------
  free energy    TOTEN  =      -356.35977662 eV

  energy without entropy =     -356.35416582  energy(sigma->0) =     -356.35790635


--------------------------------------------------------------------------------------------------------




--------------------------------------- Iteration      1(  22)  ---------------------------------------


    POTLOK:  cpu time    0.3924: real time    0.3925
    SETDIJ:  cpu time    0.4207: real time    0.4877
    TRIAL :  cpu time   17.7041: real time   17.7729
    CORREC:  cpu time    5.6466: real time    5.6906
    CHARGE:  cpu time    2.2437: real time    2.2440
    --------------------------------------------
      LOOP:  cpu time   26.4124: real time   26.5952

 eigenvalue-minimisations  :     0
 total energy-change (2. order) :-0.4448837E-01  (-0.3077065E-01)
 number of electron     269.9999992 magnetization      35.9634135
 augmentation part       86.9137710 magnetization      25.0511163

 Free energy of the ion-electron system (eV)
  ---------------------------------------------------
  alpha Z        PSCENC =       798.38614055
  Ewald energy   TEWEN  =    -12901.57693327
  -Hartree energ DENC   =     -2493.58477425
  -exchange      EXHF   =         0.00000000
  -V(xc)+E(xc)   XCENC  =      -998.69020828
  PAW double counting   =     19502.36888121   -18252.93057198
  entropy T*S    EENTRO =        -0.00447992
  eigenvalues    EBANDS =      1291.95479914
  atomic energy  EATOM  =     12697.67401269
  ---------------------------------------------------
  free energy    TOTEN  =      -356.40426499 eV

  energy without entropy =     -356.39978507  energy(sigma->0) =     -356.40277168


--------------------------------------------------------------------------------------------------------




--------------------------------------- Iteration      1(  23)  ---------------------------------------


    POTLOK:  cpu time    0.3927: real time    0.3926
    SETDIJ:  cpu time    0.4744: real time    0.4749
    TRIAL :  cpu time   17.0308: real time   17.2798
    CORREC:  cpu time    5.4372: real time    5.4537
    CHARGE:  cpu time    1.6163: real time    1.6166
    --------------------------------------------
      LOOP:  cpu time   24.9935: real time   25.2604

 eigenvalue-minimisations  :     0
 total energy-change (2. order) :-0.3073962E-01  (-0.1364117E-01)
 number of electron     269.9999992 magnetization      35.9695455
 augmentation part       86.9971626 magnetization      25.0788334

 Free energy of the ion-electron system (eV)
  ---------------------------------------------------
  alpha Z        PSCENC =       798.38614055
  Ewald energy   TEWEN  =    -12901.57693327
  -Hartree energ DENC   =     -2499.56041747
  -exchange      EXHF   =         0.00000000
  -V(xc)+E(xc)   XCENC  =      -998.36369771
  PAW double counting   =     19517.81658690   -18269.60713050
  entropy T*S    EENTRO =        -0.00435366
  eigenvalues    EBANDS =      1298.80091413
  atomic energy  EATOM  =     12697.67401269
  ---------------------------------------------------
  free energy    TOTEN  =      -356.43500461 eV

  energy without entropy =     -356.43065094  energy(sigma->0) =     -356.43355338


--------------------------------------------------------------------------------------------------------




--------------------------------------- Iteration      1(  24)  ---------------------------------------


    POTLOK:  cpu time    0.3872: real time    0.4043
    SETDIJ:  cpu time    0.5220: real time    0.5357
    TRIAL :  cpu time   17.0600: real time   17.1927
    CORREC:  cpu time    5.6559: real time    5.6727
    CHARGE:  cpu time    2.2564: real time    2.2583
    --------------------------------------------
      LOOP:  cpu time   25.8826: real time   26.0656

 eigenvalue-minimisations  :     0
 total energy-change (2. order) :-0.1364887E-01  (-0.7798857E-02)
 number of electron     269.9999992 magnetization      35.9854069
[...]
   45        0.020   0.016   2.340   2.376
   46        0.018   0.024   2.370   2.412
   47       -0.021  -0.020  -2.047  -2.087
   48        0.018   0.024   2.370   2.412
   49        0.020   0.015   2.330   2.365
   50        0.027   0.026   2.312   2.365
   51        0.020   0.015   2.326   2.361
   52        0.018   0.021   2.305   2.344
   53        0.019   0.013   2.433   2.465
   54        0.018   0.022   2.303   2.343
--------------------------------------------------
tot         -0.021  -0.211  35.853  35.621
 
    FORLOC:  cpu time    0.0579: real time    0.0579
    FORNL :  cpu time   25.5997: real time   25.8113
    STRESS:  cpu time   35.7358: real time   35.9212
    FORCOR:  cpu time    0.4404: real time    0.4403
    OFIELD:  cpu time    0.0022: real time    0.0022

  FORCE on cell =-STRESS in cart. coord.  units (eV):
  Direction    XX          YY          ZZ          XY          YZ          ZX
  --------------------------------------------------------------------------------------
  Alpha Z   798.38614   798.38614   798.38614
  Ewald   -4053.61603 -4053.61603 -4794.40593    -0.00000    -0.00000    -0.00000
  Hartree  1083.66262  1083.66262   335.07337     0.15571    -0.00000    -0.00000
  E(xc)   -1141.45031 -1141.45031 -1140.19045    -0.05550     0.00000     0.00000
  Local     371.28978   371.28978  1900.70751    -0.51704     0.00000     0.00000
  n-local  -173.26138  -169.30140  -177.35754     0.08293    -0.14864    -0.00428
  augment   783.78217   783.78217   768.92325     0.13036     0.00001     0.00001
  Kinetic  2328.66076  2340.26805  2312.60500     0.38664    -1.17002    -0.62938
  Fock        0.00000     0.00000     0.00000     0.00000     0.00000     0.00000
  -------------------------------------------------------------------------------------
  Total       5.23739     5.23739     3.74136     0.17990     0.00000     0.00000
  in kB      11.82010    11.82010     8.44377     0.40601     0.00000     0.00000
  external pressure =       10.69 kB  Pullay stress =        0.00 kB


 VOLUME and BASIS-vectors are now :
 -----------------------------------------------------------------------------
  energy-cutoff  :      404.80
  volume of cell :      709.91
      direct lattice vectors                 reciprocal lattice vectors
     8.250148166  0.000000000  0.000000000     0.121209944  0.000000000  0.000000000
     0.000000000  8.250148166  0.000000000     0.000000000  0.121209944  0.000000000
     0.000000000  0.000000000 10.429911392     0.000000000  0.000000000  0.095878092

  length of vectors
     8.250148166  8.250148166 10.429911392     0.121209944  0.121209944  0.095878092


 FORCES acting on ions:
    Electron-Ion                     Ewald-Force                    Non-Local-Force
 -----------------------------------------------------------------------------------------------
   -.465E-02 -.465E-02 -.512E-10   -.239E-08 -.239E-08 -.210E-08   0.494E-02 0.494E-02 0.000E+00
   0.126E+00 0.126E+00 0.585E-01   -.239E-08 -.239E-08 0.171E-08   -.927E-01 -.927E-01 -.337E-01
   0.126E+00 0.126E+00 -.585E-01   -.239E-08 -.239E-08 0.861E-08   -.927E-01 -.927E-01 0.337E-01
   0.111E-01 -.392E-02 -.249E-10   -.239E-08 -.802E-09 -.210E-08   -.688E-02 -.121E-01 0.000E+00
   0.902E-01 -.154E+00 0.555E-01   -.239E-08 -.802E-09 0.171E-08   -.925E-01 0.744E-01 -.129E-01
   0.902E-01 -.154E+00 -.555E-01   -.239E-08 -.802E-09 0.861E-08   -.925E-01 0.744E-01 0.129E-01
   0.147E-01 0.105E-01 -.379E-10   -.239E-08 0.631E-08 -.210E-08   0.277E-01 0.527E-02 0.000E+00
   0.110E+00 0.387E-01 0.696E-01   -.239E-08 0.631E-08 0.171E-08   -.168E+00 -.846E-03 -.828E-01
   0.110E+00 0.387E-01 -.696E-01   -.239E-08 0.631E-08 0.861E-08   -.168E+00 -.846E-03 0.828E-01
   -.392E-02 0.111E-01 -.244E-10   -.802E-09 -.239E-08 -.210E-08   -.121E-01 -.688E-02 0.000E+00
   -.154E+00 0.902E-01 0.555E-01   -.802E-09 -.239E-08 0.171E-08   0.744E-01 -.925E-01 -.129E-01
   -.154E+00 0.902E-01 -.555E-01   -.803E-09 -.239E-08 0.861E-08   0.744E-01 -.925E-01 0.129E-01
   0.817E-03 0.817E-03 0.194E-11   -.802E-09 -.802E-09 -.210E-08   0.691E-02 0.691E-02 0.000E+00
   0.927E-02 0.927E-02 0.991E-01   -.802E-09 -.802E-09 0.171E-08   0.798E-02 0.798E-02 -.104E-01
   0.927E-02 0.927E-02 -.991E-01   -.803E-09 -.802E-09 0.861E-08   0.798E-02 0.798E-02 0.104E-01
   -.223E-01 -.963E-02 -.111E-10   -.802E-09 0.631E-08 -.210E-08   0.189E-02 0.126E-02 0.000E+00
   -.139E+00 -.879E-01 0.447E-01   -.802E-09 0.631E-08 0.171E-08   0.721E-01 0.853E-01 -.575E-01
   -.139E+00 -.879E-01 -.447E-01   -.803E-09 0.631E-08 0.861E-08   0.721E-01 0.853E-01 0.575E-01
   0.105E-01 0.147E-01 -.370E-10   0.631E-08 -.239E-08 -.210E-08   0.527E-02 0.277E-01 0.000E+00
   0.387E-01 0.110E+00 0.696E-01   0.631E-08 -.239E-08 0.171E-08   -.846E-03 -.168E+00 -.828E-01
   0.387E-01 0.110E+00 -.696E-01   0.631E-08 -.239E-08 0.861E-08   -.846E-03 -.168E+00 0.828E-01
   -.963E-02 -.223E-01 -.106E-10   0.631E-08 -.802E-09 -.210E-08   0.126E-02 0.189E-02 0.000E+00
   -.879E-01 -.139E+00 0.447E-01   0.631E-08 -.802E-09 0.171E-08   0.853E-01 0.721E-01 -.575E-01
   -.879E-01 -.139E+00 -.447E-01   0.631E-08 -.802E-09 0.861E-08   0.853E-01 0.721E-01 0.575E-01
   -.332E-03 -.332E-03 -.237E-10   0.631E-08 0.631E-08 -.210E-08   -.253E-01 -.253E-01 0.000E+00
   0.231E-01 0.231E-01 0.318E-02   0.631E-08 0.631E-08 0.171E-08   0.988E-01 0.988E-01 -.413E-01
   0.231E-01 0.231E-01 -.318E-02   0.631E-08 0.631E-08 0.861E-08   0.988E-01 0.988E-01 0.413E-01
   -.353E-01 -.353E-01 -.212E-01   -.169E-07 -.169E-07 -.180E-07   0.989E-02 0.989E-02 0.868E-01
   -.103E+00 -.103E+00 0.173E-09   -.169E-07 -.169E-07 -.170E-08   0.129E+00 0.129E+00 0.000E+00
   -.353E-01 -.353E-01 0.212E-01   -.169E-07 -.169E-07 0.115E-07   0.989E-02 0.989E-02 -.868E-01
   0.509E-01 0.697E-01 0.184E-01   -.169E-07 0.802E-09 -.180E-07   -.373E-01 -.281E-01 0.673E-02
   0.386E+00 -.154E-01 0.606E-09   -.169E-07 0.802E-09 -.170E-08   -.269E+00 -.631E-02 0.000E+00
   0.509E-01 0.697E-01 -.184E-01   -.169E-07 0.802E-09 0.115E-07   -.373E-01 -.281E-01 -.673E-02
   -.425E-01 -.313E-01 -.931E-01   -.169E-07 0.130E-07 -.180E-07   0.314E-01 0.159E-01 0.144E+00
   -.632E-01 0.108E+00 0.274E-09   -.169E-07 0.130E-07 -.170E-08   0.720E-01 -.983E-01 0.000E+00
   -.425E-01 -.313E-01 0.931E-01   -.169E-07 0.130E-07 0.115E-07   0.314E-01 0.159E-01 -.144E+00
   0.697E-01 0.509E-01 0.184E-01   0.802E-09 -.169E-07 -.180E-07   -.281E-01 -.373E-01 0.673E-02
   -.154E-01 0.386E+00 0.612E-09   0.802E-09 -.169E-07 -.170E-08   -.631E-02 -.269E+00 0.000E+00
   0.697E-01 0.509E-01 -.184E-01   0.802E-09 -.169E-07 0.115E-07   -.281E-01 -.373E-01 -.673E-02
   -.421E-01 -.421E-01 -.284E-01   0.802E-09 0.802E-09 -.180E-07   0.272E-01 0.272E-01 0.134E-01
   -.506E+00 -.506E+00 0.104E-08   0.802E-09 0.802E-09 -.170E-08   0.287E+00 0.287E+00 0.000E+00
   -.421E-01 -.421E-01 0.284E-01   0.802E-09 0.802E-09 0.115E-07   0.272E-01 0.272E-01 -.134E-01
   0.223E-01 -.110E-01 0.190E+00   0.802E-09 0.130E-07 -.180E-07   -.123E-01 -.297E-02 -.161E+00
   0.578E+00 0.294E-01 0.713E-09   0.802E-09 0.130E-07 -.170E-08   -.227E+00 -.632E-01 0.000E+00
   0.223E-01 -.110E-01 -.190E+00   0.802E-09 0.130E-07 0.115E-07   -.123E-01 -.297E-02 0.161E+00
   -.313E-01 -.425E-01 -.931E-01   0.130E-07 -.169E-07 -.180E-07   0.159E-01 0.314E-01 0.144E+00
   0.108E+00 -.632E-01 0.283E-09   0.130E-07 -.169E-07 -.170E-08   -.983E-01 0.720E-01 0.000E+00
   -.313E-01 -.425E-01 0.931E-01   0.130E-07 -.169E-07 0.115E-07   0.159E-01 0.314E-01 -.144E+00
   -.110E-01 0.223E-01 0.190E+00   0.130E-07 0.802E-09 -.180E-07   -.297E-02 -.123E-01 -.161E+00
   0.294E-01 0.578E+00 0.717E-09   0.130E-07 0.802E-09 -.170E-08   -.632E-01 -.227E+00 0.000E+00
   -.110E-01 0.223E-01 -.190E+00   0.130E-07 0.802E-09 0.115E-07   -.297E-02 -.123E-01 0.161E+00
   0.203E-01 0.203E-01 0.336E+00   0.130E-07 0.130E-07 -.180E-07   -.953E-02 -.953E-02 -.415E+00
   -.460E+00 -.460E+00 0.384E-09   0.130E-07 0.130E-07 -.170E-08   0.231E+00 0.231E+00 0.000E+00
   0.203E-01 0.203E-01 -.336E+00   0.130E-07 0.130E-07 0.115E-07   -.953E-02 -.953E-02 0.415E+00
 -----------------------------------------------------------------------------------------------
   -.160E-01 -.160E-01 -.713E-07   -.614E-13 -.142E-13 0.128E-13   0.160E-01 0.160E-01 0.000E+00
 
 
 POSITION                                       TOTAL-FORCE (eV/Angst)
 -----------------------------------------------------------------------------------
      0.00000      0.00000      0.00000        -0.000235     -0.000235      0.000000
      0.00000      0.00000      3.47664         0.041601      0.041601      0.028855
      0.00000      0.00000      6.95327         0.041601      0.041601     -0.028855
      0.00000      2.75005      0.00000         0.004832     -0.015390      0.000000
      0.00000      2.75005      3.47664         0.005378     -0.085700      0.045441
      0.00000      2.75005      6.95327         0.005378     -0.085700     -0.045441
      0.00000      5.50010      0.00000         0.040772      0.015708      0.000000
      0.00000      5.50010      3.47664        -0.044036      0.038112     -0.004737
      0.00000      5.50010      6.95327        -0.044036      0.038112      0.004737
      2.75005      0.00000      0.00000        -0.015390      0.004832      0.000000
      2.75005      0.00000      3.47664        -0.085700      0.005378      0.045441
      2.75005      0.00000      6.95327        -0.085700      0.005378     -0.045441
      2.75005      2.75005      0.00000         0.007532      0.007532      0.000000
      2.75005      2.75005      3.47664         0.016886      0.016886      0.090518
      2.75005      2.75005      6.95327         0.016886      0.016886     -0.090518
      2.75005      5.50010      0.00000        -0.021005     -0.008807      0.000000
      2.75005      5.50010      3.47664        -0.073355     -0.009872     -0.006414
      2.75005      5.50010      6.95327        -0.073355     -0.009872      0.006414
      5.50010      0.00000      0.00000         0.015708      0.040772      0.000000
      5.50010      0.00000      3.47664         0.038112     -0.044036     -0.004737
      5.50010      0.00000      6.95327         0.038112     -0.044036      0.004737
      5.50010      2.75005      0.00000        -0.008807     -0.021005      0.000000
      5.50010      2.75005      3.47664        -0.009872     -0.073355     -0.006414
      5.50010      2.75005      6.95327        -0.009872     -0.073355      0.006414
      5.50010      5.50010      0.00000        -0.023867     -0.023867      0.000000
      5.50010      5.50010      3.47664         0.113543      0.113543     -0.033248
      5.50010      5.50010      6.95327         0.113543      0.113543      0.033248
      1.37502      1.37502      1.73832        -0.025811     -0.025811      0.058064
      1.37502      1.37502      5.21496         0.026087      0.026087      0.000000
      1.37502      1.37502      8.69159        -0.025811     -0.025811     -0.058064
      1.37502      4.12507      1.73832         0.014790      0.042141      0.019319
      1.37502      4.12507      5.21496         0.119734     -0.024378      0.000000
      1.37502      4.12507      8.69159         0.014790      0.042141     -0.019319
      1.37502      6.87512      1.73832        -0.010593     -0.015512      0.038761
      1.37502      6.87512      5.21496         0.007424      0.011872      0.000000
      1.37502      6.87512      8.69159        -0.010593     -0.015512     -0.038761
      4.12507      1.37502      1.73832         0.042141      0.014790      0.019319
      4.12507      1.37502      5.21496        -0.024378      0.119734      0.000000
      4.12507      1.37502      8.69159         0.042141      0.014790     -0.019319
      4.12507      4.12507      1.73832        -0.015804     -0.015804     -0.022276
      4.12507      4.12507      5.21496        -0.224912     -0.224912      0.000000
      4.12507      4.12507      8.69159        -0.015804     -0.015804      0.022276
      4.12507      6.87512      1.73832         0.010200     -0.014578      0.027592
      4.12507      6.87512      5.21496         0.365370     -0.034646      0.000000
      4.12507      6.87512      8.69159         0.010200     -0.014578     -0.027592
      6.87512      1.37502      1.73832        -0.015512     -0.010593      0.038761
      6.87512      1.37502      5.21496         0.011872      0.007424      0.000000
      6.87512      1.37502      8.69159        -0.015512     -0.010593     -0.038761
      6.87512      4.12507      1.73832        -0.014578      0.010200      0.027592
      6.87512      4.12507      5.21496        -0.034646      0.365370      0.000000
      6.87512      4.12507      8.69159        -0.014578      0.010200     -0.027592
      6.87512      6.87512      1.73832         0.010295      0.010295     -0.073425
      6.87512      6.87512      5.21496        -0.241466     -0.241466      0.000000
      6.87512      6.87512      8.69159         0.010295      0.010295      0.073425
 -----------------------------------------------------------------------------------
    total drift:                               -0.000017     -0.000017     -0.000000


--------------------------------------------------------------------------------------------------------



  FREE ENERGIE OF THE ION-ELECTRON SYSTEM (eV)
  ---------------------------------------------------
  free  energy   TOTEN  =      -356.48281372 eV

  energy  without entropy=     -356.48517162  energy(sigma->0) =     -356.48359968
 


--------------------------------------------------------------------------------------------------------


    POTLOK:  cpu time    2.4801: real time    2.5119


--------------------------------------------------------------------------------------------------------


     LOOP+:  cpu time 1850.1727: real time 1866.7197
    4ORBIT:  cpu time    0.0000: real time    0.0000
 


 total charge     
 
# of ion       s       p       d       tot
------------------------------------------
    1        0.404   0.429   0.000   0.833
    2        0.405   0.428   0.000   0.832
    3        0.405   0.428   0.000   0.833
    4        0.404   0.430   0.000   0.834
    5        0.405   0.428   0.000   0.833
    6        0.405   0.428   0.000   0.833
    7        0.404   0.429   0.000   0.833
    8        0.405   0.428   0.000   0.833
    9        0.405   0.428   0.000   0.833
   10        0.404   0.429   0.000   0.834
   11        0.405   0.428   0.000   0.833
   12        0.405   0.428   0.000   0.833
   13        0.404   0.430   0.000   0.833
   14        0.405   0.425   0.000   0.830
   15        0.405   0.425   0.000   0.830
   16        0.404   0.429   0.000   0.833
   17        0.405   0.428   0.000   0.833
   18        0.405   0.428   0.000   0.832
   19        0.404   0.429   0.000   0.833
   20        0.405   0.428   0.000   0.832
   21        0.405   0.428   0.000   0.833
   22        0.403   0.430   0.000   0.833
   23        0.405   0.428   0.000   0.833
   24        0.405   0.428   0.000   0.832
   25        0.406   0.428   0.000   0.834
   26        0.405   0.427   0.000   0.832
   27        0.405   0.427   0.000   0.832
   28        0.333   0.349   5.141   5.822
   29        0.331   0.355   5.135   5.821
   30        0.333   0.349   5.143   5.824
   31        0.333   0.352   5.132   5.816
   32        0.334   0.352   5.150   5.837
   33        0.332   0.352   5.134   5.818
   34        0.332   0.352   5.120   5.804
   35        0.330   0.352   5.168   5.850
   36        0.332   0.353   5.121   5.806
   37        0.333   0.351   5.140   5.824
   38        0.334   0.356   5.111   5.801
   39        0.333   0.351   5.141   5.825
   40        0.332   0.354   5.134   5.820
   41        0.336   0.352   5.130   5.818
   42        0.332   0.353   5.132   5.817
   43        0.333   0.348   5.142   5.822
   44        0.337   0.353   5.089   5.779
   45        0.333   0.348   5.137   5.817
   46        0.333   0.352   5.147   5.832
   47        0.332   0.353   5.122   5.808
   48        0.334   0.352   5.146   5.832
   49        0.333   0.348   5.150   5.831
   50        0.336   0.357   5.162   5.856
   51        0.333   0.347   5.148   5.828
   52        0.333   0.351   5.137   5.820
   53        0.336   0.353   5.127   5.816
   54        0.333   0.351   5.142   5.826
--------------------------------------------------
tot         19.922  21.051 138.679 179.653
 


 magnetization (x)
 
# of ion       s       p       d       tot
------------------------------------------
    1       -0.022  -0.036   0.000  -0.058
    2       -0.006  -0.008   0.000  -0.014
    3       -0.006  -0.008   0.000  -0.013
    4       -0.022  -0.039   0.000  -0.061
    5       -0.004  -0.007   0.000  -0.012
    6       -0.004  -0.007   0.000  -0.012
    7       -0.022  -0.038   0.000  -0.059
    8       -0.010  -0.017   0.000  -0.027
    9       -0.010  -0.017   0.000  -0.027
   10       -0.022  -0.039   0.000  -0.060
   11       -0.004  -0.007   0.000  -0.011
   12       -0.004  -0.007   0.000  -0.011
   13       -0.022  -0.037   0.000  -0.059
   14       -0.001  -0.001   0.000  -0.002
   15       -0.001  -0.001   0.000  -0.002
   16       -0.022  -0.036   0.000  -0.058
   17       -0.006  -0.010   0.000  -0.015
   18       -0.006  -0.009   0.000  -0.015
   19       -0.021  -0.038   0.000  -0.059
   20       -0.010  -0.017   0.000  -0.027
   21       -0.010  -0.017   0.000  -0.027
   22       -0.023  -0.036   0.000  -0.058
   23       -0.006  -0.011   0.000  -0.017
   24       -0.006  -0.011   0.000  -0.017
   25       -0.021  -0.041   0.000  -0.062
   26       -0.014  -0.026   0.000  -0.040
   27       -0.014  -0.026   0.000  -0.040
   28        0.019   0.015   2.375   2.409
   29       -0.005  -0.000  -2.235  -2.240
   30        0.019   0.015   2.377   2.411
   31        0.018   0.021   2.367   2.405
   32       -0.017  -0.013  -2.346  -2.376
   33        0.018   0.020   2.363   2.401
   34        0.018   0.025   2.388   2.431
   35       -0.023  -0.022  -2.129  -2.175
   36        0.018   0.026   2.388   2.432
   37        0.018   0.020   2.360   2.397
   38       -0.015  -0.012  -2.353  -2.379
   39        0.018   0.020   2.363   2.401
   40        0.016   0.024   2.361   2.401
   41       -0.026  -0.022  -2.420  -2.469
   42        0.017   0.023   2.357   2.397
   43        0.020   0.016   2.337   2.373
   44        0.026   0.024   2.259   2.309
   45        0.020   0.016   2.340   2.376
   46        0.018   0.024   2.370   2.412
   47       -0.021  -0.020  -2.047  -2.087
   48        0.018   0.024   2.370   2.412
   49        0.020   0.015   2.330   2.365
   50        0.027   0.026   2.312   2.365
   51        0.020   0.015   2.326   2.361
   52        0.018   0.021   2.305   2.344
   53        0.019   0.013   2.433   2.465
   54        0.018   0.022   2.303   2.343
--------------------------------------------------
tot         -0.021  -0.211  35.853  35.621
 

 total amount of memory used by VASP MPI-rank0   950766. kBytes
=======================================================================

   base      :      30000. kBytes
   nonl-proj :      28494. kBytes
   fftplans  :      31580. kBytes
   grid      :      21385. kBytes
   one-center:        435. kBytes
   wavefun   :     838872. kBytes
 
  
  
 General timing and accounting informations for this job:
 ========================================================
  
                  Total CPU time used (sec):     1885.058
                            User time (sec):     1858.050
                          System time (sec):       27.009
                         Elapsed time (sec):     1903.951
  
                   Maximum memory used (kb):     1118248.
                   Average memory used (kb):           0.
  
                          Minor page faults:       708052
                          Major page faults:           17
                 Voluntary context switches:         2916
