 vasp.5.4.4.18Apr17-6-g9f103f2a35 (build Dec 20 2018 12:05:58) complex          
  
 executed on             LinuxIFC date 2019.06.20  20:24:47
 running on   32 total cores
 distrk:  each k-point on    8 cores,    4 groups
 distr:  one band on NCORES_PER_BAND=   4 cores,    2 groups


--------------------------------------------------------------------------------------------------------


 INCAR:
 POTCAR:    PAW_PBE Al 04Jan2001                  
 POTCAR:    PAW_PBE Mn 06Sep2000                  

 ----------------------------------------------------------------------------- 
|                                                                             |
|           W    W    AA    RRRRR   N    N  II  N    N   GGGG   !!!           |
|           W    W   A  A   R    R  NN   N  II  NN   N  G    G  !!!           |
|           W    W  A    A  R    R  N N  N  II  N N  N  G       !!!           |
|           W WW W  AAAAAA  RRRRR   N  N N  II  N  N N  G  GGG   !            |
|           WW  WW  A    A  R   R   N   NN  II  N   NN  G    G                |
|           W    W  A    A  R    R  N    N  II  N    N   GGGG   !!!           |
|                                                                             |
|      You have enabled k-point parallelism (KPAR>1).                         |
|      This developmental code was originally  written by Paul Kent at ORNL,  |
|      and carefully double checked in Vienna.                                |
|      GW as well as linear response parallelism added by Martijn Marsman     |
|      and Georg Kresse.                                                      |
|      Carefully verify results versus KPAR=1.                                |
|      Report problems to Paul Kent and Vienna.                               |
|                                                                             |
 ----------------------------------------------------------------------------- 

 POTCAR:    PAW_PBE Al 04Jan2001                  
   VRHFIN =Al: s2p1                                                             
   LEXCH  = PE                                                                  
   EATOM  =    53.5387 eV,    3.9350 Ry                                         
                                                                                
   TITEL  = PAW_PBE Al 04Jan2001                                                
   LULTRA =        F    use ultrasoft PP ?                                      
   IUNSCR =        1    unscreen: 0-lin 1-nonlin 2-no                           
   RPACOR =    1.500    partial core radius                                     
   POMASS =   26.981; ZVAL   =    3.000    mass and valenz                      
   RCORE  =    1.900    outmost cutoff radius                                   
   RWIGS  =    2.650; RWIGS  =    1.402    wigner-seitz radius (au A)           
   ENMAX  =  240.300; ENMIN  =  180.225 eV                                      
   ICORE  =        2    local potential                                         
   LCOR   =        T    correct aug charges                                     
   LPAW   =        T    paw PP                                                  
   EAUG   =  291.052                                                            
   DEXC   =    0.000                                                            
   RMAX   =    1.939    core radius for proj-oper                               
   RAUG   =    1.300    factor for augmentation sphere                          
   RDEP   =    1.966    radius for radial grids                                 
   RDEPT  =    1.856    core radius for aug-charge                              
                                                                                
   Atomic configuration                                                         
    6 entries                                                                   
     n  l   j            E        occ.                                          
     1  0  0.50     -1511.1048   2.0000                                         
     2  0  0.50      -108.1629   2.0000                                         
     2  1  1.50       -69.6402   6.0000                                         
     3  0  0.50        -7.7528   2.0000                                         
     3  1  1.50        -2.7121   1.0000                                         
     3  2  2.50        -2.7212   0.0000                                         
   Description                                                                  
     l       E           TYP  RCUT    TYP  RCUT                                 
     0     -7.7528455     23  1.900                                             
     0     -3.3096929     23  1.900                                             
     1     -2.7120682     23  1.900                                             
     1     13.6058260     23  1.900                                             
     2     -2.7211652      7  1.900                                             
  local pseudopotential read in
  partial core-charges read in
  partial kinetic energy density read in
  atomic valenz-charges read in
  non local Contribution for L=           0  read in
    real space projection operators read in
  non local Contribution for L=           0  read in
    real space projection operators read in
  non local Contribution for L=           1  read in
    real space projection operators read in
  non local Contribution for L=           1  read in
    real space projection operators read in
    PAW grid and wavefunctions read in
 
   number of l-projection  operators is LMAX  =           4
   number of lm-projection operators is LMMAX =           8
 
 POTCAR:    PAW_PBE Mn 06Sep2000                  
   VRHFIN =Mn: d6 s1                                                            
   LEXCH  = PE                                                                  
   EATOM  =   416.7541 eV,   30.6306 Ry                                         
                                                                                
   TITEL  = PAW_PBE Mn 06Sep2000                                                
   LULTRA =        F    use ultrasoft PP ?                                      
   IUNSCR =        1    unscreen: 0-lin 1-nonlin 2-no                           
   RPACOR =    2.000    partial core radius                                     
   POMASS =   54.938; ZVAL   =    7.000    mass and valenz                      
   RCORE  =    2.300    outmost cutoff radius                                   
   RWIGS  =    2.500; RWIGS  =    1.323    wigner-seitz radius (au A)           
   ENMAX  =  269.864; ENMIN  =  202.398 eV                                      
   RCLOC  =    1.725    cutoff for local pot                                    
   LCOR   =        T    correct aug charges                                     
   LPAW   =        T    paw PP                                                  
   EAUG   =  500.711                                                            
   DEXC   =    0.000                                                            
   RMAX   =    2.343    core radius for proj-oper                               
   RAUG   =    1.300    factor for augmentation sphere                          
   RDEP   =    2.338    radius for radial grids                                 
   RDEPT  =    1.911    core radius for aug-charge                              
                                                                                
   Atomic configuration                                                         
    9 entries                                                                   
     n  l   j            E        occ.                                          
     1  0  0.50     -6424.8288   2.0000                                         
     2  0  0.50      -739.1154   2.0000                                         
     2  1  1.50      -625.3949   6.0000                                         
     3  0  0.50       -81.6100   2.0000                                         
     3  1  1.50       -50.4667   6.0000                                         
     3  2  2.50        -3.3745   6.0000                                         
     4  0  0.50        -4.1331   1.0000                                         
     4  1  0.50        -4.0817   0.0000                                         
     4  3  2.50        -1.3606   0.0000                                         
   Description                                                                  
     l       E           TYP  RCUT    TYP  RCUT                                 
     2     -3.3744664     23  2.300                                             
     2     -4.7350490     23  2.300                                             
     0     -4.1331408     23  2.300                                             
     0      7.6656614     23  2.300                                             
     1     -2.7211652     23  2.300                                             
     1     20.4087390     23  2.300                                             
  local pseudopotential read in
  partial core-charges read in
  partial kinetic energy density read in
  atomic valenz-charges read in
  non local Contribution for L=           2  read in
    real space projection operators read in
  non local Contribution for L=           2  read in
    real space projection operators read in
  non local Contribution for L=           0  read in
    real space projection operators read in
  non local Contribution for L=           0  read in
    real space projection operators read in
  non local Contribution for L=           1  read in
    real space projection operators read in
  non local Contribution for L=           1  read in
    real space projection operators read in
    PAW grid and wavefunctions read in
 
   number of l-projection  operators is LMAX  =           6
   number of lm-projection operators is LMMAX =          18
 

 ----------------------------------------------------------------------------- 
|                                                                             |
|  ADVICE TO THIS USER RUNNING 'VASP/VAMP'   (HEAR YOUR MASTER'S VOICE ...):  |
|                                                                             |
|      You have a (more or less) 'large supercell' and for larger cells       |
|      it might be more efficient to use real space projection opertators     |
|      So try LREAL= Auto  in the INCAR   file.                               |
|      Mind:          For very  accurate calculation you might also keep the  |
|      reciprocal projection scheme          (i.e. LREAL=.FALSE.)             |
|                                                                             |
 ----------------------------------------------------------------------------- 

  PAW_PBE Al 04Jan2001                  :
 energy of atom  1       EATOM=  -53.5387
 kinetic energy error for atom=    0.0005 (will be added to EATOM!!)
  PAW_PBE Mn 06Sep2000                  :
 energy of atom  2       EATOM= -416.7541
 kinetic energy error for atom=    0.0080 (will be added to EATOM!!)
 
 
 POSCAR: NewRef: 27, @ ['Mn', array([1.37502469, 
  positions in cartesian coordinates
  velocities in cartesian coordinates
  No initial velocities read in
 exchange correlation table for  LEXCH =        8
   RHO(1)=    0.500       N(1)  =     2000
   RHO(2)=  100.500       N(2)  =     4000
 


--------------------------------------------------------------------------------------------------------


 ion  position               nearest neighbor table
   1  0.000  0.000  0.000-  28 2.61  30 2.61  34 2.61  36 2.61  46 2.61  48 2.61  52 2.61  54 2.61
                             4 2.75  10 2.75   7 2.75  19 2.75
   2  0.000  0.000  0.333-  28 2.61  34 2.61  46 2.61  52 2.61  29 2.61  47 2.61  35 2.61  53 2.61
                             5 2.75  11 2.75   8 2.75  20 2.75
   3  0.000  0.000  0.667-  29 2.61  35 2.61  47 2.61  53 2.61  30 2.61  48 2.61  36 2.61  54 2.61
                             6 2.75  12 2.75   9 2.75  21 2.75
   4  0.000  0.333  0.000-  28 2.61  30 2.61  46 2.61  48 2.61  31 2.61  33 2.61  49 2.61  51 2.61
                            13 2.75   1 2.75   7 2.75  22 2.75
   5  0.000  0.333  0.333-  28 2.61  46 2.61  31 2.61  49 2.61  47 2.61  29 2.61  32 2.61  50 2.61
                            14 2.75   2 2.75   8 2.75  23 2.75
   6  0.000  0.333  0.667-  29 2.61  47 2.61  32 2.61  50 2.61  48 2.61  30 2.61  33 2.61  51 2.61
                            15 2.75   3 2.75   9 2.75  24 2.75
   7  0.000  0.667  0.000-  31 2.61  33 2.61  49 2.61  51 2.61  34 2.61  36 2.61  52 2.61  54 2.61
                             4 2.75  16 2.75   1 2.75  25 2.75
   8  0.000  0.667  0.333-  31 2.61  49 2.61  34 2.61  52 2.61  50 2.61  32 2.61  35 2.61  53 2.61
                             5 2.75  17 2.75   2 2.75  26 2.75
   9  0.000  0.667  0.667-  32 2.61  50 2.61  35 2.61  53 2.61  51 2.61  33 2.61  36 2.61  54 2.61
                             6 2.75  18 2.75   3 2.75  27 2.75
  10  0.333  0.000  0.000-  28 2.61  30 2.61  34 2.61  36 2.61  37 2.61  39 2.61  43 2.61  45 2.61
                            19 2.75   1 2.75  13 2.75  16 2.75
  11  0.333  0.000  0.333-  28 2.61  34 2.61  37 2.61  43 2.61  29 2.61  35 2.61  38 2.61  44 2.61
                            20 2.75   2 2.75  14 2.75  17 2.75
  12  0.333  0.000  0.667-  29 2.61  35 2.61  38 2.61  44 2.61  30 2.61  36 2.61  39 2.61  45 2.61
                            21 2.75   3 2.75  15 2.75  18 2.75
  13  0.333  0.333  0.000-  28 2.61  30 2.61  31 2.61  33 2.61  37 2.61  39 2.61  40 2.61  42 2.61
                             4 2.75  10 2.75  16 2.75  22 2.75
  14  0.333  0.333  0.333-  28 2.61  31 2.61  37 2.61  29 2.61  40 2.61  38 2.61  32 2.61  41 2.61
                             5 2.75  11 2.75  17 2.75  23 2.75
  15  0.333  0.333  0.667-  29 2.61  32 2.61  38 2.61  30 2.61  41 2.61  39 2.61  33 2.61  42 2.61
                             6 2.75  12 2.75  18 2.75  24 2.75
  16  0.333  0.667  0.000-  31 2.61  33 2.61  34 2.61  36 2.61  40 2.61  42 2.61  43 2.61  45 2.61
                            25 2.75   7 2.75  13 2.75  10 2.75
  17  0.333  0.667  0.333-  31 2.61  34 2.61  40 2.61  32 2.61  43 2.61  41 2.61  35 2.61  44 2.61
                            26 2.75   8 2.75  14 2.75  11 2.75
  18  0.333  0.667  0.667-  32 2.61  35 2.61  41 2.61  33 2.61  44 2.61  42 2.61  36 2.61  45 2.61
                            27 2.75   9 2.75  15 2.75  12 2.75
  19  0.667  0.000  0.000-  37 2.61  39 2.61  43 2.61  45 2.61  46 2.61  48 2.61  52 2.61  54 2.61
                            10 2.75  22 2.75   1 2.75  25 2.75
  20  0.667  0.000  0.333-  37 2.61  43 2.61  46 2.61  52 2.61  38 2.61  44 2.61  47 2.61  53 2.61
                            11 2.75  23 2.75   2 2.75  26 2.75
  21  0.667  0.000  0.667-  38 2.61  44 2.61  47 2.61  53 2.61  39 2.61  45 2.61  48 2.61  54 2.61
                            12 2.75  24 2.75   3 2.75  27 2.75
  22  0.667  0.333  0.000-  37 2.61  39 2.61  40 2.61  42 2.61  46 2.61  48 2.61  49 2.61  51 2.61
                            25 2.75  13 2.75  19 2.75   4 2.75
  23  0.667  0.333  0.333-  37 2.61  40 2.61  46 2.61  38 2.61  49 2.61  47 2.61  41 2.61  50 2.61
                            26 2.75  14 2.75  20 2.75   5 2.75
  24  0.667  0.333  0.667-  38 2.61  41 2.61  47 2.61  39 2.61  50 2.61  48 2.61  42 2.61  51 2.61
                            27 2.75  15 2.75  21 2.75   6 2.75
  25  0.667  0.667  0.000-  40 2.61  42 2.61  43 2.61  45 2.61  49 2.61  51 2.61  52 2.61  54 2.61
                            16 2.75  22 2.75  19 2.75   7 2.75
  26  0.667  0.667  0.333-  40 2.61  43 2.61  49 2.61  41 2.61  52 2.61  50 2.61  44 2.61  53 2.61
                            17 2.75  23 2.75  20 2.75   8 2.75
  27  0.667  0.667  0.667-  41 2.61  44 2.61  50 2.61  42 2.61  53 2.61  51 2.61  45 2.61  54 2.61
                            18 2.75  24 2.75  21 2.75   9 2.75
  28  0.167  0.167  0.167-  14 2.61  11 2.61   5 2.61  13 2.61   2 2.61  10 2.61   4 2.61   1 2.61
                            31 2.75  37 2.75  34 2.75  46 2.75
  29  0.167  0.167  0.500-  15 2.61  12 2.61   6 2.61  14 2.61   3 2.61  11 2.61   5 2.61   2 2.61
                            32 2.75  38 2.75  35 2.75  47 2.75
  30  0.167  0.167  0.833-  13 2.61  15 2.61  10 2.61  12 2.61   4 2.61   6 2.61   1 2.61   3 2.61
                            33 2.75  39 2.75  36 2.75  48 2.75
  31  0.167  0.500  0.167-  17 2.61  14 2.61   8 2.61  16 2.61   5 2.61  13 2.61   7 2.61   4 2.61
                            28 2.75  34 2.75  40 2.75  49 2.75
  32  0.167  0.500  0.500-  18 2.61  15 2.61   9 2.61  17 2.61   6 2.61  14 2.61   8 2.61   5 2.61
                            29 2.75  35 2.75  41 2.75  50 2.75
  33  0.167  0.500  0.833-  16 2.61  18 2.61  13 2.61  15 2.61   7 2.61   9 2.61   4 2.61   6 2.61
                            30 2.75  36 2.75  42 2.75  51 2.75
  34  0.167  0.833  0.167-  11 2.61  17 2.61   2 2.61   8 2.61  16 2.61  10 2.61   7 2.61   1 2.61
                            31 2.75  43 2.75  28 2.75  52 2.75
  35  0.167  0.833  0.500-  12 2.61  18 2.61   3 2.61   9 2.61  17 2.61  11 2.61   8 2.61   2 2.61
                            32 2.75  44 2.75  29 2.75  53 2.75
  36  0.167  0.833  0.833-  10 2.61  12 2.61  16 2.61  18 2.61   1 2.61   3 2.61   7 2.61   9 2.61
                            33 2.75  45 2.75  30 2.75  54 2.75
  37  0.500  0.167  0.167-  23 2.61  20 2.61  14 2.61  22 2.61  11 2.61  19 2.61  13 2.61  10 2.61
                            28 2.75  40 2.75  46 2.75  43 2.75
  38  0.500  0.167  0.500-  24 2.61  21 2.61  15 2.61  23 2.61  12 2.61  20 2.61  14 2.61  11 2.61
                            29 2.75  41 2.75  47 2.75  44 2.75
  39  0.500  0.167  0.833-  22 2.61  24 2.61  19 2.61  21 2.61  13 2.61  15 2.61  10 2.61  12 2.61
                            30 2.75  42 2.75  48 2.75  45 2.75
  40  0.500  0.500  0.167-  26 2.61  23 2.61  17 2.61  25 2.61  14 2.61  22 2.61  16 2.61  13 2.61
                            31 2.75  37 2.75  43 2.75  49 2.75
  41  0.500  0.500  0.500-  27 2.61  24 2.61  18 2.61  26 2.61  15 2.61  23 2.61  17 2.61  14 2.61
                            32 2.75  38 2.75  44 2.75  50 2.75
  42  0.500  0.500  0.833-  25 2.61  27 2.61  22 2.61  24 2.61  16 2.61  18 2.61  13 2.61  15 2.61
                            33 2.75  39 2.75  45 2.75  51 2.75
  43  0.500  0.833  0.167-  20 2.61  26 2.61  11 2.61  17 2.61  25 2.61  19 2.61  16 2.61  10 2.61
                            34 2.75  40 2.75  52 2.75  37 2.75
  44  0.500  0.833  0.500-  21 2.61  27 2.61  12 2.61  18 2.61  26 2.61  20 2.61  17 2.61  11 2.61
                            35 2.75  41 2.75  53 2.75  38 2.75
  45  0.500  0.833  0.833-  19 2.61  21 2.61  25 2.61  27 2.61  10 2.61  12 2.61  16 2.61  18 2.61
                            36 2.75  42 2.75  54 2.75  39 2.75
  46  0.833  0.167  0.167-   5 2.61  23 2.61  20 2.61   2 2.61  22 2.61   4 2.61  19 2.61   1 2.61
                            37 2.75  49 2.75  28 2.75  52 2.75
  47  0.833  0.167  0.500-   6 2.61  24 2.61  21 2.61   3 2.61  23 2.61   5 2.61  20 2.61   2 2.61
                            38 2.75  50 2.75  29 2.75  53 2.75
  48  0.833  0.167  0.833-   4 2.61   6 2.61  22 2.61  24 2.61  19 2.61  21 2.61   1 2.61   3 2.61
                            39 2.75  51 2.75  30 2.75  54 2.75
  49  0.833  0.500  0.167-   8 2.61  26 2.61  23 2.61   5 2.61  25 2.61   7 2.61  22 2.61   4 2.61
                            40 2.75  46 2.75  52 2.75  31 2.75
  50  0.833  0.500  0.500-   9 2.61  27 2.61  24 2.61   6 2.61  26 2.61   8 2.61  23 2.61   5 2.61
                            41 2.75  47 2.75  53 2.75  32 2.75
  51  0.833  0.500  0.833-   7 2.61   9 2.61  25 2.61  27 2.61  22 2.61  24 2.61   4 2.61   6 2.61
                            42 2.75  48 2.75  54 2.75  33 2.75
  52  0.833  0.833  0.167-   2 2.61   8 2.61  20 2.61  26 2.61  19 2.61   7 2.61  25 2.61   1 2.61
                            43 2.75  49 2.75  46 2.75  34 2.75
  53  0.833  0.833  0.500-   3 2.61   9 2.61  21 2.61  27 2.61  20 2.61   8 2.61  26 2.61   2 2.61
                            44 2.75  50 2.75  47 2.75  35 2.75
  54  0.833  0.833  0.833-   1 2.61   3 2.61   7 2.61   9 2.61  19 2.61  21 2.61  25 2.61  27 2.61
                            45 2.75  51 2.75  48 2.75  36 2.75
 
  LATTYP: Found a simple tetragonal cell.
 ALAT       =     8.2501481662
 C/A-ratio  =     1.2642089792
  
  Lattice vectors:
  
 A1 = (   8.2501481662,   0.0000000000,   0.0000000000)
 A2 = (   0.0000000000,   8.2501481662,   0.0000000000)
 A3 = (   0.0000000000,   0.0000000000,  10.4299113916)


Analysis of symmetry for initial positions (statically):
=====================================================================
 Subroutine PRICEL returns following result:
 
  LATTYP: Found a simple tetragonal cell.
 ALAT       =     2.7500493888
 C/A-ratio  =     1.2642089792
  
  Lattice vectors:
  
 A1 = (   2.7500493888,   0.0000000000,   0.0000000000)
 A2 = (   0.0000000000,   2.7500493888,   0.0000000000)
 A3 = (   0.0000000000,   0.0000000000,   3.4766371306)
 
  27 primitive cells build up your supercell.
 

 Routine SETGRP: Setting up the symmetry group for a 
 simple tetragonal supercell.


 Subroutine GETGRP returns: Found 16 space group operations
 (whereof 16 operations were pure point group operations)
 out of a pool of 16 trial point group operations.


The static configuration has the point symmetry D_4h.


Analysis of symmetry for dynamics (positions and initial velocities):
=====================================================================
 Subroutine PRICEL returns following result:
 
  LATTYP: Found a simple tetragonal cell.
 ALAT       =     2.7500493888
 C/A-ratio  =     1.2642089792
  
  Lattice vectors:
  
 A1 = (   2.7500493888,   0.0000000000,   0.0000000000)
 A2 = (   0.0000000000,   2.7500493888,   0.0000000000)
 A3 = (   0.0000000000,   0.0000000000,   3.4766371306)
 
  27 primitive cells build up your supercell.
 

 Routine SETGRP: Setting up the symmetry group for a 
 simple tetragonal supercell.


 Subroutine GETGRP returns: Found 16 space group operations
 (whereof 16 operations were pure point group operations)
 out of a pool of 16 trial point group operations.


The dynamic configuration has the point symmetry D_4h.


Analysis of structural, dynamic, and magnetic symmetry:
=====================================================================
 Subroutine PRICEL returns:
 Original cell was already a primitive cell.
 

 Routine SETGRP: Setting up the symmetry group for a 
 simple tetragonal supercell.


 Subroutine GETGRP returns: Found  4 space group operations
 (whereof  1 operations were pure point group operations)
 out of a pool of 16 trial point group operations.


The magnetic configuration has the point symmetry C_1 .
 The point group associated with its full space group is C_2v.


 Subroutine INISYM returns: Found  4 space group operations
 (whereof  1 operations are pure point group operations),
 and found     1 'primitive' translations

 
 
 KPOINTS: automatic KPOINTS                       

Automatic generation of k-mesh.
 generate k-points for:    5    5    4
Space group operators:
 irot       det(A)        alpha          n_x          n_y          n_z        tau_x        tau_y        tau_z
    1     1.000000     0.000001     1.000000     0.000000     0.000000     0.000000     0.000000     0.000000
    2    -1.000000   180.000000     0.000000     0.000000     1.000000     0.000000     0.000000     0.333333
    3     1.000000   180.000000     0.000000     1.000000     0.000000     0.333333     0.000000     0.333333
    4    -1.000000   180.000000     1.000000     0.000000     0.000000     0.333333     0.000000     0.000000
 
 Subroutine IBZKPT returns following result:
 ===========================================
 
 Found     27 irreducible k-points:
 
 Following reciprocal coordinates:
            Coordinates               Weight
  0.000000  0.000000  0.000000      1.000000
  0.200000  0.000000  0.000000      2.000000
  0.400000  0.000000  0.000000      2.000000
  0.000000  0.200000  0.000000      2.000000
  0.200000  0.200000  0.000000      4.000000
  0.400000  0.200000  0.000000      4.000000
  0.000000  0.400000  0.000000      2.000000
  0.200000  0.400000  0.000000      4.000000
  0.400000  0.400000  0.000000      4.000000
  0.000000  0.000000  0.250000      2.000000
  0.200000  0.000000  0.250000      4.000000
  0.400000  0.000000  0.250000      4.000000
  0.000000  0.200000  0.250000      4.000000
  0.200000  0.200000  0.250000      8.000000
  0.400000  0.200000  0.250000      8.000000
  0.000000  0.400000  0.250000      4.000000
  0.200000  0.400000  0.250000      8.000000
  0.400000  0.400000  0.250000      8.000000
  0.000000  0.000000  0.500000      1.000000
  0.200000  0.000000  0.500000      2.000000
  0.400000  0.000000  0.500000      2.000000
  0.000000  0.200000  0.500000      2.000000
  0.200000  0.200000  0.500000      4.000000
  0.400000  0.200000  0.500000      4.000000
  0.000000  0.400000  0.500000      2.000000
  0.200000  0.400000  0.500000      4.000000
  0.400000  0.400000  0.500000      4.000000
 
 Following cartesian coordinates:
            Coordinates               Weight
  0.000000  0.000000  0.000000      1.000000
  0.024242  0.000000  0.000000      2.000000
  0.048484  0.000000  0.000000      2.000000
  0.000000  0.024242  0.000000      2.000000
  0.024242  0.024242  0.000000      4.000000
  0.048484  0.024242  0.000000      4.000000
  0.000000  0.048484  0.000000      2.000000
  0.024242  0.048484  0.000000      4.000000
  0.048484  0.048484  0.000000      4.000000
  0.000000  0.000000  0.023970      2.000000
  0.024242  0.000000  0.023970      4.000000
  0.048484  0.000000  0.023970      4.000000
  0.000000  0.024242  0.023970      4.000000
  0.024242  0.024242  0.023970      8.000000
  0.048484  0.024242  0.023970      8.000000
  0.000000  0.048484  0.023970      4.000000
  0.024242  0.048484  0.023970      8.000000
  0.048484  0.048484  0.023970      8.000000
  0.000000  0.000000  0.047939      1.000000
  0.024242  0.000000  0.047939      2.000000
  0.048484  0.000000  0.047939      2.000000
  0.000000  0.024242  0.047939      2.000000
  0.024242  0.024242  0.047939      4.000000
  0.048484  0.024242  0.047939      4.000000
  0.000000  0.048484  0.047939      2.000000
  0.024242  0.048484  0.047939      4.000000
  0.048484  0.048484  0.047939      4.000000
 


--------------------------------------------------------------------------------------------------------




 Dimension of arrays:
   k-points           NKPTS =     27   k-points in BZ     NKDIM =     27   number of bands    NBANDS=    186
   number of dos      NEDOS =    301   number of ions     NIONS =     54
   non local maximal  LDIM  =      6   non local SUM 2l+1 LMDIM =     18
   total plane-waves  NPLWV = 204120
   max r-space proj   IRMAX =      1   max aug-charges    IRDMAX=  89713
   dimension x,y,z NGX =    54 NGY =   54 NGZ =   70
   dimension x,y,z NGXF=   108 NGYF=  108 NGZF=  140
   support grid    NGXF=   216 NGYF=  216 NGZF=  280
   ions per type =              27  27
   NGX,Y,Z   is equivalent  to a cutoff of  10.88, 10.88, 11.16 a.u.
   NGXF,Y,Z  is equivalent  to a cutoff of  21.76, 21.76, 22.32 a.u.

 SYSTEM =  AlMn_pv                                 
 POSCAR =  NewRef: 27, @ ['Mn', array([1.37502469, 

 Startparameter for this run:
   NWRITE =      2    write-flag & timer
   PREC   = accura    normal or accurate (medium, high low for compatibility)
   ISTART =      0    job   : 0-new  1-cont  2-samecut
   ICHARG =      2    charge: 1-file 2-atom 10-const
   ISPIN  =      2    spin polarized calculation?
   LNONCOLLINEAR =      F non collinear calculations
   LSORBIT =      F    spin-orbit coupling
   INIWAV =      1    electr: 0-lowe 1-rand  2-diag
   LASPH  =      F    aspherical Exc in radial PAW
   METAGGA=      F    non-selfconsistent MetaGGA calc.

 Electronic Relaxation 1
   ENCUT  =  404.8 eV  29.75 Ry    5.45 a.u.  13.53 13.53 17.11*2*pi/ulx,y,z
   ENINI  =  404.8     initial cutoff
   ENAUG  =  500.7 eV  augmentation charge cutoff
   NELM   =    100;   NELMIN=  4; NELMDL= -8     # of ELM steps 
   EDIFF  = 0.1E-06   stopping-criterion for ELM
   LREAL  =      F    real-space projection
   NLSPLINE    = F    spline interpolate recip. space projectors
   LCOMPAT=      F    compatible to vasp.4.4
   GGA_COMPAT  = T    GGA compatible to vasp.4.4-vasp.4.6
   LMAXPAW     = -100 max onsite density
   LMAXMIX     =    2 max onsite mixed and CHGCAR
   VOSKOWN=      0    Vosko Wilk Nusair interpolation
   ROPT   =    0.00000   0.00000
 Ionic relaxation
   EDIFFG = 0.1E-05   stopping-criterion for IOM
   NSW    =      0    number of steps for IOM
   NBLOCK =      1;   KBLOCK =      1    inner block; outer block 
   IBRION =     -1    ionic relax: 0-MD 1-quasi-New 2-CG
   NFREE  =      0    steps in history (QN), initial steepest desc. (CG)
   ISIF   =      2    stress and relaxation
   IWAVPR =     10    prediction:  0-non 1-charg 2-wave 3-comb
   ISYM   =      2    0-nonsym 1-usesym 2-fastsym
   LCORR  =      T    Harris-Foulkes like correction to forces

   POTIM  = 0.2000    time-step for ionic-motion
   TEIN   =    0.0    initial temperature
   TEBEG  =    0.0;   TEEND  =   0.0 temperature during run
   SMASS  =  -3.00    Nose mass-parameter (am)
   estimated Nose-frequenzy (Omega)   =  0.10E-29 period in steps =****** mass=  -0.156E-26a.u.
   SCALEE = 1.0000    scale energy and forces
   NPACO  =    256;   APACO  = 16.0  distance and # of slots for P.C.
   PSTRESS=    0.0 pullay stress

  Mass of Ions in am
   POMASS =  26.98 54.94
  Ionic Valenz
   ZVAL   =   3.00  7.00
  Atomic Wigner-Seitz radii
   RWIGS  =  -1.00 -1.00
  virtual crystal weights 
   VCA    =   1.00  1.00
   NELECT =     270.0000    total number of electrons
   NUPDOWN=      -1.0000    fix difference up-down

 DOS related values:
   EMIN   =  10.00;   EMAX   =-10.00  energy-range for DOS
   EFERMI =   0.00
   ISMEAR =     1;   SIGMA  =   0.20  broadening in eV -4-tet -1-fermi 0-gaus

 Electronic relaxation 2 (details)
   IALGO  =     58    algorithm
   LDIAG  =      T    sub-space diagonalisation (order eigenvalues)
   LSUBROT=      F    optimize rotation matrix (better conditioning)
   TURBO    =      0    0=normal 1=particle mesh
   IRESTART =      0    0=no restart 2=restart with 2 vectors
   NREBOOT  =      0    no. of reboots
   NMIN     =      0    reboot dimension
   EREF     =   0.00    reference energy to select bands
   IMIX   =      4    mixing-type and parameters
     AMIX     =   0.40;   BMIX     =  1.00
     AMIX_MAG =   1.60;   BMIX_MAG =  1.00
     AMIN     =   0.10
     WC   =   100.;   INIMIX=   1;  MIXPRE=   1;  MAXMIX= -45

 Intra band minimization:
   WEIMIN = 0.0000     energy-eigenvalue tresh-hold
   EBREAK =  0.13E-09  absolut break condition
   DEPER  =   0.30     relativ break condition  

   TIME   =   0.40     timestep for ELM

  volume/ion in A,a.u.               =      13.15        88.72
  Fermi-wavevector in a.u.,A,eV,Ry     =   1.186118  2.241439 19.141722  1.406877
  Thomas-Fermi vector in A             =   2.322298
 
 Write flags
   LWAVE        =      F    write WAVECAR
   LDOWNSAMPLE  =      F    k-point downsampling of WAVECAR
   LCHARG       =      F    write CHGCAR
   LVTOT        =      F    write LOCPOT, total local potential
   LVHAR        =      F    write LOCPOT, Hartree potential only
   LELF         =      F    write electronic localiz. function (ELF)
   LORBIT       =     10    0 simple, 1 ext, 2 COOP (PROOUT), +10 PAW based schemes


 Dipole corrections
   LMONO  =      F    monopole corrections only (constant potential shift)
   LDIPOL =      F    correct potential (dipole corrections)
   IDIPOL =      0    1-x, 2-y, 3-z, 4-all directions 
   EPSILON=  1.0000000 bulk dielectric constant

 Exchange correlation treatment:
   GGA     =    --    GGA type
   LEXCH   =     8    internal setting for exchange type
   VOSKOWN=      0    Vosko Wilk Nusair interpolation
   LHFCALC =     F    Hartree Fock is set to
   LHFONE  =     F    Hartree Fock one center treatment
   AEXX    =    0.0000 exact exchange contribution

 Linear response parameters
   LEPSILON=     F    determine dielectric tensor
   LRPA    =     F    only Hartree local field effects (RPA)
   LNABLA  =     F    use nabla operator in PAW spheres
   LVEL    =     F    velocity operator in full k-point grid
   LINTERFAST=   F  fast interpolation
   KINTER  =     0    interpolate to denser k-point grid
   CSHIFT  =0.1000    complex shift for real part using Kramers Kronig
   OMEGAMAX=  -1.0    maximum frequency
   DEG_THRESHOLD= 0.2000000E-02 threshold for treating states as degnerate
   RTIME   =   -0.100 relaxation time in fs
  (WPLASMAI=    0.000 imaginary part of plasma frequency in eV, 0.658/RTIME)
   DFIELD  = 0.0000000 0.0000000 0.0000000 field for delta impulse in time
 
 Orbital magnetization related:
   ORBITALMAG=     F  switch on orbital magnetization
   LCHIMAG   =     F  perturbation theory with respect to B field
   DQ        =  0.001000  dq finite difference perturbation B field
   LLRAUG    =     F  two centre corrections for induced B field



--------------------------------------------------------------------------------------------------------


 Static calculation
 charge density and potential will be updated during run
 spin polarized calculation
 Conjugate gradient for all bands (Freysoldt, et al. PRB 79, 241103 (2009))
 preconditioned conjugated gradient                                        
 perform sub-space diagonalisation
    before iterative eigenvector-optimisation
 modified Broyden-mixing scheme, WC =      100.0
 initial mixing is a Kerker type mixing with AMIX =  0.4000 and BMIX =      1.0000
 Hartree-type preconditioning will be used
 using additional bands           51
 reciprocal scheme for non local part
 use partial core corrections
 no Harris-corrections to forces 
 use gradient corrections 
 use of overlap-Matrix (Vanderbilt PP)
 Methfessel and Paxton  Order N= 1 SIGMA  =   0.20


--------------------------------------------------------------------------------------------------------


  energy-cutoff  :      404.80
  volume of cell :      709.91
      direct lattice vectors                 reciprocal lattice vectors
     8.250148166  0.000000000  0.000000000     0.121209944  0.000000000  0.000000000
     0.000000000  8.250148166  0.000000000     0.000000000  0.121209944  0.000000000
     0.000000000  0.000000000 10.429911392     0.000000000  0.000000000  0.095878092

  length of vectors
     8.250148166  8.250148166 10.429911392     0.121209944  0.121209944  0.095878092


 
 k-points in units of 2pi/SCALE and weight: automatic KPOINTS                       
   0.00000000  0.00000000  0.00000000       0.010
   0.02424199  0.00000000  0.00000000       0.020
   0.04848398  0.00000000  0.00000000       0.020
   0.00000000  0.02424199  0.00000000       0.020
   0.02424199  0.02424199  0.00000000       0.040
   0.04848398  0.02424199  0.00000000       0.040
   0.00000000  0.04848398  0.00000000       0.020
   0.02424199  0.04848398  0.00000000       0.040
   0.04848398  0.04848398  0.00000000       0.040
   0.00000000  0.00000000  0.02396952       0.020
   0.02424199  0.00000000  0.02396952       0.040
   0.04848398  0.00000000  0.02396952       0.040
   0.00000000  0.02424199  0.02396952       0.040
   0.02424199  0.02424199  0.02396952       0.080
   0.04848398  0.02424199  0.02396952       0.080
   0.00000000  0.04848398  0.02396952       0.040
   0.02424199  0.04848398  0.02396952       0.080
   0.04848398  0.04848398  0.02396952       0.080
   0.00000000  0.00000000  0.04793905       0.010
   0.02424199  0.00000000  0.04793905       0.020
   0.04848398  0.00000000  0.04793905       0.020
   0.00000000  0.02424199  0.04793905       0.020
   0.02424199  0.02424199  0.04793905       0.040
   0.04848398  0.02424199  0.04793905       0.040
   0.00000000  0.04848398  0.04793905       0.020
   0.02424199  0.04848398  0.04793905       0.040
   0.04848398  0.04848398  0.04793905       0.040
 
 k-points in reciprocal lattice and weights: automatic KPOINTS                       
   0.00000000  0.00000000  0.00000000       0.010
   0.20000000  0.00000000  0.00000000       0.020
   0.40000000  0.00000000  0.00000000       0.020
   0.00000000  0.20000000  0.00000000       0.020
   0.20000000  0.20000000  0.00000000       0.040
   0.40000000  0.20000000  0.00000000       0.040
   0.00000000  0.40000000  0.00000000       0.020
   0.20000000  0.40000000  0.00000000       0.040
   0.40000000  0.40000000  0.00000000       0.040
   0.00000000  0.00000000  0.25000000       0.020
   0.20000000  0.00000000  0.25000000       0.040
   0.40000000  0.00000000  0.25000000       0.040
   0.00000000  0.20000000  0.25000000       0.040
   0.20000000  0.20000000  0.25000000       0.080
   0.40000000  0.20000000  0.25000000       0.080
   0.00000000  0.40000000  0.25000000       0.040
   0.20000000  0.40000000  0.25000000       0.080
   0.40000000  0.40000000  0.25000000       0.080
   0.00000000  0.00000000  0.50000000       0.010
   0.20000000  0.00000000  0.50000000       0.020
   0.40000000  0.00000000  0.50000000       0.020
   0.00000000  0.20000000  0.50000000       0.020
   0.20000000  0.20000000  0.50000000       0.040
   0.40000000  0.20000000  0.50000000       0.040
   0.00000000  0.40000000  0.50000000       0.020
   0.20000000  0.40000000  0.50000000       0.040
   0.40000000  0.40000000  0.50000000       0.040
 
 position of ions in fractional coordinates (direct lattice) 
   0.00000000  0.00000000  0.00000000
   0.00000000  0.00000000  0.33333333
   0.00000000  0.00000000  0.66666667
   0.00000000  0.33333333  0.00000000
   0.00000000  0.33333333  0.33333333
   0.00000000  0.33333333  0.66666667
   0.00000000  0.66666667  0.00000000
   0.00000000  0.66666667  0.33333333
   0.00000000  0.66666667  0.66666667
   0.33333333  0.00000000  0.00000000
   0.33333333  0.00000000  0.33333333
   0.33333333  0.00000000  0.66666667
   0.33333333  0.33333333  0.00000000
   0.33333333  0.33333333  0.33333333
   0.33333333  0.33333333  0.66666667
   0.33333333  0.66666667  0.00000000
   0.33333333  0.66666667  0.33333333
   0.33333333  0.66666667  0.66666667
   0.66666667  0.00000000  0.00000000
   0.66666667  0.00000000  0.33333333
   0.66666667  0.00000000  0.66666667
   0.66666667  0.33333333  0.00000000
   0.66666667  0.33333333  0.33333333
   0.66666667  0.33333333  0.66666667
   0.66666667  0.66666667  0.00000000
   0.66666667  0.66666667  0.33333333
   0.66666667  0.66666667  0.66666667
   0.16666667  0.16666667  0.16666667
   0.16666667  0.16666667  0.50000000
   0.16666667  0.16666667  0.83333333
   0.16666667  0.50000000  0.16666667
   0.16666667  0.50000000  0.50000000
   0.16666667  0.50000000  0.83333333
   0.16666667  0.83333333  0.16666667
   0.16666667  0.83333333  0.50000000
   0.16666667  0.83333333  0.83333333
   0.50000000  0.16666667  0.16666667
   0.50000000  0.16666667  0.50000000
   0.50000000  0.16666667  0.83333333
   0.50000000  0.50000000  0.16666667
   0.50000000  0.50000000  0.50000000
   0.50000000  0.50000000  0.83333333
   0.50000000  0.83333333  0.16666667
   0.50000000  0.83333333  0.50000000
   0.50000000  0.83333333  0.83333333
   0.83333333  0.16666667  0.16666667
   0.83333333  0.16666667  0.50000000
   0.83333333  0.16666667  0.83333333
   0.83333333  0.50000000  0.16666667
   0.83333333  0.50000000  0.50000000
   0.83333333  0.50000000  0.83333333
   0.83333333  0.83333333  0.16666667
   0.83333333  0.83333333  0.50000000
   0.83333333  0.83333333  0.83333333
 
 position of ions in cartesian coordinates  (Angst):
   0.00000000  0.00000000  0.00000000
   0.00000000  0.00000000  3.47663713
   0.00000000  0.00000000  6.95327426
   0.00000000  2.75004939  0.00000000
   0.00000000  2.75004939  3.47663713
   0.00000000  2.75004939  6.95327426
   0.00000000  5.50009878  0.00000000
   0.00000000  5.50009878  3.47663713
   0.00000000  5.50009878  6.95327426
   2.75004939  0.00000000  0.00000000
   2.75004939  0.00000000  3.47663713
   2.75004939  0.00000000  6.95327426
   2.75004939  2.75004939  0.00000000
   2.75004939  2.75004939  3.47663713
   2.75004939  2.75004939  6.95327426
   2.75004939  5.50009878  0.00000000
   2.75004939  5.50009878  3.47663713
   2.75004939  5.50009878  6.95327426
   5.50009878  0.00000000  0.00000000
   5.50009878  0.00000000  3.47663713
   5.50009878  0.00000000  6.95327426
   5.50009878  2.75004939  0.00000000
   5.50009878  2.75004939  3.47663713
   5.50009878  2.75004939  6.95327426
   5.50009878  5.50009878  0.00000000
   5.50009878  5.50009878  3.47663713
   5.50009878  5.50009878  6.95327426
   1.37502469  1.37502469  1.73831857
   1.37502469  1.37502469  5.21495570
   1.37502469  1.37502469  8.69159283
   1.37502469  4.12507408  1.73831857
   1.37502469  4.12507408  5.21495570
   1.37502469  4.12507408  8.69159283
   1.37502469  6.87512347  1.73831857
   1.37502469  6.87512347  5.21495570
   1.37502469  6.87512347  8.69159283
   4.12507408  1.37502469  1.73831857
   4.12507408  1.37502469  5.21495570
   4.12507408  1.37502469  8.69159283
   4.12507408  4.12507408  1.73831857
   4.12507408  4.12507408  5.21495570
   4.12507408  4.12507408  8.69159283
   4.12507408  6.87512347  1.73831857
   4.12507408  6.87512347  5.21495570
   4.12507408  6.87512347  8.69159283
   6.87512347  1.37502469  1.73831857
   6.87512347  1.37502469  5.21495570
   6.87512347  1.37502469  8.69159283
   6.87512347  4.12507408  1.73831857
   6.87512347  4.12507408  5.21495570
   6.87512347  4.12507408  8.69159283
   6.87512347  6.87512347  1.73831857
   6.87512347  6.87512347  5.21495570
   6.87512347  6.87512347  8.69159283
 


--------------------------------------------------------------------------------------------------------


 k-point  1 :   0.0000 0.0000 0.0000  plane waves:   13099
 k-point  2 :   0.2000 0.0000 0.0000  plane waves:   13101
 k-point  3 :   0.4000 0.0000 0.0000  plane waves:   13111
 k-point  4 :   0.0000 0.2000 0.0000  plane waves:   13101
 k-point  5 :   0.2000 0.2000 0.0000  plane waves:   13137
 k-point  6 :   0.4000 0.2000 0.0000  plane waves:   13119
 k-point  7 :   0.0000 0.4000 0.0000  plane waves:   13111
 k-point  8 :   0.2000 0.4000 0.0000  plane waves:   13119
 k-point  9 :   0.4000 0.4000 0.0000  plane waves:   13129
 k-point 10 :   0.0000 0.0000 0.2500  plane waves:   13134
 k-point 11 :   0.2000 0.0000 0.2500  plane waves:   13149
 k-point 12 :   0.4000 0.0000 0.2500  plane waves:   13119
 k-point 13 :   0.0000 0.2000 0.2500  plane waves:   13149
 k-point 14 :   0.2000 0.2000 0.2500  plane waves:   13145
 k-point 15 :   0.4000 0.2000 0.2500  plane waves:   13134
 k-point 16 :   0.0000 0.4000 0.2500  plane waves:   13119
 k-point 17 :   0.2000 0.4000 0.2500  plane waves:   13134
 k-point 18 :   0.4000 0.4000 0.2500  plane waves:   13108
 k-point 19 :   0.0000 0.0000 0.5000  plane waves:   13186
 k-point 20 :   0.2000 0.0000 0.5000  plane waves:   13124
 k-point 21 :   0.4000 0.0000 0.5000  plane waves:   13152
 k-point 22 :   0.0000 0.2000 0.5000  plane waves:   13124
 k-point 23 :   0.2000 0.2000 0.5000  plane waves:   13136
 k-point 24 :   0.4000 0.2000 0.5000  plane waves:   13128
 k-point 25 :   0.0000 0.4000 0.5000  plane waves:   13152
 k-point 26 :   0.2000 0.4000 0.5000  plane waves:   13128
 k-point 27 :   0.4000 0.4000 0.5000  plane waves:   13112

 maximum and minimum number of plane-waves per node :      3304     3246

 maximum number of plane-waves:     13186
 maximum index in each direction: 
   IXMAX=   13   IYMAX=   13   IZMAX=   17
   IXMIN=  -13   IYMIN=  -13   IZMIN=  -17


 parallel 3D FFT for wavefunctions:
    minimum data exchange during FFTs selected (reduces bandwidth)
 parallel 3D FFT for charge:
    minimum data exchange during FFTs selected (reduces bandwidth)


 total amount of memory used by VASP MPI-rank0   950766. kBytes
=======================================================================

   base      :      30000. kBytes
   nonl-proj :      28494. kBytes
   fftplans  :      31580. kBytes
   grid      :      21385. kBytes
   one-center:        435. kBytes
   wavefun   :     838872. kBytes
 
     INWAV:  cpu time    0.0000: real time    0.0000
 Broyden mixing: mesh for mixing (old mesh)
   NGX = 27   NGY = 27   NGZ = 35
  (NGX  =108   NGY  =108   NGZ  =140)
  gives a total of  25515 points

 initial charge density was supplied:
 charge density of overlapping atoms calculated
 number of electron     270.0000000 magnetization      45.0000000
 keeping initial charge density in first step


--------------------------------------------------------------------------------------------------------


 Maximum index for augmentation-charges        10967 (set IRDMAX)


--------------------------------------------------------------------------------------------------------


 First call to EWALD:  gamma=   0.199
 Maximum number of real-space cells 3x 3x 2
 Maximum number of reciprocal cells 3x 3x 3

    FEWALD:  cpu time    0.0025: real time    0.0024


--------------------------------------- Iteration      1(   1)  ---------------------------------------


    POTLOK:  cpu time    0.3957: real time    0.3960
    SETDIJ:  cpu time    0.4687: real time    0.4689
    TRIAL :  cpu time   34.2396: real time   34.5360
    CORREC:  cpu time    0.0056: real time    0.0063
    --------------------------------------------
      LOOP:  cpu time   35.3956: real time   35.7003

 eigenvalue-minimisations  : 20088
 total energy-change (2. order) : 0.2016863E+04  (-0.9014317E+04)
 number of electron     270.0000000 magnetization      45.0000000
 augmentation part      270.0000000 magnetization      45.0000000

 Free energy of the ion-electron system (eV)
  ---------------------------------------------------
  alpha Z        PSCENC =       798.38614055
  Ewald energy   TEWEN  =    -12901.57693327
  -Hartree energ DENC   =     -2855.60785864
  -exchange      EXHF   =         0.00000000
  -V(xc)+E(xc)   XCENC  =      -996.11804331
  PAW double counting   =     12741.82587617   -11476.22345381
  entropy T*S    EENTRO =        -0.00134374
  eigenvalues    EBANDS =      4008.50485014
  atomic energy  EATOM  =     12697.67401269
  ---------------------------------------------------
  free energy    TOTEN  =      2016.86324677 eV

  energy without entropy =     2016.86459051  energy(sigma->0) =     2016.86369468


--------------------------------------------------------------------------------------------------------




--------------------------------------- Iteration      1(   2)  ---------------------------------------


    TRIAL :  cpu time   33.5091: real time   35.1860
    CORREC:  cpu time    0.0071: real time    0.0080
    --------------------------------------------
      LOOP:  cpu time   33.5172: real time   35.1970

 eigenvalue-minimisations  : 20088
 total energy-change (2. order) :-0.2139516E+04  (-0.2061439E+04)
 number of electron     270.0000000 magnetization      45.0000000
 augmentation part      270.0000000 magnetization      45.0000000

 Free energy of the ion-electron system (eV)
  ---------------------------------------------------
  alpha Z        PSCENC =       798.38614055
  Ewald energy   TEWEN  =    -12901.57693327
  -Hartree energ DENC   =     -2855.60785864
  -exchange      EXHF   =         0.00000000
  -V(xc)+E(xc)   XCENC  =      -996.11804331
  PAW double counting   =     12741.82587617   -11476.22345381
  entropy T*S    EENTRO =        -0.00387932
  eigenvalues    EBANDS =      1868.99176481
  atomic energy  EATOM  =     12697.67401269
  ---------------------------------------------------
  free energy    TOTEN  =      -122.65237415 eV

  energy without entropy =     -122.64849483  energy(sigma->0) =     -122.65108104


--------------------------------------------------------------------------------------------------------




--------------------------------------- Iteration      1(   3)  ---------------------------------------


    TRIAL :  cpu time   46.0078: real time   47.8019
    CORREC:  cpu time    0.0082: real time    0.0083
    --------------------------------------------
      LOOP:  cpu time   46.0170: real time   47.8131

 eigenvalue-minimisations  : 29940
 total energy-change (2. order) :-0.2429620E+03  (-0.2075062E+03)
 number of electron     270.0000000 magnetization      45.0000000
 augmentation part      270.0000000 magnetization      45.0000000

 Free energy of the ion-electron system (eV)
  ---------------------------------------------------
  alpha Z        PSCENC =       798.38614055
  Ewald energy   TEWEN  =    -12901.57693327
  -Hartree energ DENC   =     -2855.60785864
  -exchange      EXHF   =         0.00000000
  -V(xc)+E(xc)   XCENC  =      -996.11804331
  PAW double counting   =     12741.82587617   -11476.22345381
  entropy T*S    EENTRO =        -0.00231380
  eigenvalues    EBANDS =      1626.02820633
  atomic energy  EATOM  =     12697.67401269
  ---------------------------------------------------
  free energy    TOTEN  =      -365.61436710 eV

  energy without entropy =     -365.61205331  energy(sigma->0) =     -365.61359584


--------------------------------------------------------------------------------------------------------




--------------------------------------- Iteration      1(   4)  ---------------------------------------


    TRIAL :  cpu time   50.0669: real time   50.3181
    CORREC:  cpu time    0.0082: real time    0.0083
    --------------------------------------------
      LOOP:  cpu time   50.0760: real time   50.3298

 eigenvalue-minimisations  : 32496
 total energy-change (2. order) :-0.3555371E+02  (-0.3093610E+02)
 number of electron     270.0000000 magnetization      45.0000000
 augmentation part      270.0000000 magnetization      45.0000000

 Free energy of the ion-electron system (eV)
  ---------------------------------------------------
  alpha Z        PSCENC =       798.38614055
  Ewald energy   TEWEN  =    -12901.57693327
  -Hartree energ DENC   =     -2855.60785864
  -exchange      EXHF   =         0.00000000
  -V(xc)+E(xc)   XCENC  =      -996.11804331
  PAW double counting   =     12741.82587617   -11476.22345381
  entropy T*S    EENTRO =         0.01508711
  eigenvalues    EBANDS =      1590.45709853
  atomic energy  EATOM  =     12697.67401269
  ---------------------------------------------------
  free energy    TOTEN  =      -401.16807399 eV

  energy without entropy =     -401.18316111  energy(sigma->0) =     -401.17310303


--------------------------------------------------------------------------------------------------------




--------------------------------------- Iteration      1(   5)  ---------------------------------------


    TRIAL :  cpu time   49.1238: real time   50.9806
    CORREC:  cpu time    0.0085: real time    0.0093
    --------------------------------------------
      LOOP:  cpu time   49.1332: real time   50.9934

 eigenvalue-minimisations  : 32456
 total energy-change (2. order) :-0.2800952E+01  (-0.2683536E+01)
 number of electron     270.0000000 magnetization      45.0000000
 augmentation part      270.0000000 magnetization      45.0000000

 Free energy of the ion-electron system (eV)
  ---------------------------------------------------
  alpha Z        PSCENC =       798.38614055
  Ewald energy   TEWEN  =    -12901.57693327
  -Hartree energ DENC   =     -2855.60785864
  -exchange      EXHF   =         0.00000000
  -V(xc)+E(xc)   XCENC  =      -996.11804331
  PAW double counting   =     12741.82587617   -11476.22345381
  entropy T*S    EENTRO =         0.01496109
  eigenvalues    EBANDS =      1587.65627225
  atomic energy  EATOM  =     12697.67401269
  ---------------------------------------------------
  free energy    TOTEN  =      -403.96902629 eV

  energy without entropy =     -403.98398738  energy(sigma->0) =     -403.97401332


--------------------------------------------------------------------------------------------------------




--------------------------------------- Iteration      1(   6)  ---------------------------------------


    TRIAL :  cpu time   49.4201: real time   50.4487
    CORREC:  cpu time    0.0084: real time    0.0093
    --------------------------------------------
      LOOP:  cpu time   49.4318: real time   50.4619

 eigenvalue-minimisations  : 32488
 total energy-change (2. order) :-0.2110875E+00  (-0.2081028E+00)
 number of electron     270.0000000 magnetization      45.0000000
 augmentation part      270.0000000 magnetization      45.0000000

 Free energy of the ion-electron system (eV)
  ---------------------------------------------------
  alpha Z        PSCENC =       798.38614055
  Ewald energy   TEWEN  =    -12901.57693327
  -Hartree energ DENC   =     -2855.60785864
  -exchange      EXHF   =         0.00000000
  -V(xc)+E(xc)   XCENC  =      -996.11804331
  PAW double counting   =     12741.82587617   -11476.22345381
  entropy T*S    EENTRO =         0.01576665
  eigenvalues    EBANDS =      1587.44437922
  atomic energy  EATOM  =     12697.67401269
  ---------------------------------------------------
  free energy    TOTEN  =      -404.18011377 eV

  energy without entropy =     -404.19588042  energy(sigma->0) =     -404.18536932


--------------------------------------------------------------------------------------------------------




--------------------------------------- Iteration      1(   7)  ---------------------------------------


    TRIAL :  cpu time   50.1268: real time   51.6095
    CORREC:  cpu time    0.0087: real time    0.0094
    --------------------------------------------
      LOOP:  cpu time   50.1363: real time   51.6224

 eigenvalue-minimisations  : 33040
 total energy-change (2. order) :-0.2138950E-01  (-0.2124889E-01)
 number of electron     270.0000000 magnetization      45.0000000
 augmentation part      270.0000000 magnetization      45.0000000

 Free energy of the ion-electron system (eV)
  ---------------------------------------------------
  alpha Z        PSCENC =       798.38614055
  Ewald energy   TEWEN  =    -12901.57693327
  -Hartree energ DENC   =     -2855.60785864
  -exchange      EXHF   =         0.00000000
  -V(xc)+E(xc)   XCENC  =      -996.11804331
  PAW double counting   =     12741.82587617   -11476.22345381
  entropy T*S    EENTRO =         0.01596907
  eigenvalues    EBANDS =      1587.42278730
  atomic energy  EATOM  =     12697.67401269
  ---------------------------------------------------
  free energy    TOTEN  =      -404.20150327 eV

  energy without entropy =     -404.21747234  energy(sigma->0) =     -404.20682629


--------------------------------------------------------------------------------------------------------




--------------------------------------- Iteration      1(   8)  ---------------------------------------


    TRIAL :  cpu time   49.3143: real time   50.4827
    CORREC:  cpu time    0.0086: real time    0.0088
    CHARGE:  cpu time    1.6283: real time    1.6283
    --------------------------------------------
      LOOP:  cpu time   50.9526: real time   52.1232

 eigenvalue-minimisations  : 32000
 total energy-change (2. order) :-0.1823539E-02  (-0.1817473E-02)
 number of electron     269.9999994 magnetization      32.9141400
 augmentation part       64.1757634 magnetization      18.9411670

 Free energy of the ion-electron system (eV)
  ---------------------------------------------------
  alpha Z        PSCENC =       798.38614055
  Ewald energy   TEWEN  =    -12901.57693327
  -Hartree energ DENC   =     -2855.60785864
  -exchange      EXHF   =         0.00000000
  -V(xc)+E(xc)   XCENC  =      -996.11804331
  PAW double counting   =     12741.82587617   -11476.22345381
  entropy T*S    EENTRO =         0.01597567
  eigenvalues    EBANDS =      1587.42095715
  atomic energy  EATOM  =     12697.67401269
  ---------------------------------------------------
  free energy    TOTEN  =      -404.20332681 eV

  energy without entropy =     -404.21930248  energy(sigma->0) =     -404.20865203


--------------------------------------------------------------------------------------------------------




--------------------------------------- Iteration      1(   9)  ---------------------------------------


    POTLOK:  cpu time    0.3964: real time    0.3964
    SETDIJ:  cpu time    0.5148: real time    0.5149
    TRIAL :  cpu time   17.7027: real time   17.8644
    CORREC:  cpu time    6.1728: real time    6.2384
    CHARGE:  cpu time    1.6057: real time    1.6058
    --------------------------------------------
      LOOP:  cpu time   26.4015: real time   26.6295

 eigenvalue-minimisations  :     0
 total energy-change (2. order) : 0.3015593E+03  (-0.2111739E+03)
 number of electron     269.9999993 magnetization      34.7474310
 augmentation part       81.9017990 magnetization      22.6501437

 Free energy of the ion-electron system (eV)
  ---------------------------------------------------
  alpha Z        PSCENC =       798.38614055
  Ewald energy   TEWEN  =    -12901.57693327
  -Hartree energ DENC   =     -1273.10131522
  -exchange      EXHF   =         0.00000000
  -V(xc)+E(xc)   XCENC  =     -1041.65545595
  PAW double counting   =     19166.72461366   -17747.17736981
  entropy T*S    EENTRO =        -0.00918222
  eigenvalues    EBANDS =       198.06626206
  atomic energy  EATOM  =     12697.67401269
  ---------------------------------------------------
  free energy    TOTEN  =      -102.64406961 eV

  energy without entropy =     -102.63488740  energy(sigma->0) =     -102.64100887


--------------------------------------------------------------------------------------------------------




--------------------------------------- Iteration      1(  10)  ---------------------------------------


    POTLOK:  cpu time    0.3922: real time    0.3922
    SETDIJ:  cpu time    0.4687: real time    0.4688
    TRIAL :  cpu time   17.1719: real time   18.0019
    CORREC:  cpu time    5.4396: real time    5.4973
    CHARGE:  cpu time    1.6240: real time    1.6240
    --------------------------------------------
      LOOP:  cpu time   25.1055: real time   25.9953

 eigenvalue-minimisations  :     0
 total energy-change (2. order) :-0.2126632E+03  (-0.1411556E+02)
 number of electron     269.9999993 magnetization      35.4613357
 augmentation part       85.8884768 magnetization      23.8425534

 Free energy of the ion-electron system (eV)
  ---------------------------------------------------
  alpha Z        PSCENC =       798.38614055
  Ewald energy   TEWEN  =    -12901.57693327
  -Hartree energ DENC   =     -2078.72074941
  -exchange      EXHF   =         0.00000000
  -V(xc)+E(xc)   XCENC  =     -1013.54267193
  PAW double counting   =     20552.41095003   -19308.27879983
  entropy T*S    EENTRO =        -0.00810074
  eigenvalues    EBANDS =       938.34997457
  atomic energy  EATOM  =     12697.67401269
  ---------------------------------------------------
  free energy    TOTEN  =      -315.30725882 eV

  energy without entropy =     -315.29915808  energy(sigma->0) =     -315.30455857


--------------------------------------------------------------------------------------------------------




--------------------------------------- Iteration      1(  11)  ---------------------------------------


    POTLOK:  cpu time    0.3905: real time    0.3907
    SETDIJ:  cpu time    0.4622: real time    0.4622
    TRIAL :  cpu time   17.2495: real time   17.4042
    CORREC:  cpu time    6.0842: real time    6.1113
    CHARGE:  cpu time    1.5946: real time    1.5946
    --------------------------------------------
      LOOP:  cpu time   25.7941: real time   25.9772

 eigenvalue-minimisations  :     0
 total energy-change (2. order) :-0.1304500E+02  (-0.9419034E+01)
 number of electron     269.9999992 magnetization      35.8568336
 augmentation part       88.5507629 magnetization      24.4829723

 Free energy of the ion-electron system (eV)
  ---------------------------------------------------
  alpha Z        PSCENC =       798.38614055
  Ewald energy   TEWEN  =    -12901.57693327
  -Hartree energ DENC   =     -2309.36702178
  -exchange      EXHF   =         0.00000000
  -V(xc)+E(xc)   XCENC  =     -1004.98532112
  PAW double counting   =     21485.24439698   -20281.74503420
  entropy T*S    EENTRO =        -0.00460705
  eigenvalues    EBANDS =      1188.02559978
  atomic energy  EATOM  =     12697.67401269
  ---------------------------------------------------
  free energy    TOTEN  =      -328.35226112 eV

  energy without entropy =     -328.34765406  energy(sigma->0) =     -328.35072543


--------------------------------------------------------------------------------------------------------




--------------------------------------- Iteration      1(  12)  ---------------------------------------


    POTLOK:  cpu time    0.3909: real time    0.3911
    SETDIJ:  cpu time    0.4939: real time    0.4938
    TRIAL :  cpu time   17.9210: real time   17.9924
    CORREC:  cpu time    5.8604: real time    6.5825
    CHARGE:  cpu time    1.5982: real time    1.5983
    --------------------------------------------
      LOOP:  cpu time   26.2854: real time   27.0806

 eigenvalue-minimisations  :     0
 total energy-change (2. order) :-0.9782149E+01  (-0.1475601E+02)
 number of electron     269.9999992 magnetization      36.1177026
 augmentation part       86.7573059 magnetization      24.7739945

 Free energy of the ion-electron system (eV)
  ---------------------------------------------------
  alpha Z        PSCENC =       798.38614055
  Ewald energy   TEWEN  =    -12901.57693327
  -Hartree energ DENC   =     -2501.89716823
  -exchange      EXHF   =         0.00000000
  -V(xc)+E(xc)   XCENC  =      -998.32997451
  PAW double counting   =     21867.39714742   -20682.23445505
  entropy T*S    EENTRO =        -0.01469999
  eigenvalues    EBANDS =      1382.45142718
  atomic energy  EATOM  =     12697.67401269
  ---------------------------------------------------
  free energy    TOTEN  =      -338.13441028 eV

  energy without entropy =     -338.11971029  energy(sigma->0) =     -338.12951028


--------------------------------------------------------------------------------------------------------




--------------------------------------- Iteration      1(  13)  ---------------------------------------


    POTLOK:  cpu time    0.3903: real time    0.3904
    SETDIJ:  cpu time    0.4587: real time    0.4588
    TRIAL :  cpu time   17.2454: real time   17.3979
    CORREC:  cpu time    5.4293: real time    5.4877
    CHARGE:  cpu time    1.6239: real time    1.6241
    --------------------------------------------
      LOOP:  cpu time   25.1545: real time   25.3659

 eigenvalue-minimisations  :     0
 total energy-change (2. order) :-0.1468112E+02  (-0.8255101E+00)
 number of electron     269.9999992 magnetization      36.0499783
 augmentation part       86.3867692 magnetization      24.7104622

 Free energy of the ion-electron system (eV)
  ---------------------------------------------------
  alpha Z        PSCENC =       798.38614055
  Ewald energy   TEWEN  =    -12901.57693327
  -Hartree energ DENC   =     -2517.42184215
  -exchange      EXHF   =         0.00000000
  -V(xc)+E(xc)   XCENC  =      -998.99331251
  PAW double counting   =     21136.68495356   -19899.23340316
  entropy T*S    EENTRO =        -0.02238930
  eigenvalues    EBANDS =      1331.67955188
  atomic energy  EATOM  =     12697.67401269
  ---------------------------------------------------
  free energy    TOTEN  =      -352.81553240 eV

  energy without entropy =     -352.79314310  energy(sigma->0) =     -352.80806930


--------------------------------------------------------------------------------------------------------




--------------------------------------- Iteration      1(  14)  ---------------------------------------


    POTLOK:  cpu time    0.3969: real time    0.4015
    SETDIJ:  cpu time    1.2584: real time    1.2585
    TRIAL :  cpu time   17.9126: real time   17.9946
    CORREC:  cpu time    5.4381: real time    5.4660
    CHARGE:  cpu time    1.6011: real time    1.6569
    --------------------------------------------
      LOOP:  cpu time   26.9131: real time   27.0851

 eigenvalue-minimisations  :     0
 total energy-change (2. order) :-0.8102028E+00  (-0.1123006E+01)
 number of electron     269.9999992 magnetization      35.9977829
 augmentation part       86.0056636 magnetization      24.4927170

 Free energy of the ion-electron system (eV)
  ---------------------------------------------------
  alpha Z        PSCENC =       798.38614055
  Ewald energy   TEWEN  =    -12901.57693327
  -Hartree energ DENC   =     -2499.29929725
  -exchange      EXHF   =         0.00000000
  -V(xc)+E(xc)   XCENC  =      -999.69162469
  PAW double counting   =     20922.40161373   -19678.23219678
  entropy T*S    EENTRO =        -0.02224193
  eigenvalues    EBANDS =      1306.73493914
  atomic energy  EATOM  =     12697.67401269
  ---------------------------------------------------
  free energy    TOTEN  =      -353.62573516 eV

  energy without entropy =     -353.60349323  energy(sigma->0) =     -353.61832119


--------------------------------------------------------------------------------------------------------




--------------------------------------- Iteration      1(  15)  ---------------------------------------


    POTLOK:  cpu time    0.3947: real time    0.4030
    SETDIJ:  cpu time    0.4554: real time    1.1894
    TRIAL :  cpu time   17.3118: real time   17.3831
    CORREC:  cpu time    5.4540: real time    5.5108
    CHARGE:  cpu time    1.6086: real time    1.6229
    --------------------------------------------
      LOOP:  cpu time   25.2311: real time   26.1160

 eigenvalue-minimisations  :     0
 total energy-change (2. order) :-0.1122556E+01  (-0.7618557E+00)
 number of electron     269.9999992 magnetization      36.0880503
 augmentation part       86.4350694 magnetization      24.5061542

 Free energy of the ion-electron system (eV)
  ---------------------------------------------------
  alpha Z        PSCENC =       798.38614055
  Ewald energy   TEWEN  =    -12901.57693327
  -Hartree energ DENC   =     -2469.31916117
  -exchange      EXHF   =         0.00000000
  -V(xc)+E(xc)   XCENC  =     -1000.73116576
  PAW double counting   =     20243.40581827   -18989.59263808
  entropy T*S    EENTRO =        -0.02188812
  eigenvalues    EBANDS =      1267.02787705
  atomic energy  EATOM  =     12697.67401269
  ---------------------------------------------------
  free energy    TOTEN  =      -354.74829164 eV

  energy without entropy =     -354.72640352  energy(sigma->0) =     -354.74099560


--------------------------------------------------------------------------------------------------------




--------------------------------------- Iteration      1(  16)  ---------------------------------------


    POTLOK:  cpu time    0.3906: real time    0.3906
    SETDIJ:  cpu time    0.4651: real time    0.4650
    TRIAL :  cpu time   17.7885: real time   18.3412
    CORREC:  cpu time    5.4281: real time    5.7756
    CHARGE:  cpu time    1.6498: real time    1.6499
    --------------------------------------------
      LOOP:  cpu time   25.7441: real time   26.6464

 eigenvalue-minimisations  :     0
 total energy-change (2. order) :-0.7573831E+00  (-0.3043355E+00)
 number of electron     269.9999992 magnetization      36.0163228
 augmentation part       87.0468150 magnetization      24.5682040

 Free energy of the ion-electron system (eV)
  ---------------------------------------------------
  alpha Z        PSCENC =       798.38614055
  Ewald energy   TEWEN  =    -12901.57693327
  -Hartree energ DENC   =     -2480.56552582
  -exchange      EXHF   =         0.00000000
  -V(xc)+E(xc)   XCENC  =     -1000.14644807
  PAW double counting   =     19801.52744129   -18548.87054930
  entropy T*S    EENTRO =        -0.02511037
  eigenvalues    EBANDS =      1278.08807537
  atomic energy  EATOM  =     12697.67401269
  ---------------------------------------------------
  free energy    TOTEN  =      -355.50567469 eV

  energy without entropy =     -355.48056432  energy(sigma->0) =     -355.49730457


--------------------------------------------------------------------------------------------------------




--------------------------------------- Iteration      1(  17)  ---------------------------------------


    POTLOK:  cpu time    0.3900: real time    0.3901
    SETDIJ:  cpu time    0.4778: real time    0.4780
    TRIAL :  cpu time   17.1564: real time   17.9908
    CORREC:  cpu time    5.4604: real time    5.4696
    CHARGE:  cpu time    1.6387: real time    1.6469
    --------------------------------------------
      LOOP:  cpu time   25.1298: real time   25.9834

 eigenvalue-minimisations  :     0
 total energy-change (2. order) :-0.3049244E+00  (-0.1512648E+00)
 number of electron     269.9999992 magnetization      35.9850140
 augmentation part       87.2503946 magnetization      24.6552581

 Free energy of the ion-electron system (eV)
  ---------------------------------------------------
  alpha Z        PSCENC =       798.38614055
  Ewald energy   TEWEN  =    -12901.57693327
  -Hartree energ DENC   =     -2507.07314461
  -exchange      EXHF   =         0.00000000
  -V(xc)+E(xc)   XCENC  =      -999.01517272
  PAW double counting   =     19661.95420072   -18414.90568750
  entropy T*S    EENTRO =        -0.02454094
  eigenvalues    EBANDS =      1308.77109546
  atomic energy  EATOM  =     12697.67401269
  ---------------------------------------------------
  free energy    TOTEN  =      -355.81059905 eV

  energy without entropy =     -355.78605811  energy(sigma->0) =     -355.80241874


--------------------------------------------------------------------------------------------------------




--------------------------------------- Iteration      1(  18)  ---------------------------------------


    POTLOK:  cpu time    0.3909: real time    0.3909
    SETDIJ:  cpu time    0.4624: real time    0.4624
    TRIAL :  cpu time   17.7007: real time   17.8530
    CORREC:  cpu time    5.4437: real time    5.4707
    CHARGE:  cpu time    1.6262: real time    1.6284
    --------------------------------------------
      LOOP:  cpu time   25.6318: real time   25.8163

 eigenvalue-minimisations  :     0
 total energy-change (2. order) :-0.1509379E+00  (-0.1827298E+00)
 number of electron     269.9999992 magnetization      35.9227764
 augmentation part       87.1360826 magnetization      24.7921883

 Free energy of the ion-electron system (eV)
  ---------------------------------------------------
  alpha Z        PSCENC =       798.38614055
  Ewald energy   TEWEN  =    -12901.57693327
  -Hartree energ DENC   =     -2515.24766778
  -exchange      EXHF   =         0.00000000
  -V(xc)+E(xc)   XCENC  =      -998.52638936
  PAW double counting   =     19604.45633047   -18359.26695560
  entropy T*S    EENTRO =        -0.02727586
  eigenvalues    EBANDS =      1318.16446628
  atomic energy  EATOM  =     12697.67401269
  ---------------------------------------------------
  free energy    TOTEN  =      -355.96153696 eV

  energy without entropy =     -355.93426111  energy(sigma->0) =     -355.95244501


--------------------------------------------------------------------------------------------------------




--------------------------------------- Iteration      1(  19)  ---------------------------------------


    POTLOK:  cpu time    1.1409: real time    1.1645
    SETDIJ:  cpu time    0.4428: real time    0.4429
    TRIAL :  cpu time   17.3742: real time   18.1191
    CORREC:  cpu time    5.5067: real time    5.5082
    CHARGE:  cpu time    1.5800: real time    1.6602
    --------------------------------------------
      LOOP:  cpu time   26.0564: real time   26.9079

 eigenvalue-minimisations  :     0
 total energy-change (2. order) :-0.1825037E+00  (-0.6855801E-01)
 number of electron     269.9999992 magnetization      35.9214050
 augmentation part       87.0152919 magnetization      24.8446687

 Free energy of the ion-electron system (eV)
  ---------------------------------------------------
  alpha Z        PSCENC =       798.38614055
  Ewald energy   TEWEN  =    -12901.57693327
  -Hartree energ DENC   =     -2506.77572332
  -exchange      EXHF   =         0.00000000
  -V(xc)+E(xc)   XCENC  =      -998.49820996
  PAW double counting   =     19534.40526119   -18287.75294290
  entropy T*S    EENTRO =        -0.02599596
  eigenvalues    EBANDS =      1308.02163026
  atomic energy  EATOM  =     12697.67401269
  ---------------------------------------------------
  free energy    TOTEN  =      -356.14404061 eV

  energy without entropy =     -356.11804465  energy(sigma->0) =     -356.13537529


--------------------------------------------------------------------------------------------------------




--------------------------------------- Iteration      1(  20)  ---------------------------------------


    POTLOK:  cpu time    0.3913: real time    0.3913
    SETDIJ:  cpu time    0.4680: real time    0.4679
    TRIAL :  cpu time   17.2328: real time   17.3711
    CORREC:  cpu time    6.1399: real time    6.1594
    CHARGE:  cpu time    1.5881: real time    1.5883
    --------------------------------------------
      LOOP:  cpu time   25.8215: real time   25.9803

 eigenvalue-minimisations  :     0
 total energy-change (2. order) :-0.6810203E-01  (-0.3983510E-01)
 number of electron     269.9999992 magnetization      35.9576528
 augmentation part       86.9250349 magnetization      24.9134729

 Free energy of the ion-electron system (eV)
  ---------------------------------------------------
  alpha Z        PSCENC =       798.38614055
  Ewald energy   TEWEN  =    -12901.57693327
  -Hartree energ DENC   =     -2500.11443830
  -exchange      EXHF   =         0.00000000
  -V(xc)+E(xc)   XCENC  =      -998.59210934
  PAW double counting   =     19511.54938386   -18263.56268104
  entropy T*S    EENTRO =        -0.02527893
  eigenvalues    EBANDS =      1300.05047817
  atomic energy  EATOM  =     12697.67401269
  ---------------------------------------------------
  free energy    TOTEN  =      -356.21214264 eV

  energy without entropy =     -356.18686372  energy(sigma->0) =     -356.20371633


--------------------------------------------------------------------------------------------------------




--------------------------------------- Iteration      1(  21)  ---------------------------------------


    POTLOK:  cpu time    0.3912: real time    0.3911
    SETDIJ:  cpu time    0.4737: real time    0.4737
    TRIAL :  cpu time   17.9606: real time   18.0187
    CORREC:  cpu time    5.4490: real time    6.2134
    CHARGE:  cpu time    1.6351: real time    1.6352
    --------------------------------------------
      LOOP:  cpu time   25.9265: real time   26.7498

 eigenvalue-minimisations  :     0
 total energy-change (2. order) :-0.3978922E-01  (-0.5178397E-01)
 number of electron     269.9999992 magnetization      35.9240605
 augmentation part       86.8901438 magnetization      24.9879504

 Free energy of the ion-electron system (eV)
  ---------------------------------------------------
  alpha Z        PSCENC =       798.38614055
  Ewald energy   TEWEN  =    -12901.57693327
  -Hartree energ DENC   =     -2496.36275450
  -exchange      EXHF   =         0.00000000
  -V(xc)+E(xc)   XCENC  =      -998.60099465
  PAW double counting   =     19503.12192692   -18254.39496497
  entropy T*S    EENTRO =        -0.02559246
  eigenvalues    EBANDS =      1295.52691428
  atomic energy  EATOM  =     12697.67401269
  ---------------------------------------------------
  free energy    TOTEN  =      -356.25193187 eV

  energy without entropy =     -356.22633941  energy(sigma->0) =     -356.24340105


--------------------------------------------------------------------------------------------------------




--------------------------------------- Iteration      1(  22)  ---------------------------------------


    POTLOK:  cpu time    0.3894: real time    0.3910
    SETDIJ:  cpu time    0.5045: real time    0.5044
    TRIAL :  cpu time   17.2212: real time   17.2830
    CORREC:  cpu time    5.4377: real time    5.5775
    CHARGE:  cpu time    1.6333: real time    1.6333
    --------------------------------------------
      LOOP:  cpu time   25.1914: real time   25.3946

 eigenvalue-minimisations  :     0
 total energy-change (2. order) :-0.5179265E-01  (-0.2824691E-01)
 number of electron     269.9999992 magnetization      35.9249207
 augmentation part       86.9755563 magnetization      25.0306738

 Free energy of the ion-electron system (eV)
  ---------------------------------------------------
  alpha Z        PSCENC =       798.38614055
  Ewald energy   TEWEN  =    -12901.57693327
  -Hartree energ DENC   =     -2496.67964073
  -exchange      EXHF   =         0.00000000
  -V(xc)+E(xc)   XCENC  =      -998.41481460
  PAW double counting   =     19505.97317852   -18257.37852743
  entropy T*S    EENTRO =        -0.02527526
  eigenvalues    EBANDS =      1295.73845221
  atomic energy  EATOM  =     12697.67401269
  ---------------------------------------------------
  free energy    TOTEN  =      -356.30372452 eV

  energy without entropy =     -356.27844926  energy(sigma->0) =     -356.29529943


--------------------------------------------------------------------------------------------------------




--------------------------------------- Iteration      1(  23)  ---------------------------------------


    POTLOK:  cpu time    0.3903: real time    0.3904
    SETDIJ:  cpu time    0.4761: real time    0.4760
    TRIAL :  cpu time   17.2800: real time   18.1231
    CORREC:  cpu time    5.5020: real time    5.5123
    CHARGE:  cpu time    1.6186: real time    1.6189
    --------------------------------------------
      LOOP:  cpu time   25.2703: real time   26.1243

 eigenvalue-minimisations  :     0
 total energy-change (2. order) :-0.2824754E-01  (-0.1080121E-01)
 number of electron     269.9999992 magnetization      35.9228398
 augmentation part       86.9959999 magnetization      25.0395083

 Free energy of the ion-electron system (eV)
  ---------------------------------------------------
  alpha Z        PSCENC =       798.38614055
  Ewald energy   TEWEN  =    -12901.57693327
  -Hartree energ DENC   =     -2502.65539594
  -exchange      EXHF   =         0.00000000
  -V(xc)+E(xc)   XCENC  =      -998.09068073
  PAW double counting   =     19516.48740243   -18269.20853200
  entropy T*S    EENTRO =        -0.02534275
  eigenvalues    EBANDS =      1302.67728948
  atomic energy  EATOM  =     12697.67401269
  ---------------------------------------------------
  free energy    TOTEN  =      -356.33197206 eV

  energy without entropy =     -356.30662930  energy(sigma->0) =     -356.32352447


--------------------------------------------------------------------------------------------------------




--------------------------------------- Iteration      1(  24)  ---------------------------------------


    POTLOK:  cpu time    0.3901: real time    0.3900
    SETDIJ:  cpu time    0.4757: real time    0.4757
    TRIAL :  cpu time   17.1362: real time   17.9903
    CORREC:  cpu time    5.4530: real time    5.4763
    CHARGE:  cpu time    1.6297: real time    1.6297
    --------------------------------------------
      LOOP:  cpu time   25.0935: real time   25.9722

 eigenvalue-minimisations  :     0
 total energy-change (2. order) :-0.1080154E-01  (-0.9022769E-02)
[...]
   45        0.020   0.017   2.334   2.371
   46       -0.024  -0.022  -2.428  -2.474
   47        0.016   0.024   2.358   2.399
   48        0.016   0.024   2.350   2.391
   49       -0.015  -0.012  -2.298  -2.324
   50        0.018   0.021   2.381   2.420
   51        0.018   0.021   2.384   2.423
   52        0.027   0.026   2.344   2.397
   53        0.020   0.016   2.334   2.370
   54        0.020   0.016   2.336   2.372
--------------------------------------------------
tot         -0.023  -0.209  34.911  34.680
 
    FORLOC:  cpu time    0.0579: real time    0.0579
    FORNL :  cpu time   25.9307: real time   26.7148
    STRESS:  cpu time   36.1550: real time   36.3906
    FORCOR:  cpu time    0.4395: real time    0.4394
    OFIELD:  cpu time    0.0022: real time    0.0022

  FORCE on cell =-STRESS in cart. coord.  units (eV):
  Direction    XX          YY          ZZ          XY          YZ          ZX
  --------------------------------------------------------------------------------------
  Alpha Z   798.38614   798.38614   798.38614
  Ewald   -4053.61603 -4053.61603 -4794.40593    -0.00000    -0.00000    -0.00000
  Hartree  1083.83444  1081.92855   336.02699     0.00000    -0.00000    -0.00000
  E(xc)   -1141.41951 -1141.05853 -1140.35547    -0.00000     0.00000     0.00000
  Local     370.23778   374.66648  1898.19215    -0.00000    -0.00000     0.00000
  n-local  -170.88404  -169.69232  -177.95401    -0.36081    -0.22410    -0.25382
  augment   784.03907   782.43504   769.97839     0.00000     0.00001     0.00001
  Kinetic  2335.03067  2332.03480  2313.85273    -0.70517    -1.29563    -1.13407
  Fock        0.00000     0.00000     0.00000     0.00000     0.00000     0.00000
  -------------------------------------------------------------------------------------
  Total       5.60852     5.08414     3.72099     0.00000     0.00000     0.00000
  in kB      12.65769    11.47424     8.39779     0.00000     0.00000     0.00000
  external pressure =       10.84 kB  Pullay stress =        0.00 kB


 VOLUME and BASIS-vectors are now :
 -----------------------------------------------------------------------------
  energy-cutoff  :      404.80
  volume of cell :      709.91
      direct lattice vectors                 reciprocal lattice vectors
     8.250148166  0.000000000  0.000000000     0.121209944  0.000000000  0.000000000
     0.000000000  8.250148166  0.000000000     0.000000000  0.121209944  0.000000000
     0.000000000  0.000000000 10.429911392     0.000000000  0.000000000  0.095878092

  length of vectors
     8.250148166  8.250148166 10.429911392     0.121209944  0.121209944  0.095878092


 FORCES acting on ions:
    Electron-Ion                     Ewald-Force                    Non-Local-Force
 -----------------------------------------------------------------------------------------------
   0.118E+00 0.492E-01 -.371E-01   -.239E-08 -.239E-08 -.210E-08   -.253E-02 -.182E-01 -.228E-02
   0.118E+00 0.492E-01 0.371E-01   -.239E-08 -.239E-08 0.171E-08   -.253E-02 -.182E-01 0.228E-02
   -.199E-01 -.171E-01 -.491E-06   -.239E-08 -.239E-08 0.861E-08   0.205E-01 0.137E-02 0.000E+00
   -.523E-01 0.417E-01 0.126E+00   -.239E-08 -.802E-09 -.210E-08   0.720E-01 -.757E-01 -.357E-01
   -.523E-01 0.417E-01 -.126E+00   -.239E-08 -.802E-09 0.171E-08   0.720E-01 -.757E-01 0.357E-01
   -.505E-02 0.247E-01 -.488E-06   -.239E-08 -.802E-09 0.861E-08   -.322E-02 -.539E-02 0.000E+00
   0.181E+00 -.932E-01 0.783E-01   -.239E-08 0.631E-08 -.210E-08   -.816E-01 0.975E-01 -.549E-01
   0.181E+00 -.932E-01 -.783E-01   -.239E-08 0.631E-08 0.171E-08   -.816E-01 0.975E-01 0.549E-01
   0.367E-01 -.110E-01 -.489E-06   -.239E-08 0.631E-08 0.861E-08   0.417E-02 0.782E-02 0.000E+00
   -.118E+00 0.492E-01 -.371E-01   -.802E-09 -.239E-08 -.210E-08   0.253E-02 -.182E-01 -.228E-02
   -.118E+00 0.492E-01 0.371E-01   -.802E-09 -.239E-08 0.171E-08   0.253E-02 -.182E-01 0.228E-02
   0.199E-01 -.171E-01 -.491E-06   -.803E-09 -.239E-08 0.861E-08   -.205E-01 0.137E-02 0.000E+00
   0.523E-01 0.417E-01 0.126E+00   -.802E-09 -.802E-09 -.210E-08   -.720E-01 -.757E-01 -.357E-01
   0.523E-01 0.417E-01 -.126E+00   -.802E-09 -.802E-09 0.171E-08   -.720E-01 -.757E-01 0.357E-01
   0.505E-02 0.247E-01 -.488E-06   -.803E-09 -.802E-09 0.861E-08   0.322E-02 -.539E-02 0.000E+00
   -.181E+00 -.932E-01 0.783E-01   -.802E-09 0.631E-08 -.210E-08   0.816E-01 0.975E-01 -.549E-01
   -.181E+00 -.932E-01 -.783E-01   -.802E-09 0.631E-08 0.171E-08   0.816E-01 0.975E-01 0.549E-01
   -.367E-01 -.110E-01 -.489E-06   -.803E-09 0.631E-08 0.861E-08   -.417E-02 0.782E-02 0.000E+00
   -.328E-08 0.111E+00 0.692E-01   0.631E-08 -.239E-08 -.210E-08   -.217E-18 -.187E+00 -.990E-01
   -.328E-08 0.111E+00 -.692E-01   0.631E-08 -.239E-08 0.171E-08   -.217E-18 -.187E+00 0.990E-01
   -.329E-08 0.336E-01 -.491E-06   0.631E-08 -.239E-08 0.861E-08   0.000E+00 0.207E-01 0.000E+00
   -.330E-08 -.651E-02 0.881E-01   0.631E-08 -.802E-09 -.210E-08   0.000E+00 -.465E-02 -.519E-01
   -.330E-08 -.651E-02 -.881E-01   0.631E-08 -.802E-09 0.171E-08   0.000E+00 -.465E-02 0.519E-01
   -.328E-08 -.295E-01 -.488E-06   0.631E-08 -.802E-09 0.861E-08   0.000E+00 0.235E-02 0.000E+00
   -.328E-08 -.971E-01 0.822E-01   0.631E-08 0.631E-08 -.210E-08   0.000E+00 0.179E+00 -.683E-01
   -.328E-08 -.971E-01 -.822E-01   0.631E-08 0.631E-08 0.171E-08   0.271E-19 0.179E+00 0.683E-01
   -.329E-08 0.118E-01 -.490E-06   0.631E-08 0.631E-08 0.861E-08   0.000E+00 -.391E-01 0.000E+00
   0.469E-08 -.134E+00 0.255E-05   -.169E-07 -.169E-07 -.180E-07   0.000E+00 -.150E-01 0.000E+00
   0.480E-08 -.449E-01 -.751E-01   -.169E-07 -.169E-07 -.170E-08   0.000E+00 -.145E-02 -.116E-01
   0.480E-08 -.449E-01 0.751E-01   -.169E-07 -.169E-07 0.115E-07   0.000E+00 -.145E-02 0.116E-01
   0.489E-08 0.465E+00 0.251E-05   -.169E-07 0.802E-09 -.180E-07   0.000E+00 -.409E+00 0.000E+00
   0.483E-08 0.112E+00 0.673E-02   -.169E-07 0.802E-09 -.170E-08   -.217E-18 -.535E-01 -.155E-01
   0.483E-08 0.112E+00 -.673E-02   -.169E-07 0.802E-09 0.115E-07   0.000E+00 -.535E-01 0.155E-01
   0.474E-08 -.440E+00 0.254E-05   -.169E-07 0.130E-07 -.180E-07   0.000E+00 0.247E+00 0.000E+00
   0.486E-08 -.589E-01 0.854E-01   -.169E-07 0.130E-07 -.170E-08   0.000E+00 0.297E-01 -.497E-01
   0.486E-08 -.589E-01 -.854E-01   -.169E-07 0.130E-07 0.115E-07   0.000E+00 0.297E-01 0.497E-01
   0.305E+00 0.381E+00 0.256E-05   0.802E-09 -.169E-07 -.180E-07   -.149E+00 -.167E+00 0.000E+00
   0.719E-01 0.286E-01 -.666E-02   0.802E-09 -.169E-07 -.170E-08   -.436E-01 -.153E-01 0.374E-01
   0.719E-01 0.286E-01 0.666E-02   0.802E-09 -.169E-07 0.115E-07   -.436E-01 -.153E-01 -.374E-01
   -.110E+00 -.353E+00 0.252E-05   0.802E-09 0.802E-09 -.180E-07   0.128E+00 0.225E+00 0.000E+00
   -.380E-02 -.537E-01 0.362E-01   0.802E-09 0.802E-09 -.170E-08   -.154E-02 0.343E-01 -.982E-01
   -.380E-02 -.537E-01 -.362E-01   0.802E-09 0.802E-09 0.115E-07   -.154E-02 0.343E-01 0.982E-01
   0.403E+00 0.422E-01 0.269E-05   0.802E-09 0.130E-07 -.180E-07   -.136E+00 0.199E-01 0.000E+00
   -.850E-02 0.192E-01 -.189E+00   0.802E-09 0.130E-07 -.170E-08   -.121E-01 -.679E-02 0.174E+00
   -.850E-02 0.192E-01 0.189E+00   0.802E-09 0.130E-07 0.115E-07   -.121E-01 -.679E-02 -.174E+00
   -.305E+00 0.381E+00 0.256E-05   0.130E-07 -.169E-07 -.180E-07   0.149E+00 -.167E+00 0.000E+00
   -.719E-01 0.286E-01 -.666E-02   0.130E-07 -.169E-07 -.170E-08   0.436E-01 -.153E-01 0.374E-01
   -.719E-01 0.286E-01 0.666E-02   0.130E-07 -.169E-07 0.115E-07   0.436E-01 -.153E-01 -.374E-01
   0.110E+00 -.353E+00 0.252E-05   0.130E-07 0.802E-09 -.180E-07   -.128E+00 0.225E+00 0.000E+00
   0.380E-02 -.537E-01 0.362E-01   0.130E-07 0.802E-09 -.170E-08   0.154E-02 0.343E-01 -.982E-01
   0.380E-02 -.537E-01 -.362E-01   0.130E-07 0.802E-09 0.115E-07   0.154E-02 0.343E-01 0.982E-01
   -.403E+00 0.422E-01 0.269E-05   0.130E-07 0.130E-07 -.180E-07   0.136E+00 0.199E-01 0.000E+00
   0.850E-02 0.192E-01 -.189E+00   0.130E-07 0.130E-07 -.170E-08   0.121E-01 -.679E-02 0.174E+00
   0.850E-02 0.192E-01 0.189E+00   0.130E-07 0.130E-07 0.115E-07   0.121E-01 -.679E-02 -.174E+00
 -----------------------------------------------------------------------------------------------
   -.407E-07 0.437E-01 0.218E-04   -.614E-13 -.142E-13 0.128E-13   -.729E-16 -.438E-01 0.000E+00
 
 
 POSITION                                       TOTAL-FORCE (eV/Angst)
 -----------------------------------------------------------------------------------
      0.00000      0.00000      0.00000         0.115968      0.032574     -0.036961
      0.00000      0.00000      3.47664         0.115968      0.032574      0.036961
      0.00000      0.00000      6.95327        -0.001229     -0.016326     -0.000000
      0.00000      2.75005      0.00000         0.013518     -0.028027      0.095896
      0.00000      2.75005      3.47664         0.013518     -0.028027     -0.095896
      0.00000      2.75005      6.95327        -0.008678      0.020248     -0.000000
      0.00000      5.50010      0.00000         0.106827     -0.003724      0.029604
      0.00000      5.50010      3.47664         0.106827     -0.003724     -0.029604
      0.00000      5.50010      6.95327         0.041294     -0.003866     -0.000000
      2.75005      0.00000      0.00000        -0.115968      0.032574     -0.036961
      2.75005      0.00000      3.47664        -0.115968      0.032574      0.036961
      2.75005      0.00000      6.95327         0.001229     -0.016326     -0.000000
      2.75005      2.75005      0.00000        -0.013518     -0.028027      0.095896
      2.75005      2.75005      3.47664        -0.013518     -0.028027     -0.095896
      2.75005      2.75005      6.95327         0.008678      0.020248     -0.000000
      2.75005      5.50010      0.00000        -0.106827     -0.003724      0.029604
      2.75005      5.50010      3.47664        -0.106827     -0.003724     -0.029604
      2.75005      5.50010      6.95327        -0.041294     -0.003866     -0.000000
      5.50010      0.00000      0.00000        -0.000000     -0.059742     -0.019652
      5.50010      0.00000      3.47664        -0.000000     -0.059742      0.019652
      5.50010      0.00000      6.95327        -0.000000      0.053758     -0.000000
      5.50010      2.75005      0.00000        -0.000000     -0.011043      0.041272
      5.50010      2.75005      3.47664        -0.000000     -0.011043     -0.041272
      5.50010      2.75005      6.95327        -0.000000     -0.027829     -0.000000
      5.50010      5.50010      0.00000        -0.000000      0.067116      0.021652
      5.50010      5.50010      3.47664        -0.000000      0.067116     -0.021652
      5.50010      5.50010      6.95327        -0.000000     -0.024620     -0.000000
      1.37502      1.37502      1.73832        -0.000000     -0.153728     -0.000000
      1.37502      1.37502      5.21496        -0.000000     -0.046904     -0.077317
      1.37502      1.37502      8.69159        -0.000000     -0.046904      0.077317
      1.37502      4.12507      1.73832        -0.000000      0.062179     -0.000000
      1.37502      4.12507      5.21496        -0.000000      0.058432     -0.003076
      1.37502      4.12507      8.69159        -0.000000      0.058432      0.003076
      1.37502      6.87512      1.73832        -0.000000     -0.200115     -0.000000
      1.37502      6.87512      5.21496        -0.000000     -0.029186      0.045406
      1.37502      6.87512      8.69159        -0.000000     -0.029186     -0.045406
      4.12507      1.37502      1.73832         0.162122      0.216607     -0.000000
      4.12507      1.37502      5.21496         0.028577      0.014486      0.035931
      4.12507      1.37502      8.69159         0.028577      0.014486     -0.035931
      4.12507      4.12507      1.73832         0.016951     -0.129957     -0.000000
      4.12507      4.12507      5.21496        -0.004953     -0.020568     -0.053484
      4.12507      4.12507      8.69159        -0.004953     -0.020568      0.053484
      4.12507      6.87512      1.73832         0.277235      0.065220     -0.000000
      4.12507      6.87512      5.21496        -0.019745      0.012548     -0.014044
      4.12507      6.87512      8.69159        -0.019745      0.012548      0.014044
      6.87512      1.37502      1.73832        -0.162122      0.216607     -0.000000
      6.87512      1.37502      5.21496        -0.028577      0.014486      0.035931
      6.87512      1.37502      8.69159        -0.028577      0.014486     -0.035931
      6.87512      4.12507      1.73832        -0.016951     -0.129957     -0.000000
      6.87512      4.12507      5.21496         0.004953     -0.020568     -0.053484
      6.87512      4.12507      8.69159         0.004953     -0.020568      0.053484
      6.87512      6.87512      1.73832        -0.277235      0.065220     -0.000000
      6.87512      6.87512      5.21496         0.019745      0.012548     -0.014044
      6.87512      6.87512      8.69159         0.019745      0.012548      0.014044
 -----------------------------------------------------------------------------------
    total drift:                               -0.000000     -0.000094      0.000022


--------------------------------------------------------------------------------------------------------



  FREE ENERGIE OF THE ION-ELECTRON SYSTEM (eV)
  ---------------------------------------------------
  free  energy   TOTEN  =      -356.37737518 eV

  energy  without entropy=     -356.36465040  energy(sigma->0) =     -356.37313359
 


--------------------------------------------------------------------------------------------------------


    POTLOK:  cpu time    1.6016: real time    1.6240


--------------------------------------------------------------------------------------------------------


     LOOP+:  cpu time 2795.0573: real time 2858.2601
    4ORBIT:  cpu time    0.0000: real time    0.0000
 


 total charge     
 
# of ion       s       p       d       tot
------------------------------------------
    1        0.405   0.428   0.000   0.833
    2        0.405   0.429   0.000   0.833
    3        0.404   0.428   0.000   0.833
    4        0.405   0.427   0.000   0.832
    5        0.405   0.427   0.000   0.832
    6        0.404   0.429   0.000   0.833
    7        0.405   0.428   0.000   0.833
    8        0.405   0.428   0.000   0.833
    9        0.404   0.429   0.000   0.833
   10        0.405   0.428   0.000   0.833
   11        0.405   0.429   0.000   0.833
   12        0.404   0.428   0.000   0.833
   13        0.405   0.427   0.000   0.832
   14        0.405   0.427   0.000   0.832
   15        0.404   0.429   0.000   0.834
   16        0.405   0.428   0.000   0.833
   17        0.405   0.427   0.000   0.832
   18        0.404   0.429   0.000   0.833
   19        0.405   0.428   0.000   0.832
   20        0.405   0.428   0.000   0.833
   21        0.404   0.429   0.000   0.833
   22        0.405   0.425   0.000   0.830
   23        0.405   0.425   0.000   0.830
   24        0.403   0.430   0.000   0.833
   25        0.405   0.428   0.000   0.833
   26        0.405   0.428   0.000   0.833
   27        0.405   0.429   0.000   0.834
   28        0.331   0.354   5.148   5.833
   29        0.333   0.345   5.150   5.827
   30        0.333   0.344   5.149   5.826
   31        0.333   0.355   5.130   5.818
   32        0.333   0.351   5.139   5.823
   33        0.333   0.351   5.135   5.819
   34        0.333   0.356   5.135   5.824
   35        0.332   0.353   5.130   5.816
   36        0.332   0.354   5.133   5.819
   37        0.337   0.355   5.119   5.810
   38        0.332   0.354   5.139   5.825
   39        0.332   0.352   5.131   5.816
   40        0.333   0.354   5.148   5.836
   41        0.333   0.351   5.132   5.816
   42        0.333   0.351   5.135   5.819
   43        0.337   0.358   5.122   5.816
   44        0.333   0.348   5.141   5.822
   45        0.333   0.348   5.147   5.829
   46        0.337   0.356   5.127   5.819
   47        0.332   0.353   5.131   5.817
   48        0.332   0.353   5.134   5.819
   49        0.334   0.354   5.119   5.806
   50        0.333   0.351   5.136   5.820
   51        0.333   0.352   5.140   5.825
   52        0.337   0.358   5.118   5.813
   53        0.333   0.348   5.146   5.828
   54        0.333   0.348   5.139   5.820
--------------------------------------------------
tot         19.926  21.062 138.653 179.640
 


 magnetization (x)
 
# of ion       s       p       d       tot
------------------------------------------
    1       -0.009  -0.017   0.000  -0.026
    2       -0.009  -0.017   0.000  -0.026
    3       -0.022  -0.039   0.000  -0.061
    4       -0.004  -0.007   0.000  -0.011
    5       -0.004  -0.007   0.000  -0.011
    6       -0.022  -0.039   0.000  -0.061
    7       -0.006  -0.008   0.000  -0.014
    8       -0.006  -0.008   0.000  -0.014
    9       -0.022  -0.036   0.000  -0.058
   10       -0.009  -0.016   0.000  -0.025
   11       -0.009  -0.016   0.000  -0.025
   12       -0.022  -0.039   0.000  -0.060
   13       -0.004  -0.007   0.000  -0.011
   14       -0.004  -0.008   0.000  -0.012
   15       -0.022  -0.039   0.000  -0.061
   16       -0.006  -0.009   0.000  -0.014
   17       -0.006  -0.008   0.000  -0.014
   18       -0.022  -0.036   0.000  -0.058
   19       -0.010  -0.017   0.000  -0.027
   20       -0.010  -0.018   0.000  -0.028
   21       -0.022  -0.038   0.000  -0.060
   22       -0.002  -0.004   0.000  -0.006
   23       -0.002  -0.004   0.000  -0.006
   24       -0.023  -0.033   0.000  -0.056
   25       -0.008  -0.016   0.000  -0.024
   26       -0.008  -0.016   0.000  -0.024
   27       -0.021  -0.041   0.000  -0.063
   28        0.032   0.032   1.713   1.777
   29        0.021   0.011   2.352   2.383
   30        0.021   0.011   2.350   2.382
   31       -0.015  -0.012  -2.337  -2.364
   32        0.018   0.021   2.365   2.403
   33        0.018   0.020   2.370   2.409
   34       -0.030  -0.034  -2.163  -2.227
   35        0.016   0.028   2.353   2.397
   36        0.015   0.028   2.351   2.395
   37       -0.025  -0.022  -2.421  -2.468
   38        0.016   0.024   2.357   2.397
   39        0.017   0.024   2.357   2.398
   40       -0.014  -0.012  -2.282  -2.308
   41        0.018   0.020   2.381   2.420
   42        0.018   0.020   2.384   2.423
   43        0.027   0.026   2.348   2.401
   44        0.020   0.016   2.337   2.373
   45        0.020   0.017   2.334   2.371
   46       -0.024  -0.022  -2.428  -2.474
   47        0.016   0.024   2.358   2.399
   48        0.016   0.024   2.350   2.391
   49       -0.015  -0.012  -2.298  -2.324
   50        0.018   0.021   2.381   2.420
   51        0.018   0.021   2.384   2.423
   52        0.027   0.026   2.344   2.397
   53        0.020   0.016   2.334   2.370
   54        0.020   0.016   2.336   2.372
--------------------------------------------------
tot         -0.023  -0.209  34.911  34.680
 

 total amount of memory used by VASP MPI-rank0   950766. kBytes
=======================================================================

   base      :      30000. kBytes
   nonl-proj :      28494. kBytes
   fftplans  :      31580. kBytes
   grid      :      21385. kBytes
   one-center:        435. kBytes
   wavefun   :     838872. kBytes
 
  
  
 General timing and accounting informations for this job:
 ========================================================
  
                  Total CPU time used (sec):     2830.276
                            User time (sec):     2796.170
                          System time (sec):       34.105
                         Elapsed time (sec):     2897.265
  
                   Maximum memory used (kb):     1123112.
                   Average memory used (kb):           0.
  
                          Minor page faults:      1216509
                          Major page faults:           16
                 Voluntary context switches:         3125
