   36   36    1    2
  0.1314651E+02  0.8250148E-09  0.8250148E-09  0.6953274E-09  0.2000000E-15
  1.000000000000000E-004
  CAR 
 AlMn_pv                                 
    180     52    118
 
  0.0000000E+00  0.0000000E+00  0.0000000E+00  0.6666667E-02
    1       -2.531393     -2.508306   1.000000   1.000000
    2       -0.369145     -0.372651   1.000000   1.000000
    3       -0.364750     -0.329121   1.000000   1.000000
    4       -0.347255     -0.307969   1.000000   1.000000
    5       -0.316716     -0.282520   1.000000   1.000000
    6       -0.111925     -0.128475   1.000000   1.000000
    7        1.334000      1.376446   1.000000   1.000000
    8        1.341123      1.391017   1.000000   1.000000
    9        1.353824      1.427063   1.000000   1.000000
   10        1.400435      1.433193   1.000000   1.000000
   11        1.414206      1.459789   1.000000   1.000000
   12        1.524786      1.574611   1.000000   1.000000
   13        1.539114      1.597838   1.000000   1.000000
   14        1.593012      1.640094   1.000000   1.000000
   15        1.607878      1.660181   1.000000   1.000000
   16        2.677231      2.765409   1.000000   1.000000
   17        2.703799      2.799966   1.000000   1.000000
   18        2.771669      2.884033   1.000000   1.000000
   19        2.799406      2.920677   1.000000   1.000000
   20        3.437933      3.470795   1.000000   1.000000
   21        3.466238      3.607035   1.000000   1.000000
   22        3.510311      3.632333   1.000000   1.000000
   23        3.584061      3.693962   1.000000   1.000000
   24        3.989189      4.128458   1.000000   1.000000
   25        4.117444      4.270329   1.000000   1.000000
   26        4.302342      4.523341   1.000000   1.000000
   27        4.422264      4.533400   1.000000   1.000000
   28        4.462166      4.591244   1.000000   1.000000
   29        4.495098      4.649447   1.000000   1.000000
   30        4.506096      4.709222   1.000000   1.000000
   31        4.578270      4.801512   1.000000   1.000000
   32        4.618887      4.855514   1.000000   1.000000
   33        4.627019      4.868300   1.000000   1.000000
   34        4.689781      4.882844   1.000000   1.000000
   35        4.697951      4.955798   1.000000   1.000000
   36        4.775951      5.066740   1.000000   1.000000
   37        4.813901      5.122924   1.000000   1.000000
   38        4.873716      5.185883   1.000000   1.000000
   39        4.905080      5.246937   1.000000   1.000000
   40        4.995877      5.327287   1.000000   1.000000
   41        5.220600      5.386180   1.000000   1.000000
   42        5.224003      5.435665   1.000000   1.000000
   43        5.294716      5.464549   1.000000   1.000000
   44        5.319883      5.487972   1.000000   1.000000
   45        5.355196      5.490074   1.000000   1.000000
   46        5.408952      5.565172   1.000000   1.000000
   47        5.411121      5.647616   1.000000   1.000000
   48        5.419129      5.664965   1.000000   1.000000
   49        5.428095      5.696030   1.000000   1.000000
   50        5.470676      5.708158   1.000000   1.000000
   51        5.524424      5.784645   1.000000   1.000000
   52        5.587606      5.835071   1.000000   1.000000
   53        5.587801      5.842280   1.000000   1.000000
   54        5.606839      5.969604   1.000000   1.000000
   55        5.637264      6.037260   1.000000   1.000000
   56        5.730981      6.172613   1.000000   1.000000
   57        5.781416      6.236751   1.000000   1.000000
   58        5.826916      6.391279   1.000000   1.000000
   59        5.869009      6.474700   1.000000   1.000000
   60        5.950808      6.523710   1.000000   1.000000
   61        5.982606      6.535299   1.000000   1.000000
   62        5.987751      6.564384   1.000000   1.000000
   63        6.170245      6.609362   1.000000   1.000000
   64        6.204684      6.615744   1.000000   1.000000
   65        6.265493      6.622854   1.000000   1.000000
   66        6.338727      6.684874   1.000000   1.000000
   67        6.392177      6.789441   1.000000   1.000000
   68        6.401805      6.813549   1.000000   1.000000
   69        6.414014      6.903983   1.000000   1.000000
   70        6.436988      6.907182   1.000000   1.000000
   71        6.490171      6.914982   1.000000   1.000000
   72        6.531343      7.102276   1.000000   1.000035
   73        6.557907      7.163581   1.000000   1.000196
   74        6.595812      7.174736   1.000000   1.000262
   75        6.628371      7.218105   1.000000   1.000761
   76        6.650964      7.304704   1.000000   1.004630
   77        6.734425      7.386796   1.000000   1.016495
   78        6.753148      7.395591   1.000000   1.018359
   79        6.757243      7.448155   1.000000   1.030163
   80        6.785773      7.486267   1.000000   1.035357
   81        6.813025      7.515694   1.000000   1.032814
   82        6.862496      7.547800   1.000000   1.018167
   83        6.881143      7.651438   1.000000   0.826190
   84        6.898916      7.697491   1.000000   0.661482
   85        6.904693      7.749674   1.000000   0.444091
   86        6.933981      7.896958   1.000000   0.009310
   87        7.011447      7.952535   1.000002  -0.031595
   88        7.076890      8.071919   1.000016  -0.019542
   89        7.096846      8.217325   1.000030  -0.001756
   90        7.249333      8.256666   1.001537  -0.000728
   91        7.320753      8.286135   1.006155  -0.000356
   92        7.339235      8.329103   1.008361  -0.000114
   93        7.377477      8.389990   1.014624  -0.000019
   94        7.459826      8.478682   1.032373  -0.000001
   95        7.484550      8.606570   1.035282  -0.000000
   96        7.607126      8.620370   0.939898  -0.000000
   97        7.733585      8.651526   0.512204  -0.000000
   98        7.953149      8.682683  -0.031756  -0.000000
   99        8.039064      8.695485  -0.027065  -0.000000
  100        8.075196      8.735511  -0.018821  -0.000000
  101        8.093623      8.740474  -0.014988  -0.000000
  102        8.136993      8.822640  -0.007928  -0.000000
  103        8.204167      8.849293  -0.002312  -0.000000
  104        8.218386      8.871508  -0.001717  -0.000000
  105        8.264341      8.906292  -0.000608  -0.000000
  106        8.289100      8.946817  -0.000330  -0.000000
  107        8.411025      8.963186  -0.000010  -0.000000
  108        8.484101      8.973817  -0.000001  -0.000000
  109        8.622036      9.024598  -0.000000  -0.000000
  110        8.695931      9.029878  -0.000000  -0.000000
  111        8.706260      9.030012  -0.000000  -0.000000
  112        8.781754      9.064277  -0.000000  -0.000000
  113        8.833766      9.073736  -0.000000  -0.000000
  114        8.911170      9.127012  -0.000000  -0.000000
  115        9.110060      9.167451  -0.000000  -0.000000
  116        9.175230      9.229932  -0.000000  -0.000000
  117        9.208030      9.432702  -0.000000  -0.000000
  118        9.257052      9.474495  -0.000000  -0.000000
 
  0.2000000E+00  0.0000000E+00  0.0000000E+00  0.1333333E-01
    1       -2.440842     -2.417789   1.000000   1.000000
    2       -1.115087     -1.091406   1.000000   1.000000
    3       -0.284070     -0.270687   1.000000   1.000000
    4       -0.249691     -0.208450   1.000000   1.000000
    5       -0.046731     -0.061945   1.000000   1.000000
    6        0.551914      0.582012   1.000000   1.000000
    7        0.880181      0.891081   1.000000   1.000000
    8        0.907593      0.936644   1.000000   1.000000
    9        0.923178      0.972102   1.000000   1.000000
   10        1.396524      1.442802   1.000000   1.000000
   11        1.437569      1.516776   1.000000   1.000000
   12        1.472180      1.529772   1.000000   1.000000
   13        1.891507      1.956293   1.000000   1.000000
   14        2.255881      2.334537   1.000000   1.000000
   15        2.274419      2.356162   1.000000   1.000000
   16        2.303505      2.379127   1.000000   1.000000
   17        2.316218      2.392089   1.000000   1.000000
   18        2.779472      2.870200   1.000000   1.000000
   19        3.156328      3.277137   1.000000   1.000000
   20        3.226511      3.384229   1.000000   1.000000
   21        3.514161      3.604973   1.000000   1.000000
   22        3.616580      3.736767   1.000000   1.000000
   23        3.706648      3.777454   1.000000   1.000000
   24        3.973907      4.111606   1.000000   1.000000
   25        4.084974      4.235029   1.000000   1.000000
   26        4.223440      4.369601   1.000000   1.000000
   27        4.267455      4.453919   1.000000   1.000000
   28        4.403519      4.566595   1.000000   1.000000
   29        4.427318      4.612826   1.000000   1.000000
   30        4.493243      4.685665   1.000000   1.000000
   31        4.497542      4.696364   1.000000   1.000000
   32        4.522021      4.769233   1.000000   1.000000
   33        4.544273      4.801920   1.000000   1.000000
   34        4.593539      4.874949   1.000000   1.000000
   35        4.740014      5.057846   1.000000   1.000000
   36        4.866195      5.059162   1.000000   1.000000
   37        4.886200      5.122612   1.000000   1.000000
   38        4.940659      5.173334   1.000000   1.000000
   39        4.964628      5.214190   1.000000   1.000000
   40        5.041426      5.231577   1.000000   1.000000
   41        5.052016      5.278939   1.000000   1.000000
   42        5.173340      5.370975   1.000000   1.000000
   43        5.236321      5.444862   1.000000   1.000000
   44        5.263607      5.475819   1.000000   1.000000
   45        5.317583      5.525705   1.000000   1.000000
   46        5.371785      5.532887   1.000000   1.000000
   47        5.404800      5.570104   1.000000   1.000000
   48        5.437703      5.671341   1.000000   1.000000
   49        5.451086      5.680419   1.000000   1.000000
   50        5.494852      5.728846   1.000000   1.000000
   51        5.551529      5.766168   1.000000   1.000000
   52        5.621776      5.861997   1.000000   1.000000
   53        5.624713      5.922406   1.000000   1.000000
   54        5.711538      6.011936   1.000000   1.000000
   55        5.716255      6.174063   1.000000   1.000000
   56        5.760015      6.245564   1.000000   1.000000
   57        5.800680      6.316619   1.000000   1.000000
   58        5.825614      6.381368   1.000000   1.000000
   59        5.892027      6.398230   1.000000   1.000000
   60        5.941276      6.411824   1.000000   1.000000
   61        5.992246      6.486408   1.000000   1.000000
   62        6.047431      6.536873   1.000000   1.000000
   63        6.093839      6.586910   1.000000   1.000000
   64        6.238158      6.646607   1.000000   1.000000
   65        6.249812      6.648166   1.000000   1.000000
   66        6.321217      6.690328   1.000000   1.000000
   67        6.334480      6.761185   1.000000   1.000000
   68        6.359006      6.801406   1.000000   1.000000
   69        6.387839      6.905706   1.000000   1.000000
   70        6.406087      6.909789   1.000000   1.000000
   71        6.434298      6.932407   1.000000   1.000000
   72        6.498398      7.030149   1.000000   1.000004
   73        6.541448      7.099175   1.000000   1.000032
   74        6.592869      7.205158   1.000000   1.000560
   75        6.622351      7.269836   1.000000   1.002364
   76        6.622656      7.283157   1.000000   1.003081
   77        6.693928      7.364507   1.000000   1.012244
   78        6.712802      7.368155   1.000000   1.012886
   79        6.757634      7.460239   1.000000   1.032444
   80        6.768996      7.514403   1.000000   1.033102
   81        6.773247      7.561503   1.000000   1.006774
   82        6.783950      7.608250   1.000000   0.937570
   83        6.870688      7.652603   1.000000   0.822542
   84        6.908111      7.702634   1.000000   0.640700
   85        6.926473      7.774758   1.000000   0.341064
   86        6.947470      7.872117   1.000000   0.047914
   87        6.956746      7.950386   1.000000  -0.030937
   88        7.012355      7.985124   1.000002  -0.035406
   89        7.013302      8.199616   1.000002  -0.002535
   90        7.133240      8.218300   1.000085  -0.001720
   91        7.317808      8.302994   1.005849  -0.000231
   92        7.343323      8.308278   1.008916  -0.000201
   93        7.423508      8.390092   1.024696  -0.000019
   94        7.499731      8.396612   1.035180  -0.000016
   95        7.615160      8.484414   0.922954  -0.000001
   96        7.652924      8.584914   0.821602  -0.000000
   97        7.835041      8.659197   0.133829  -0.000000
   98        7.930869      8.663424  -0.021980  -0.000000
   99        7.995467      8.689746  -0.034766  -0.000000
  100        8.056867      8.698829  -0.022972  -0.000000
  101        8.129139      8.820469  -0.008986  -0.000000
  102        8.191226      8.845175  -0.002994  -0.000000
  103        8.206467      8.859066  -0.002206  -0.000000
  104        8.247022      8.861792  -0.000912  -0.000000
  105        8.261750      8.978584  -0.000647  -0.000000
  106        8.301325      9.003257  -0.000241  -0.000000
  107        8.428899      9.030864  -0.000006  -0.000000
  108        8.524327      9.050509  -0.000000  -0.000000
  109        8.560494      9.082500  -0.000000  -0.000000
  110        8.739107      9.089195  -0.000000  -0.000000
  111        8.809997      9.093254  -0.000000  -0.000000
  112        8.861115      9.144015  -0.000000  -0.000000
  113        8.924225      9.155333  -0.000000  -0.000000
  114        9.009535      9.192991  -0.000000  -0.000000
  115        9.123021      9.259367  -0.000000  -0.000000
  116        9.163074      9.370961  -0.000000  -0.000000
  117        9.198867      9.411607  -0.000000  -0.000000
  118        9.238111      9.516635  -0.000000  -0.000000
 
  0.4000000E+00  0.0000000E+00  0.0000000E+00  0.1333333E-01
    1       -2.170915     -2.147942   1.000000   1.000000
    2       -1.725794     -1.702560   1.000000   1.000000
    3       -0.038175     -0.022978   1.000000   1.000000
    4       -0.006769      0.035236   1.000000   1.000000
    5        0.146491      0.135382   1.000000   1.000000
    6        0.365013      0.385012   1.000000   1.000000
    7        0.391351      0.435402   1.000000   1.000000
    8        0.460590      0.458292   1.000000   1.000000
    9        1.560447      1.603037   1.000000   1.000000
   10        1.578093      1.629919   1.000000   1.000000
   11        1.647965      1.696302   1.000000   1.000000
   12        1.717925      1.807887   1.000000   1.000000
   13        1.881648      1.949125   1.000000   1.000000
   14        1.945495      2.005477   1.000000   1.000000
   15        2.175554      2.268308   1.000000   1.000000
   16        2.283421      2.386763   1.000000   1.000000
   17        2.657279      2.700189   1.000000   1.000000
   18        2.845541      2.952729   1.000000   1.000000
   19        2.998924      3.141964   1.000000   1.000000
   20        3.455774      3.596737   1.000000   1.000000
   21        3.671393      3.796606   1.000000   1.000000
   22        3.701412      3.867512   1.000000   1.000000
   23        3.760106      3.899451   1.000000   1.000000
   24        3.913378      4.052382   1.000000   1.000000
   25        3.966124      4.114079   1.000000   1.000000
   26        4.052844      4.190357   1.000000   1.000000
   27        4.119767      4.299045   1.000000   1.000000
   28        4.138427      4.333039   1.000000   1.000000
   29        4.226476      4.414460   1.000000   1.000000
   30        4.394677      4.572080   1.000000   1.000000
   31        4.404161      4.664592   1.000000   1.000000
   32        4.540689      4.668295   1.000000   1.000000
   33        4.601777      4.771374   1.000000   1.000000
   34        4.624112      4.847146   1.000000   1.000000
   35        4.730099      4.895285   1.000000   1.000000
   36        4.810015      5.093059   1.000000   1.000000
   37        4.917321      5.142471   1.000000   1.000000
   38        4.963118      5.165315   1.000000   1.000000
   39        5.040789      5.180653   1.000000   1.000000
   40        5.097193      5.280199   1.000000   1.000000
   41        5.101934      5.292535   1.000000   1.000000
   42        5.115521      5.370401   1.000000   1.000000
   43        5.269368      5.420624   1.000000   1.000000
   44        5.288321      5.506747   1.000000   1.000000
   45        5.312725      5.558154   1.000000   1.000000
   46        5.370841      5.568675   1.000000   1.000000
   47        5.390645      5.575804   1.000000   1.000000
   48        5.457387      5.653370   1.000000   1.000000
   49        5.458135      5.678048   1.000000   1.000000
   50        5.486665      5.754935   1.000000   1.000000
   51        5.504658      5.760198   1.000000   1.000000
   52        5.639523      5.798562   1.000000   1.000000
   53        5.651274      5.851242   1.000000   1.000000
   54        5.665207      6.165719   1.000000   1.000000
   55        5.717440      6.179936   1.000000   1.000000
   56        5.766620      6.219068   1.000000   1.000000
   57        5.799256      6.230571   1.000000   1.000000
   58        5.902257      6.312028   1.000000   1.000000
   59        5.947967      6.336690   1.000000   1.000000
   60        5.955373      6.405351   1.000000   1.000000
   61        6.027176      6.499937   1.000000   1.000000
   62        6.045989      6.503759   1.000000   1.000000
   63        6.103974      6.542836   1.000000   1.000000
   64        6.188783      6.623518   1.000000   1.000000
   65        6.227079      6.685895   1.000000   1.000000
   66        6.259357      6.686100   1.000000   1.000000
   67        6.304750      6.760977   1.000000   1.000000
   68        6.317015      6.831308   1.000000   1.000000
   69        6.350563      6.877249   1.000000   1.000000
   70        6.355453      6.938392   1.000000   1.000000
   71        6.389646      6.990580   1.000000   1.000001
   72        6.456015      7.066878   1.000000   1.000012
   73        6.458112      7.078419   1.000000   1.000017
   74        6.492297      7.132143   1.000000   1.000083
   75        6.545054      7.185766   1.000000   1.000347
   76        6.602666      7.252677   1.000000   1.001650
   77        6.635664      7.383380   1.000000   1.015806
   78        6.688467      7.394305   1.000000   1.018086
   79        6.714100      7.421988   1.000000   1.024352
   80        6.745956      7.565493   1.000000   1.002751
   81        6.760003      7.602462   1.000000   0.948878
   82        6.804779      7.611703   1.000000   0.930387
   83        6.822982      7.736718   1.000000   0.498851
   84        6.858409      7.747802   1.000000   0.452045
   85        6.904154      7.815882   1.000000   0.191519
   86        6.960391      7.915011   1.000000  -0.010162
   87        7.002612      7.994216   1.000001  -0.034876
   88        7.002698      8.001536   1.000001  -0.034103
   89        7.103013      8.107388   1.000036  -0.012425
   90        7.118972      8.155597   1.000057  -0.005794
   91        7.237801      8.213001   1.001193  -0.001925
   92        7.312836      8.227908   1.005361  -0.001398
   93        7.531940      8.275254   1.027303  -0.000466
   94        7.548976      8.320866   1.017342  -0.000143
   95        7.613734      8.466528   0.926072  -0.000002
   96        7.669794      8.549384   0.765535  -0.000000
   97        7.786711      8.577922   0.294675  -0.000000
   98        7.865703      8.637555   0.060307  -0.000000
   99        7.916932      8.690938  -0.011785  -0.000000
  100        7.969257      8.703133  -0.034842  -0.000000
  101        8.164008      8.724518  -0.005000  -0.000000
  102        8.185791      8.777003  -0.003329  -0.000000
  103        8.216644      8.810758  -0.001784  -0.000000
  104        8.250811      8.872293  -0.000836  -0.000000
  105        8.252446      8.969633  -0.000805  -0.000000
  106        8.409099      8.981552  -0.000011  -0.000000
  107        8.465983      9.055123  -0.000002  -0.000000
  108        8.490684      9.073485  -0.000001  -0.000000
  109        8.595918      9.148534  -0.000000  -0.000000
  110        8.712076      9.157098  -0.000000  -0.000000
  111        8.820771      9.176962  -0.000000  -0.000000
  112        8.985140      9.265098  -0.000000  -0.000000
  113        9.064876      9.319762  -0.000000  -0.000000
  114        9.089388      9.345124  -0.000000  -0.000000
  115        9.110291      9.361770  -0.000000  -0.000000
  116        9.210764      9.543531  -0.000000  -0.000000
  117        9.448262      9.859951  -0.000000  -0.000000
  118        9.574882      9.947287  -0.000000  -0.000000
 
  0.0000000E+00  0.2000000E+00  0.0000000E+00  0.1333333E-01
    1       -2.440827     -2.417943   1.000000   1.000000
    2       -1.115198     -1.090534   1.000000   1.000000
    3       -0.277053     -0.256048   1.000000   1.000000
    4       -0.256891     -0.225725   1.000000   1.000000
    5       -0.047112     -0.061821   1.000000   1.000000
    6        0.552362      0.584144   1.000000   1.000000
    7        0.876758      0.893073   1.000000   1.000000
    8        0.909313      0.945726   1.000000   1.000000
    9        0.921226      0.962692   1.000000   1.000000
   10        1.417914      1.454378   1.000000   1.000000
   11        1.437292      1.492837   1.000000   1.000000
   12        1.461447      1.528925   1.000000   1.000000
   13        1.883886      1.968882   1.000000   1.000000
   14        2.267379      2.344066   1.000000   1.000000
   15        2.286911      2.358867   1.000000   1.000000
   16        2.291937      2.371058   1.000000   1.000000
   17        2.309077      2.387921   1.000000   1.000000
   18        2.781125      2.875457   1.000000   1.000000
   19        3.164596      3.304084   1.000000   1.000000
   20        3.205040      3.360366   1.000000   1.000000
   21        3.537358      3.628141   1.000000   1.000000
   22        3.588524      3.692842   1.000000   1.000000
   23        3.702777      3.776660   1.000000   1.000000
   24        3.974232      4.111051   1.000000   1.000000
   25        4.081770      4.225055   1.000000   1.000000
   26        4.242496      4.384520   1.000000   1.000000
   27        4.279505      4.488834   1.000000   1.000000
   28        4.365772      4.575815   1.000000   1.000000
   29        4.420781      4.605206   1.000000   1.000000
   30        4.474478      4.697590   1.000000   1.000000
   31        4.489400      4.705243   1.000000   1.000000
   32        4.541623      4.724378   1.000000   1.000000
   33        4.588992      4.816431   1.000000   1.000000
   34        4.622847      4.838110   1.000000   1.000000
   35        4.676109      4.997453   1.000000   1.000000
   36        4.859670      5.011913   1.000000   1.000000
   37        4.885447      5.136553   1.000000   1.000000
   38        4.926416      5.188917   1.000000   1.000000
   39        4.968915      5.189706   1.000000   1.000000
   40        5.043313      5.245514   1.000000   1.000000
   41        5.053746      5.288430   1.000000   1.000000
   42        5.190586      5.416122   1.000000   1.000000
   43        5.226810      5.443181   1.000000   1.000000
   44        5.301856      5.493899   1.000000   1.000000
   45        5.376134      5.541824   1.000000   1.000000
   46        5.384245      5.564331   1.000000   1.000000
   47        5.418135      5.647591   1.000000   1.000000
   48        5.419435      5.687353   1.000000   1.000000
   49        5.441013      5.704712   1.000000   1.000000
   50        5.468267      5.746211   1.000000   1.000000
   51        5.561049      5.813342   1.000000   1.000000
   52        5.585605      5.832943   1.000000   1.000000
   53        5.605713      5.845627   1.000000   1.000000
   54        5.679383      6.002369   1.000000   1.000000
   55        5.712732      6.110274   1.000000   1.000000
   56        5.786423      6.188322   1.000000   1.000000
   57        5.851512      6.254584   1.000000   1.000000
   58        5.852062      6.364500   1.000000   1.000000
   59        5.909497      6.416792   1.000000   1.000000
   60        5.956889      6.437589   1.000000   1.000000
   61        5.982014      6.496358   1.000000   1.000000
   62        5.988616      6.534664   1.000000   1.000000
   63        6.125103      6.582483   1.000000   1.000000
   64        6.234706      6.645179   1.000000   1.000000
   65        6.239364      6.685520   1.000000   1.000000
   66        6.340457      6.692454   1.000000   1.000000
   67        6.359895      6.751898   1.000000   1.000000
   68        6.369059      6.789282   1.000000   1.000000
   69        6.377141      6.907126   1.000000   1.000000
   70        6.404341      6.932262   1.000000   1.000000
   71        6.468146      6.967881   1.000000   1.000000
   72        6.512952      7.148189   1.000000   1.000129
   73        6.543205      7.188426   1.000000   1.000371
   74        6.582085      7.191930   1.000000   1.000405
   75        6.582278      7.240430   1.000000   1.001266
   76        6.595640      7.311467   1.000000   1.005230
   77        6.679765      7.365628   1.000000   1.012443
   78        6.710720      7.414545   1.000000   1.022623
   79        6.712921      7.427364   1.000000   1.025588
   80        6.770240      7.479021   1.000000   1.034909
   81        6.794871      7.479734   1.000000   1.034966
   82        6.822491      7.559139   1.000000   1.008992
   83        6.840778      7.638258   1.000000   0.865031
   84        6.890989      7.638360   1.000000   0.864746
   85        6.895631      7.744096   1.000000   0.467676
   86        6.919500      7.902941   1.000000   0.002115
   87        6.978721      7.921318   1.000001  -0.015407
   88        7.009427      8.070735   1.000002  -0.019806
   89        7.035047      8.073965   1.000004  -0.019088
   90        7.153443      8.222513   1.000149  -0.001572
   91        7.277389      8.249899   1.002749  -0.000853
   92        7.314654      8.296378   1.005534  -0.000274
   93        7.425884      8.358136   1.025252  -0.000050
   94        7.537780      8.464274   1.024430  -0.000002
   95        7.594556      8.480416   0.963171  -0.000001
   96        7.700893      8.634347   0.647929  -0.000000
   97        7.831043      8.664427   0.145157  -0.000000
   98        7.975806      8.670587  -0.035333  -0.000000
   99        8.005909      8.703468  -0.033510  -0.000000
  100        8.027123      8.720921  -0.029676  -0.000000
  101        8.072717      8.812433  -0.019371  -0.000000
  102        8.125859      8.818622  -0.009456  -0.000000
  103        8.176397      8.840879  -0.003979  -0.000000
  104        8.211211      8.867922  -0.002001  -0.000000
  105        8.294346      9.007122  -0.000289  -0.000000
  106        8.340186      9.027406  -0.000084  -0.000000
  107        8.437868      9.043671  -0.000004  -0.000000
  108        8.519120      9.048308  -0.000000  -0.000000
  109        8.552626      9.067573  -0.000000  -0.000000
  110        8.738555      9.098445  -0.000000  -0.000000
  111        8.785212      9.102772  -0.000000  -0.000000
  112        8.887878      9.143660  -0.000000  -0.000000
  113        9.003208      9.164266  -0.000000  -0.000000
  114        9.107935      9.194303  -0.000000  -0.000000
  115        9.162078      9.249917  -0.000000  -0.000000
  116        9.177749      9.370035  -0.000000  -0.000000
  117        9.210327      9.454568  -0.000000  -0.000000
  118        9.252833      9.544198  -0.000000  -0.000000
 
  0.2000000E+00  0.2000000E+00  0.0000000E+00  0.1333333E-01
    1       -2.350543     -2.327699   1.000000   1.000000
    2       -1.042733     -1.020610   1.000000   1.000000
    3       -1.015726     -0.988782   1.000000   1.000000
    4        0.017962      0.004640   1.000000   1.000000
    5        0.210832      0.241807   1.000000   1.000000
    6        0.619365      0.652085   1.000000   1.000000
    7        0.645402      0.676223   1.000000   1.000000
    8        0.929515      0.938060   1.000000   1.000000
    9        0.953970      0.976409   1.000000   1.000000
   10        1.530689      1.622406   1.000000   1.000000
   11        1.683259      1.734477   1.000000   1.000000
   12        1.762115      1.814431   1.000000   1.000000
   13        1.809449      1.857029   1.000000   1.000000
   14        1.940026      2.027941   1.000000   1.000000
   15        1.981044      2.050369   1.000000   1.000000
   16        2.729410      2.831780   1.000000   1.000000
   17        2.814470      2.896669   1.000000   1.000000
   18        2.821539      2.942212   1.000000   1.000000
   19        2.831072      2.964329   1.000000   1.000000
   20        2.901760      3.017430   1.000000   1.000000
   21        3.577815      3.749396   1.000000   1.000000
   22        3.735638      3.820532   1.000000   1.000000
   23        3.762134      3.831369   1.000000   1.000000
   24        3.783754      3.911497   1.000000   1.000000
   25        4.047297      4.181279   1.000000   1.000000
   26        4.204668      4.346897   1.000000   1.000000
   27        4.234084      4.422619   1.000000   1.000000
   28        4.298412      4.445789   1.000000   1.000000
   29        4.338582      4.593058   1.000000   1.000000
   30        4.402077      4.604100   1.000000   1.000000
   31        4.403822      4.640394   1.000000   1.000000
   32        4.543521      4.737157   1.000000   1.000000
   33        4.545013      4.780741   1.000000   1.000000
   34        4.624296      4.910253   1.000000   1.000000
   35        4.735232      4.990218   1.000000   1.000000
   36        4.780399      5.016270   1.000000   1.000000