       N       E                     dE             d eps       ncg     rms          ort
DAV:   1     0.133473726857E+04    0.13347E+04   -0.59479E+04  6136   0.137E+03
DAV:   2    -0.770056463026E+02   -0.14117E+04   -0.13690E+04  6136   0.416E+02
DAV:   3    -0.241970118796E+03   -0.16496E+03   -0.14496E+03  6136   0.156E+02
DAV:   4    -0.266699732222E+03   -0.24730E+02   -0.21512E+02  6136   0.668E+01
DAV:   5    -0.269095308901E+03   -0.23956E+01   -0.22754E+01  6136   0.196E+01
DAV:   6    -0.269276625714E+03   -0.18132E+00   -0.17784E+00  6136   0.500E+00
DAV:   7    -0.269295399524E+03   -0.18774E-01   -0.18620E-01  6136   0.138E+00
DAV:   8    -0.269296664392E+03   -0.12649E-02   -0.12585E-02  6136   0.346E-01
SDA:   9    -0.650444849007E+02    0.20425E+03   -0.12585E-02  6136   0.227E+04 0.000E+00
CGA:  10    -0.207251782531E+03   -0.14221E+03   -0.13972E+03  6136   0.152E+03 0.411E+03
CGA:  11    -0.218432998093E+03   -0.11181E+02   -0.11243E+02  6136   0.536E+02 0.203E+01
CGA:  12    -0.227166184272E+03   -0.87332E+01   -0.87188E+01  6136   0.916E+02-0.188E+00
CGA:  13    -0.233563784020E+03   -0.63976E+01   -0.65554E+01  6136   0.130E+02-0.275E+00
CGA:  14    -0.234565721534E+03   -0.10019E+01   -0.10115E+01  6136   0.500E+01-0.547E-01
CGA:  15    -0.235264966254E+03   -0.69924E+00   -0.70151E+00  6136   0.682E+01 0.206E-01
CGA:  16    -0.235806653843E+03   -0.54169E+00   -0.54204E+00  6136   0.194E+01 0.682E-02
CGA:  17    -0.235973889414E+03   -0.16724E+00   -0.16746E+00  6136   0.112E+01-0.150E-03
CGA:  18    -0.236125157564E+03   -0.15127E+00   -0.15136E+00  6136   0.116E+01 0.461E-03
CGA:  19    -0.236235801188E+03   -0.11064E+00   -0.11113E+00  6136   0.397E+00-0.225E-02
CGA:  20    -0.236273584438E+03   -0.37783E-01   -0.37880E-01  6136   0.272E+00-0.415E-03
CGA:  21    -0.236317610393E+03   -0.44026E-01   -0.44015E-01  6136   0.331E+00 0.923E-03
CGA:  22    -0.236347303276E+03   -0.29693E-01   -0.29711E-01  6136   0.141E+00-0.208E-03
CGA:  23    -0.236360189034E+03   -0.12886E-01   -0.12895E-01  6136   0.670E-01-0.193E-03
CGA:  24    -0.236370291544E+03   -0.10103E-01   -0.10103E-01  6136   0.735E-01-0.159E-03
CGA:  25    -0.236378272359E+03   -0.79808E-02   -0.79802E-02  6136   0.555E-01-0.189E-03
CGA:  26    -0.236385971860E+03   -0.76995E-02   -0.76981E-02  6136   0.447E-01-0.153E-03
CGA:  27    -0.236390955044E+03   -0.49832E-02   -0.49826E-02  6136   0.261E-01-0.561E-04
CGA:  28    -0.236393551740E+03   -0.25967E-02   -0.25943E-02  6136   0.164E-01-0.963E-05
CGA:  29    -0.236395632040E+03   -0.20803E-02   -0.20802E-02  6136   0.141E-01-0.400E-05
CGA:  30    -0.236397265781E+03   -0.16337E-02   -0.16332E-02  6136   0.750E-02-0.947E-05
CGA:  31    -0.236398349021E+03   -0.10832E-02   -0.10833E-02  6136   0.829E-02-0.500E-05
CGA:  32    -0.236399426914E+03   -0.10779E-02   -0.10779E-02  6136   0.719E-02 0.884E-05
CGA:  33    -0.236400194618E+03   -0.76770E-03   -0.76842E-03  6136   0.333E-02 0.325E-04
CGA:  34    -0.236400577308E+03   -0.38269E-03   -0.38328E-03  6136   0.274E-02 0.281E-04
CGA:  35    -0.236400952435E+03   -0.37513E-03   -0.37519E-03  6136   0.197E-02 0.260E-04
CGA:  36    -0.236401171664E+03   -0.21923E-03   -0.21952E-03  6136   0.127E-02 0.112E-04
CGA:  37    -0.236401355809E+03   -0.18414E-03   -0.18406E-03  6136   0.139E-02 0.101E-04
CGA:  38    -0.236401557668E+03   -0.20186E-03   -0.20173E-03  6136   0.105E-02 0.172E-04
CGA:  39    -0.236401648192E+03   -0.90524E-04   -0.91077E-04  6136   0.383E-03 0.106E-04
SDA:  40    -0.236401698163E+03   -0.49970E-04   -0.49996E-04  6136   0.375E-03 0.482E-05
CGA:  41    -0.236401727234E+03   -0.29072E-04   -0.28861E-04  6136   0.295E-03-0.382E-05
CGA:  42    -0.236401772021E+03   -0.44787E-04   -0.45010E-04  6136   0.219E-03-0.990E-05
CGA:  43    -0.236401804477E+03   -0.32456E-04   -0.32559E-04  6136   0.239E-03-0.481E-05
CGA:  44    -0.236401828061E+03   -0.23584E-04   -0.23506E-04  6136   0.908E-04-0.237E-05
CGA:  45    -0.236401841033E+03   -0.12972E-04   -0.13002E-04  6136   0.131E-03-0.249E-05
CGA:  46    -0.236401859504E+03   -0.18471E-04   -0.18527E-04  6136   0.590E-04-0.441E-05
CGA:  47    -0.236401868430E+03   -0.89269E-05   -0.89502E-05  6136   0.873E-04-0.964E-06
CGA:  48    -0.236401882472E+03   -0.14041E-04   -0.14042E-04  6136   0.423E-04-0.338E-07
CGA:  49    -0.236401886399E+03   -0.39278E-05   -0.39455E-05  6136   0.373E-04 0.438E-06
CGA:  50    -0.236401893084E+03   -0.66844E-05   -0.66481E-05  6136   0.317E-04 0.868E-06
CGA:  51    -0.236401895595E+03   -0.25108E-05   -0.25338E-05  6136   0.136E-04 0.422E-06
CGA:  52    -0.236401898384E+03   -0.27898E-05   -0.27479E-05  6136   0.196E-04 0.635E-06
CGA:  53    -0.236401900579E+03   -0.21943E-05   -0.22154E-05  6136   0.815E-05 0.761E-06
CGA:  54    -0.236401902641E+03   -0.20628E-05   -0.19921E-05  6136   0.101E-04 0.703E-06
CGA:  55    -0.236401903628E+03   -0.98680E-06   -0.99374E-06  6136   0.289E-05 0.144E-06
CGA:  56    -0.236401904170E+03   -0.54141E-06   -0.56768E-06  6136   0.629E-05-0.455E-06
CGA:  57    -0.236401904901E+03   -0.73124E-06   -0.72896E-06  6136   0.382E-05-0.595E-06
CGA:  58    -0.236401905357E+03   -0.45589E-06   -0.45616E-06  6136   0.316E-05 0.274E-07
CGA:  59    -0.236401905667E+03   -0.30989E-06   -0.31577E-06  6136   0.171E-05 0.117E-06
CGA:  60    -0.236401905930E+03   -0.26322E-06   -0.26376E-06  6136   0.219E-05-0.844E-07
CGA:  61    -0.236401906170E+03   -0.24033E-06   -0.23658E-06  6136   0.855E-06-0.191E-06
CGA:  62    -0.236401906287E+03   -0.11627E-06   -0.11558E-06  6136   0.119E-05 0.413E-07
CGA:  63    -0.236401906413E+03   -0.12609E-06   -0.12982E-06  6136   0.363E-06 0.129E-06
CGA:  64    -0.236401906462E+03   -0.49775E-07   -0.49826E-07  6136   0.332E-06 0.474E-07
   1 F= -.23640191E+03 E0= -.23640567E+03  d E =0.113030E-01  mag=    12.2656
