 vasp.5.4.4.18Apr17-6-g9f103f2a35 (build Dec 20 2018 12:05:58) complex          
  
 executed on             LinuxIFC date 2019.06.20  14:51:35
 running on   32 total cores
 distrk:  each k-point on    8 cores,    4 groups
 distr:  one band on NCORES_PER_BAND=   4 cores,    2 groups


--------------------------------------------------------------------------------------------------------


 INCAR:
 POTCAR:    PAW_PBE Al 04Jan2001                  
 POTCAR:    PAW_PBE Mn 06Sep2000                  

 ----------------------------------------------------------------------------- 
|                                                                             |
|           W    W    AA    RRRRR   N    N  II  N    N   GGGG   !!!           |
|           W    W   A  A   R    R  NN   N  II  NN   N  G    G  !!!           |
|           W    W  A    A  R    R  N N  N  II  N N  N  G       !!!           |
|           W WW W  AAAAAA  RRRRR   N  N N  II  N  N N  G  GGG   !            |
|           WW  WW  A    A  R   R   N   NN  II  N   NN  G    G                |
|           W    W  A    A  R    R  N    N  II  N    N   GGGG   !!!           |
|                                                                             |
|      You have enabled k-point parallelism (KPAR>1).                         |
|      This developmental code was originally  written by Paul Kent at ORNL,  |
|      and carefully double checked in Vienna.                                |
|      GW as well as linear response parallelism added by Martijn Marsman     |
|      and Georg Kresse.                                                      |
|      Carefully verify results versus KPAR=1.                                |
|      Report problems to Paul Kent and Vienna.                               |
|                                                                             |
 ----------------------------------------------------------------------------- 

 POTCAR:    PAW_PBE Al 04Jan2001                  
   VRHFIN =Al: s2p1                                                             
   LEXCH  = PE                                                                  
   EATOM  =    53.5387 eV,    3.9350 Ry                                         
                                                                                
   TITEL  = PAW_PBE Al 04Jan2001                                                
   LULTRA =        F    use ultrasoft PP ?                                      
   IUNSCR =        1    unscreen: 0-lin 1-nonlin 2-no                           
   RPACOR =    1.500    partial core radius                                     
   POMASS =   26.981; ZVAL   =    3.000    mass and valenz                      
   RCORE  =    1.900    outmost cutoff radius                                   
   RWIGS  =    2.650; RWIGS  =    1.402    wigner-seitz radius (au A)           
   ENMAX  =  240.300; ENMIN  =  180.225 eV                                      
   ICORE  =        2    local potential                                         
   LCOR   =        T    correct aug charges                                     
   LPAW   =        T    paw PP                                                  
   EAUG   =  291.052                                                            
   DEXC   =    0.000                                                            
   RMAX   =    1.939    core radius for proj-oper                               
   RAUG   =    1.300    factor for augmentation sphere                          
   RDEP   =    1.966    radius for radial grids                                 
   RDEPT  =    1.856    core radius for aug-charge                              
                                                                                
   Atomic configuration                                                         
    6 entries                                                                   
     n  l   j            E        occ.                                          
     1  0  0.50     -1511.1048   2.0000                                         
     2  0  0.50      -108.1629   2.0000                                         
     2  1  1.50       -69.6402   6.0000                                         
     3  0  0.50        -7.7528   2.0000                                         
     3  1  1.50        -2.7121   1.0000                                         
     3  2  2.50        -2.7212   0.0000                                         
   Description                                                                  
     l       E           TYP  RCUT    TYP  RCUT                                 
     0     -7.7528455     23  1.900                                             
     0     -3.3096929     23  1.900                                             
     1     -2.7120682     23  1.900                                             
     1     13.6058260     23  1.900                                             
     2     -2.7211652      7  1.900                                             
  local pseudopotential read in
  partial core-charges read in
  partial kinetic energy density read in
  atomic valenz-charges read in
  non local Contribution for L=           0  read in
    real space projection operators read in
  non local Contribution for L=           0  read in
    real space projection operators read in
  non local Contribution for L=           1  read in
    real space projection operators read in
  non local Contribution for L=           1  read in
    real space projection operators read in
    PAW grid and wavefunctions read in
 
   number of l-projection  operators is LMAX  =           4
   number of lm-projection operators is LMMAX =           8
 
 POTCAR:    PAW_PBE Mn 06Sep2000                  
   VRHFIN =Mn: d6 s1                                                            
   LEXCH  = PE                                                                  
   EATOM  =   416.7541 eV,   30.6306 Ry                                         
                                                                                
   TITEL  = PAW_PBE Mn 06Sep2000                                                
   LULTRA =        F    use ultrasoft PP ?                                      
   IUNSCR =        1    unscreen: 0-lin 1-nonlin 2-no                           
   RPACOR =    2.000    partial core radius                                     
   POMASS =   54.938; ZVAL   =    7.000    mass and valenz                      
   RCORE  =    2.300    outmost cutoff radius                                   
   RWIGS  =    2.500; RWIGS  =    1.323    wigner-seitz radius (au A)           
   ENMAX  =  269.864; ENMIN  =  202.398 eV                                      
   RCLOC  =    1.725    cutoff for local pot                                    
   LCOR   =        T    correct aug charges                                     
   LPAW   =        T    paw PP                                                  
   EAUG   =  500.711                                                            
   DEXC   =    0.000                                                            
   RMAX   =    2.343    core radius for proj-oper                               
   RAUG   =    1.300    factor for augmentation sphere                          
   RDEP   =    2.338    radius for radial grids                                 
   RDEPT  =    1.911    core radius for aug-charge                              
                                                                                
   Atomic configuration                                                         
    9 entries                                                                   
     n  l   j            E        occ.                                          
     1  0  0.50     -6424.8288   2.0000                                         
     2  0  0.50      -739.1154   2.0000                                         
     2  1  1.50      -625.3949   6.0000                                         
     3  0  0.50       -81.6100   2.0000                                         
     3  1  1.50       -50.4667   6.0000                                         
     3  2  2.50        -3.3745   6.0000                                         
     4  0  0.50        -4.1331   1.0000                                         
     4  1  0.50        -4.0817   0.0000                                         
     4  3  2.50        -1.3606   0.0000                                         
   Description                                                                  
     l       E           TYP  RCUT    TYP  RCUT                                 
     2     -3.3744664     23  2.300                                             
     2     -4.7350490     23  2.300                                             
     0     -4.1331408     23  2.300                                             
     0      7.6656614     23  2.300                                             
     1     -2.7211652     23  2.300                                             
     1     20.4087390     23  2.300                                             
  local pseudopotential read in
  partial core-charges read in
  partial kinetic energy density read in
  atomic valenz-charges read in
  non local Contribution for L=           2  read in
    real space projection operators read in
  non local Contribution for L=           2  read in
    real space projection operators read in
  non local Contribution for L=           0  read in
    real space projection operators read in
  non local Contribution for L=           0  read in
    real space projection operators read in
  non local Contribution for L=           1  read in
    real space projection operators read in
  non local Contribution for L=           1  read in
    real space projection operators read in
    PAW grid and wavefunctions read in
 
   number of l-projection  operators is LMAX  =           6
   number of lm-projection operators is LMMAX =          18
 

 ----------------------------------------------------------------------------- 
|                                                                             |
|  ADVICE TO THIS USER RUNNING 'VASP/VAMP'   (HEAR YOUR MASTER'S VOICE ...):  |
|                                                                             |
|      You have a (more or less) 'large supercell' and for larger cells       |
|      it might be more efficient to use real space projection opertators     |
|      So try LREAL= Auto  in the INCAR   file.                               |
|      Mind:          For very  accurate calculation you might also keep the  |
|      reciprocal projection scheme          (i.e. LREAL=.FALSE.)             |
|                                                                             |
 ----------------------------------------------------------------------------- 

  PAW_PBE Al 04Jan2001                  :
 energy of atom  1       EATOM=  -53.5387
 kinetic energy error for atom=    0.0005 (will be added to EATOM!!)
  PAW_PBE Mn 06Sep2000                  :
 energy of atom  2       EATOM= -416.7541
 kinetic energy error for atom=    0.0080 (will be added to EATOM!!)
 
 
 POSCAR: NewRef: 18, @ ['Mn', array([1.37502469, 
  positions in cartesian coordinates
  velocities in cartesian coordinates
  No initial velocities read in
 exchange correlation table for  LEXCH =        8
   RHO(1)=    0.500       N(1)  =     2000
   RHO(2)=  100.500       N(2)  =     4000
 


--------------------------------------------------------------------------------------------------------


 ion  position               nearest neighbor table
   1  0.000  0.000  0.000-  20 2.61  24 2.61  32 2.61  36 2.61  31 2.61  23 2.61  35 2.61  19 2.61
                             3 2.75   7 2.75   5 2.75  13 2.75
   2  0.000  0.000  0.500-  19 2.61  23 2.61  31 2.61  35 2.61  20 2.61  32 2.61  24 2.61  36 2.61
                             4 2.75   8 2.75   6 2.75  14 2.75
   3  0.000  0.333  0.000-  20 2.61  32 2.61  22 2.61  34 2.61  19 2.61  31 2.61  33 2.61  21 2.61
                             9 2.75   1 2.75   5 2.75  15 2.75
   4  0.000  0.333  0.500-  19 2.61  31 2.61  21 2.61  33 2.61  32 2.61  20 2.61  22 2.61  34 2.61
                            10 2.75   2 2.75   6 2.75  16 2.75
   5  0.000  0.667  0.000-  22 2.61  34 2.61  24 2.61  36 2.61  21 2.61  33 2.61  35 2.61  23 2.61
                             3 2.75  11 2.75   1 2.75  17 2.75
   6  0.000  0.667  0.500-  21 2.61  33 2.61  23 2.61  35 2.61  34 2.61  22 2.61  24 2.61  36 2.61
                             4 2.75  12 2.75   2 2.75  18 2.75
   7  0.333  0.000  0.000-  20 2.61  24 2.61  26 2.61  30 2.61  23 2.61  19 2.61  29 2.61  25 2.61
                            13 2.75   1 2.75   9 2.75  11 2.75
   8  0.333  0.000  0.500-  19 2.61  23 2.61  25 2.61  29 2.61  20 2.61  24 2.61  26 2.61  30 2.61
                            14 2.75   2 2.75  10 2.75  12 2.75
   9  0.333  0.333  0.000-  20 2.61  22 2.61  26 2.61  19 2.61  28 2.61  21 2.61  25 2.61  27 2.61
                             3 2.75   7 2.75  11 2.75  15 2.75
  10  0.333  0.333  0.500-  19 2.61  21 2.61  25 2.61  20 2.61  27 2.61  26 2.61  22 2.61  28 2.61
                             4 2.75   8 2.75  12 2.75  16 2.75
  11  0.333  0.667  0.000-  22 2.61  24 2.61  28 2.61  21 2.61  30 2.61  23 2.61  27 2.61  29 2.61
                            17 2.75   5 2.75   9 2.75   7 2.75
  12  0.333  0.667  0.500-  21 2.61  23 2.61  27 2.61  22 2.61  29 2.61  28 2.61  24 2.61  30 2.61
                            18 2.75   6 2.75  10 2.75   8 2.75
  13  0.667  0.000  0.000-  26 2.61  30 2.61  32 2.61  36 2.61  29 2.61  25 2.61  35 2.61  31 2.61
                             7 2.75  15 2.75   1 2.75  17 2.75
  14  0.667  0.000  0.500-  25 2.61  29 2.61  31 2.61  35 2.61  26 2.61  30 2.61  32 2.61  36 2.61
                             8 2.75  16 2.75   2 2.75  18 2.75
  15  0.667  0.333  0.000-  26 2.61  28 2.61  32 2.61  25 2.61  34 2.61  27 2.61  31 2.61  33 2.61
                            17 2.75   9 2.75  13 2.75   3 2.75
  16  0.667  0.333  0.500-  25 2.61  27 2.61  31 2.61  26 2.61  33 2.61  32 2.61  28 2.61  34 2.61
                            18 2.75  10 2.75  14 2.75   4 2.75
  17  0.667  0.667  0.000-  28 2.61  30 2.61  34 2.61  27 2.61  36 2.61  29 2.61  33 2.61  35 2.61
                            11 2.75  15 2.75  13 2.75   5 2.75
  18  0.667  0.667  0.500-  27 2.61  29 2.61  33 2.61  28 2.61  35 2.61  34 2.61  30 2.61  36 2.61
                            12 2.75  16 2.75  14 2.75   6 2.75
  19  0.167  0.167  0.250-  10 2.61   8 2.61   4 2.61   9 2.61   2 2.61   7 2.61   3 2.61   1 2.61
                            21 2.75  25 2.75  23 2.75  31 2.75
  20  0.167  0.167  0.750-   9 2.61   7 2.61   3 2.61  10 2.61   1 2.61   4 2.61   8 2.61   2 2.61
                            22 2.75  26 2.75  24 2.75  32 2.75
  21  0.167  0.500  0.250-  12 2.61  10 2.61   6 2.61  11 2.61   4 2.61   9 2.61   5 2.61   3 2.61
                            19 2.75  23 2.75  27 2.75  33 2.75
  22  0.167  0.500  0.750-  11 2.61   9 2.61   5 2.61  12 2.61   3 2.61   6 2.61  10 2.61   4 2.61
                            20 2.75  24 2.75  28 2.75  34 2.75
  23  0.167  0.833  0.250-   8 2.61  12 2.61   2 2.61   6 2.61  11 2.61   7 2.61   5 2.61   1 2.61
                            21 2.75  29 2.75  19 2.75  35 2.75
  24  0.167  0.833  0.750-   7 2.61  11 2.61   1 2.61   5 2.61   8 2.61  12 2.61   2 2.61   6 2.61
                            22 2.75  30 2.75  20 2.75  36 2.75
  25  0.500  0.167  0.250-  16 2.61  14 2.61  10 2.61  15 2.61   8 2.61  13 2.61   9 2.61   7 2.61
                            19 2.75  27 2.75  31 2.75  29 2.75
  26  0.500  0.167  0.750-  15 2.61  13 2.61   9 2.61  16 2.61   7 2.61  10 2.61  14 2.61   8 2.61
                            20 2.75  28 2.75  32 2.75  30 2.75
  27  0.500  0.500  0.250-  18 2.61  16 2.61  12 2.61  17 2.61  10 2.61  15 2.61  11 2.61   9 2.61
                            21 2.75  25 2.75  29 2.75  33 2.75
  28  0.500  0.500  0.750-  17 2.61  15 2.61  11 2.61  18 2.61   9 2.61  12 2.61  16 2.61  10 2.61
                            22 2.75  26 2.75  30 2.75  34 2.75
  29  0.500  0.833  0.250-  14 2.61  18 2.61   8 2.61  12 2.61  17 2.61  13 2.61  11 2.61   7 2.61
                            23 2.75  27 2.75  35 2.75  25 2.75
  30  0.500  0.833  0.750-  13 2.61  17 2.61   7 2.61  11 2.61  14 2.61  18 2.61   8 2.61  12 2.61
                            24 2.75  28 2.75  36 2.75  26 2.75
  31  0.833  0.167  0.250-   4 2.61  16 2.61  14 2.61   2 2.61  15 2.61   3 2.61  13 2.61   1 2.61
                            25 2.75  33 2.75  19 2.75  35 2.75
  32  0.833  0.167  0.750-   3 2.61  15 2.61  13 2.61   1 2.61   4 2.61  16 2.61   2 2.61  14 2.61
                            26 2.75  34 2.75  20 2.75  36 2.75
  33  0.833  0.500  0.250-   6 2.61  18 2.61  16 2.61   4 2.61  17 2.61   5 2.61  15 2.61   3 2.61
                            27 2.75  31 2.75  35 2.75  21 2.75
  34  0.833  0.500  0.750-   5 2.61  17 2.61  15 2.61   3 2.61   6 2.61  18 2.61   4 2.61  16 2.61
                            28 2.75  32 2.75  36 2.75  22 2.75
  35  0.833  0.833  0.250-   2 2.61   6 2.61  14 2.61  18 2.61  13 2.61   5 2.61  17 2.61   1 2.61
                            29 2.75  33 2.75  31 2.75  23 2.75
  36  0.833  0.833  0.750-   1 2.61   5 2.61  13 2.61  17 2.61   2 2.61  14 2.61   6 2.61  18 2.61
                            30 2.75  34 2.75  32 2.75  24 2.75
 
  LATTYP: Found a simple tetragonal cell.
 ALAT       =     8.2501481662
 C/A-ratio  =     0.8428059861
  
  Lattice vectors:
  
 A1 = (   8.2501481662,   0.0000000000,   0.0000000000)
 A2 = (   0.0000000000,   8.2501481662,   0.0000000000)
 A3 = (   0.0000000000,   0.0000000000,   6.9532742610)


Analysis of symmetry for initial positions (statically):
=====================================================================
 Subroutine PRICEL returns following result:
 
  LATTYP: Found a simple tetragonal cell.
 ALAT       =     2.7500493888
 C/A-ratio  =     1.2642089792
  
  Lattice vectors:
  
 A1 = (   2.7500493888,   0.0000000000,   0.0000000000)
 A2 = (   0.0000000000,   2.7500493888,   0.0000000000)
 A3 = (   0.0000000000,   0.0000000000,   3.4766371305)
 
  18 primitive cells build up your supercell.
 

 Routine SETGRP: Setting up the symmetry group for a 
 simple tetragonal supercell.


 Subroutine GETGRP returns: Found 16 space group operations
 (whereof 16 operations were pure point group operations)
 out of a pool of 16 trial point group operations.


The static configuration has the point symmetry D_4h.


Analysis of symmetry for dynamics (positions and initial velocities):
=====================================================================
 Subroutine PRICEL returns following result:
 
  LATTYP: Found a simple tetragonal cell.
 ALAT       =     2.7500493888
 C/A-ratio  =     1.2642089792
  
  Lattice vectors:
  
 A1 = (   2.7500493888,   0.0000000000,   0.0000000000)
 A2 = (   0.0000000000,   2.7500493888,   0.0000000000)
 A3 = (   0.0000000000,   0.0000000000,   3.4766371305)
 
  18 primitive cells build up your supercell.
 

 Routine SETGRP: Setting up the symmetry group for a 
 simple tetragonal supercell.


 Subroutine GETGRP returns: Found 16 space group operations
 (whereof 16 operations were pure point group operations)
 out of a pool of 16 trial point group operations.


The dynamic configuration has the point symmetry D_4h.


Analysis of structural, dynamic, and magnetic symmetry:
=====================================================================
 Subroutine PRICEL returns:
 Original cell was already a primitive cell.
 

 Routine SETGRP: Setting up the symmetry group for a 
 simple tetragonal supercell.


 Subroutine GETGRP returns: Found  2 space group operations
 (whereof  1 operations were pure point group operations)
 out of a pool of 16 trial point group operations.


The magnetic configuration has the point symmetry C_1 .
 The point group associated with its full space group is C_1h.


 Subroutine INISYM returns: Found  2 space group operations
 (whereof  1 operations are pure point group operations),
 and found     1 'primitive' translations

 
 
 KPOINTS: automatic KPOINTS                       

Automatic generation of k-mesh.
 generate k-points for:    5    5    6
Space group operators:
 irot       det(A)        alpha          n_x          n_y          n_z        tau_x        tau_y        tau_z
    1     1.000000     0.000001     1.000000     0.000000     0.000000     0.000000     0.000000     0.000000
    2    -1.000000   179.999999     0.000000     0.000000     1.000000     0.000000     0.000000     0.500000
 
 Subroutine IBZKPT returns following result:
 ===========================================
 
 Found     52 irreducible k-points:
 
 Following reciprocal coordinates:
            Coordinates               Weight
  0.000000  0.000000  0.000000      1.000000
  0.200000  0.000000  0.000000      2.000000
  0.400000  0.000000  0.000000      2.000000
  0.000000  0.200000  0.000000      2.000000
  0.200000  0.200000  0.000000      2.000000
  0.400000  0.200000  0.000000      2.000000
 -0.400000  0.200000  0.000000      2.000000
 -0.200000  0.200000  0.000000      2.000000
  0.000000  0.400000  0.000000      2.000000
  0.200000  0.400000  0.000000      2.000000
  0.400000  0.400000  0.000000      2.000000
 -0.400000  0.400000  0.000000      2.000000
 -0.200000  0.400000  0.000000      2.000000
  0.000000  0.000000  0.166667      2.000000
  0.200000  0.000000  0.166667      4.000000
  0.400000  0.000000  0.166667      4.000000
  0.000000  0.200000  0.166667      4.000000
  0.200000  0.200000  0.166667      4.000000
  0.400000  0.200000  0.166667      4.000000
 -0.400000  0.200000  0.166667      4.000000
 -0.200000  0.200000  0.166667      4.000000
  0.000000  0.400000  0.166667      4.000000
  0.200000  0.400000  0.166667      4.000000
  0.400000  0.400000  0.166667      4.000000
 -0.400000  0.400000  0.166667      4.000000
 -0.200000  0.400000  0.166667      4.000000
  0.000000  0.000000  0.333333      2.000000
  0.200000  0.000000  0.333333      4.000000
  0.400000  0.000000  0.333333      4.000000
  0.000000  0.200000  0.333333      4.000000
  0.200000  0.200000  0.333333      4.000000
  0.400000  0.200000  0.333333      4.000000
 -0.400000  0.200000  0.333333      4.000000
 -0.200000  0.200000  0.333333      4.000000
  0.000000  0.400000  0.333333      4.000000
  0.200000  0.400000  0.333333      4.000000
  0.400000  0.400000  0.333333      4.000000
 -0.400000  0.400000  0.333333      4.000000
 -0.200000  0.400000  0.333333      4.000000
  0.000000  0.000000  0.500000      1.000000
  0.200000  0.000000  0.500000      2.000000
  0.400000  0.000000  0.500000      2.000000
  0.000000  0.200000  0.500000      2.000000
  0.200000  0.200000  0.500000      2.000000
  0.400000  0.200000  0.500000      2.000000
 -0.400000  0.200000  0.500000      2.000000
 -0.200000  0.200000  0.500000      2.000000
  0.000000  0.400000  0.500000      2.000000
  0.200000  0.400000  0.500000      2.000000
  0.400000  0.400000  0.500000      2.000000
 -0.400000  0.400000  0.500000      2.000000
 -0.200000  0.400000  0.500000      2.000000
 
 Following cartesian coordinates:
            Coordinates               Weight
  0.000000  0.000000  0.000000      1.000000
  0.024242  0.000000  0.000000      2.000000
  0.048484  0.000000  0.000000      2.000000
  0.000000  0.024242  0.000000      2.000000
  0.024242  0.024242  0.000000      2.000000
  0.048484  0.024242  0.000000      2.000000
 -0.048484  0.024242  0.000000      2.000000
 -0.024242  0.024242  0.000000      2.000000
  0.000000  0.048484  0.000000      2.000000
  0.024242  0.048484  0.000000      2.000000
  0.048484  0.048484  0.000000      2.000000
 -0.048484  0.048484  0.000000      2.000000
 -0.024242  0.048484  0.000000      2.000000
  0.000000  0.000000  0.023970      2.000000
  0.024242  0.000000  0.023970      4.000000
  0.048484  0.000000  0.023970      4.000000
  0.000000  0.024242  0.023970      4.000000
  0.024242  0.024242  0.023970      4.000000
  0.048484  0.024242  0.023970      4.000000
 -0.048484  0.024242  0.023970      4.000000
 -0.024242  0.024242  0.023970      4.000000
  0.000000  0.048484  0.023970      4.000000
  0.024242  0.048484  0.023970      4.000000
  0.048484  0.048484  0.023970      4.000000
 -0.048484  0.048484  0.023970      4.000000
 -0.024242  0.048484  0.023970      4.000000
  0.000000  0.000000  0.047939      2.000000
  0.024242  0.000000  0.047939      4.000000
  0.048484  0.000000  0.047939      4.000000
  0.000000  0.024242  0.047939      4.000000
  0.024242  0.024242  0.047939      4.000000
  0.048484  0.024242  0.047939      4.000000
 -0.048484  0.024242  0.047939      4.000000
 -0.024242  0.024242  0.047939      4.000000
  0.000000  0.048484  0.047939      4.000000
  0.024242  0.048484  0.047939      4.000000
  0.048484  0.048484  0.047939      4.000000
 -0.048484  0.048484  0.047939      4.000000
 -0.024242  0.048484  0.047939      4.000000
  0.000000  0.000000  0.071909      1.000000
  0.024242  0.000000  0.071909      2.000000
  0.048484  0.000000  0.071909      2.000000
  0.000000  0.024242  0.071909      2.000000
  0.024242  0.024242  0.071909      2.000000
  0.048484  0.024242  0.071909      2.000000
 -0.048484  0.024242  0.071909      2.000000
 -0.024242  0.024242  0.071909      2.000000
  0.000000  0.048484  0.071909      2.000000
  0.024242  0.048484  0.071909      2.000000
  0.048484  0.048484  0.071909      2.000000
 -0.048484  0.048484  0.071909      2.000000
 -0.024242  0.048484  0.071909      2.000000
 


--------------------------------------------------------------------------------------------------------




 Dimension of arrays:
   k-points           NKPTS =     52   k-points in BZ     NKDIM =     52   number of bands    NBANDS=    118
   number of dos      NEDOS =    301   number of ions     NIONS =     36
   non local maximal  LDIM  =      6   non local SUM 2l+1 LMDIM =     18
   total plane-waves  NPLWV = 139968
   max r-space proj   IRMAX =      1   max aug-charges    IRDMAX=  92271
   dimension x,y,z NGX =    54 NGY =   54 NGZ =   48
   dimension x,y,z NGXF=   108 NGYF=  108 NGZF=   96
   support grid    NGXF=   216 NGYF=  216 NGZF=  192
   ions per type =              18  18
   NGX,Y,Z   is equivalent  to a cutoff of  10.88, 10.88, 11.48 a.u.
   NGXF,Y,Z  is equivalent  to a cutoff of  21.76, 21.76, 22.95 a.u.

 SYSTEM =  AlMn_pv                                 
 POSCAR =  NewRef: 18, @ ['Mn', array([1.37502469, 

 Startparameter for this run:
   NWRITE =      2    write-flag & timer
   PREC   = accura    normal or accurate (medium, high low for compatibility)
   ISTART =      0    job   : 0-new  1-cont  2-samecut
   ICHARG =      2    charge: 1-file 2-atom 10-const
   ISPIN  =      2    spin polarized calculation?
   LNONCOLLINEAR =      F non collinear calculations
   LSORBIT =      F    spin-orbit coupling
   INIWAV =      1    electr: 0-lowe 1-rand  2-diag
   LASPH  =      F    aspherical Exc in radial PAW
   METAGGA=      F    non-selfconsistent MetaGGA calc.

 Electronic Relaxation 1
   ENCUT  =  404.8 eV  29.75 Ry    5.45 a.u.  13.53 13.53 11.41*2*pi/ulx,y,z
   ENINI  =  404.8     initial cutoff
   ENAUG  =  500.7 eV  augmentation charge cutoff
   NELM   =    100;   NELMIN=  4; NELMDL= -8     # of ELM steps 
   EDIFF  = 0.1E-06   stopping-criterion for ELM
   LREAL  =      F    real-space projection
   NLSPLINE    = F    spline interpolate recip. space projectors
   LCOMPAT=      F    compatible to vasp.4.4
   GGA_COMPAT  = T    GGA compatible to vasp.4.4-vasp.4.6
   LMAXPAW     = -100 max onsite density
   LMAXMIX     =    2 max onsite mixed and CHGCAR
   VOSKOWN=      0    Vosko Wilk Nusair interpolation
   ROPT   =    0.00000   0.00000
 Ionic relaxation
   EDIFFG = 0.1E-05   stopping-criterion for IOM
   NSW    =      0    number of steps for IOM
   NBLOCK =      1;   KBLOCK =      1    inner block; outer block 
   IBRION =     -1    ionic relax: 0-MD 1-quasi-New 2-CG
   NFREE  =      0    steps in history (QN), initial steepest desc. (CG)
   ISIF   =      2    stress and relaxation
   IWAVPR =     10    prediction:  0-non 1-charg 2-wave 3-comb
   ISYM   =      2    0-nonsym 1-usesym 2-fastsym
   LCORR  =      T    Harris-Foulkes like correction to forces

   POTIM  = 0.2000    time-step for ionic-motion
   TEIN   =    0.0    initial temperature
   TEBEG  =    0.0;   TEEND  =   0.0 temperature during run
   SMASS  =  -3.00    Nose mass-parameter (am)
   estimated Nose-frequenzy (Omega)   =  0.10E-29 period in steps =****** mass=  -0.156E-26a.u.
   SCALEE = 1.0000    scale energy and forces
   NPACO  =    256;   APACO  = 16.0  distance and # of slots for P.C.
   PSTRESS=    0.0 pullay stress

  Mass of Ions in am
   POMASS =  26.98 54.94
  Ionic Valenz
   ZVAL   =   3.00  7.00
  Atomic Wigner-Seitz radii
   RWIGS  =  -1.00 -1.00
  virtual crystal weights 
   VCA    =   1.00  1.00
   NELECT =     180.0000    total number of electrons
   NUPDOWN=      -1.0000    fix difference up-down

 DOS related values:
   EMIN   =  10.00;   EMAX   =-10.00  energy-range for DOS
   EFERMI =   0.00
   ISMEAR =     1;   SIGMA  =   0.20  broadening in eV -4-tet -1-fermi 0-gaus

 Electronic relaxation 2 (details)
   IALGO  =     58    algorithm
   LDIAG  =      T    sub-space diagonalisation (order eigenvalues)
   LSUBROT=      F    optimize rotation matrix (better conditioning)
   TURBO    =      0    0=normal 1=particle mesh
   IRESTART =      0    0=no restart 2=restart with 2 vectors
   NREBOOT  =      0    no. of reboots
   NMIN     =      0    reboot dimension
   EREF     =   0.00    reference energy to select bands
   IMIX   =      4    mixing-type and parameters
     AMIX     =   0.40;   BMIX     =  1.00
     AMIX_MAG =   1.60;   BMIX_MAG =  1.00
     AMIN     =   0.10
     WC   =   100.;   INIMIX=   1;  MIXPRE=   1;  MAXMIX= -45

 Intra band minimization:
   WEIMIN = 0.0000     energy-eigenvalue tresh-hold
   EBREAK =  0.21E-09  absolut break condition
   DEPER  =   0.30     relativ break condition  

   TIME   =   0.40     timestep for ELM

  volume/ion in A,a.u.               =      13.15        88.72
  Fermi-wavevector in a.u.,A,eV,Ry     =   1.186118  2.241439 19.141722  1.406877
  Thomas-Fermi vector in A             =   2.322298
 
 Write flags
   LWAVE        =      F    write WAVECAR
   LDOWNSAMPLE  =      F    k-point downsampling of WAVECAR
   LCHARG       =      F    write CHGCAR
   LVTOT        =      F    write LOCPOT, total local potential
   LVHAR        =      F    write LOCPOT, Hartree potential only
   LELF         =      F    write electronic localiz. function (ELF)
   LORBIT       =     10    0 simple, 1 ext, 2 COOP (PROOUT), +10 PAW based schemes


 Dipole corrections
   LMONO  =      F    monopole corrections only (constant potential shift)
   LDIPOL =      F    correct potential (dipole corrections)
   IDIPOL =      0    1-x, 2-y, 3-z, 4-all directions 
   EPSILON=  1.0000000 bulk dielectric constant

 Exchange correlation treatment:
   GGA     =    --    GGA type
   LEXCH   =     8    internal setting for exchange type
   VOSKOWN=      0    Vosko Wilk Nusair interpolation
   LHFCALC =     F    Hartree Fock is set to
   LHFONE  =     F    Hartree Fock one center treatment
   AEXX    =    0.0000 exact exchange contribution

 Linear response parameters
   LEPSILON=     F    determine dielectric tensor
   LRPA    =     F    only Hartree local field effects (RPA)
   LNABLA  =     F    use nabla operator in PAW spheres
   LVEL    =     F    velocity operator in full k-point grid
   LINTERFAST=   F  fast interpolation
   KINTER  =     0    interpolate to denser k-point grid
   CSHIFT  =0.1000    complex shift for real part using Kramers Kronig
   OMEGAMAX=  -1.0    maximum frequency
   DEG_THRESHOLD= 0.2000000E-02 threshold for treating states as degnerate
   RTIME   =   -0.100 relaxation time in fs
  (WPLASMAI=    0.000 imaginary part of plasma frequency in eV, 0.658/RTIME)
   DFIELD  = 0.0000000 0.0000000 0.0000000 field for delta impulse in time
 
 Orbital magnetization related:
   ORBITALMAG=     F  switch on orbital magnetization
   LCHIMAG   =     F  perturbation theory with respect to B field
   DQ        =  0.001000  dq finite difference perturbation B field
   LLRAUG    =     F  two centre corrections for induced B field



--------------------------------------------------------------------------------------------------------


 Static calculation
 charge density and potential will be updated during run
 spin polarized calculation
 Conjugate gradient for all bands (Freysoldt, et al. PRB 79, 241103 (2009))
 preconditioned conjugated gradient                                        
 perform sub-space diagonalisation
    before iterative eigenvector-optimisation
 modified Broyden-mixing scheme, WC =      100.0
 initial mixing is a Kerker type mixing with AMIX =  0.4000 and BMIX =      1.0000
 Hartree-type preconditioning will be used
 using additional bands           28
 reciprocal scheme for non local part
 use partial core corrections
 no Harris-corrections to forces 
 use gradient corrections 
 use of overlap-Matrix (Vanderbilt PP)
 Methfessel and Paxton  Order N= 1 SIGMA  =   0.20


--------------------------------------------------------------------------------------------------------


  energy-cutoff  :      404.80
  volume of cell :      473.27
      direct lattice vectors                 reciprocal lattice vectors
     8.250148166  0.000000000  0.000000000     0.121209944  0.000000000  0.000000000
     0.000000000  8.250148166  0.000000000     0.000000000  0.121209944  0.000000000
     0.000000000  0.000000000  6.953274261     0.000000000  0.000000000  0.143817137

  length of vectors
     8.250148166  8.250148166  6.953274261     0.121209944  0.121209944  0.143817137


 
 k-points in units of 2pi/SCALE and weight: automatic KPOINTS                       
   0.00000000  0.00000000  0.00000000       0.007
   0.02424199  0.00000000  0.00000000       0.013
   0.04848398  0.00000000  0.00000000       0.013
   0.00000000  0.02424199  0.00000000       0.013
   0.02424199  0.02424199  0.00000000       0.013
   0.04848398  0.02424199  0.00000000       0.013
  -0.04848398  0.02424199  0.00000000       0.013
  -0.02424199  0.02424199  0.00000000       0.013
   0.00000000  0.04848398  0.00000000       0.013
   0.02424199  0.04848398  0.00000000       0.013
   0.04848398  0.04848398  0.00000000       0.013
  -0.04848398  0.04848398  0.00000000       0.013
  -0.02424199  0.04848398  0.00000000       0.013
   0.00000000  0.00000000  0.02396952       0.013
   0.02424199  0.00000000  0.02396952       0.027
   0.04848398  0.00000000  0.02396952       0.027
   0.00000000  0.02424199  0.02396952       0.027
   0.02424199  0.02424199  0.02396952       0.027
   0.04848398  0.02424199  0.02396952       0.027
  -0.04848398  0.02424199  0.02396952       0.027
  -0.02424199  0.02424199  0.02396952       0.027
   0.00000000  0.04848398  0.02396952       0.027
   0.02424199  0.04848398  0.02396952       0.027
   0.04848398  0.04848398  0.02396952       0.027
  -0.04848398  0.04848398  0.02396952       0.027
  -0.02424199  0.04848398  0.02396952       0.027
   0.00000000  0.00000000  0.04793905       0.013
   0.02424199  0.00000000  0.04793905       0.027
   0.04848398  0.00000000  0.04793905       0.027
   0.00000000  0.02424199  0.04793905       0.027
   0.02424199  0.02424199  0.04793905       0.027
   0.04848398  0.02424199  0.04793905       0.027
  -0.04848398  0.02424199  0.04793905       0.027
  -0.02424199  0.02424199  0.04793905       0.027
   0.00000000  0.04848398  0.04793905       0.027
   0.02424199  0.04848398  0.04793905       0.027
   0.04848398  0.04848398  0.04793905       0.027
  -0.04848398  0.04848398  0.04793905       0.027
  -0.02424199  0.04848398  0.04793905       0.027
   0.00000000  0.00000000  0.07190857       0.007
   0.02424199  0.00000000  0.07190857       0.013
   0.04848398  0.00000000  0.07190857       0.013
   0.00000000  0.02424199  0.07190857       0.013
   0.02424199  0.02424199  0.07190857       0.013
   0.04848398  0.02424199  0.07190857       0.013
  -0.04848398  0.02424199  0.07190857       0.013
  -0.02424199  0.02424199  0.07190857       0.013
   0.00000000  0.04848398  0.07190857       0.013
   0.02424199  0.04848398  0.07190857       0.013
   0.04848398  0.04848398  0.07190857       0.013
  -0.04848398  0.04848398  0.07190857       0.013
  -0.02424199  0.04848398  0.07190857       0.013
 
 k-points in reciprocal lattice and weights: automatic KPOINTS                       
   0.00000000  0.00000000  0.00000000       0.007
   0.20000000  0.00000000  0.00000000       0.013
   0.40000000  0.00000000  0.00000000       0.013
   0.00000000  0.20000000  0.00000000       0.013
   0.20000000  0.20000000  0.00000000       0.013
   0.40000000  0.20000000  0.00000000       0.013
  -0.40000000  0.20000000  0.00000000       0.013
  -0.20000000  0.20000000  0.00000000       0.013
   0.00000000  0.40000000  0.00000000       0.013
   0.20000000  0.40000000  0.00000000       0.013
   0.40000000  0.40000000  0.00000000       0.013
  -0.40000000  0.40000000  0.00000000       0.013
  -0.20000000  0.40000000  0.00000000       0.013
   0.00000000  0.00000000  0.16666667       0.013
   0.20000000  0.00000000  0.16666667       0.027
   0.40000000  0.00000000  0.16666667       0.027
   0.00000000  0.20000000  0.16666667       0.027
   0.20000000  0.20000000  0.16666667       0.027
   0.40000000  0.20000000  0.16666667       0.027
  -0.40000000  0.20000000  0.16666667       0.027
  -0.20000000  0.20000000  0.16666667       0.027
   0.00000000  0.40000000  0.16666667       0.027
   0.20000000  0.40000000  0.16666667       0.027
   0.40000000  0.40000000  0.16666667       0.027
  -0.40000000  0.40000000  0.16666667       0.027
  -0.20000000  0.40000000  0.16666667       0.027
   0.00000000  0.00000000  0.33333333       0.013
   0.20000000  0.00000000  0.33333333       0.027
   0.40000000  0.00000000  0.33333333       0.027
   0.00000000  0.20000000  0.33333333       0.027
   0.20000000  0.20000000  0.33333333       0.027
   0.40000000  0.20000000  0.33333333       0.027
  -0.40000000  0.20000000  0.33333333       0.027
  -0.20000000  0.20000000  0.33333333       0.027
   0.00000000  0.40000000  0.33333333       0.027
   0.20000000  0.40000000  0.33333333       0.027
   0.40000000  0.40000000  0.33333333       0.027
  -0.40000000  0.40000000  0.33333333       0.027
  -0.20000000  0.40000000  0.33333333       0.027
   0.00000000  0.00000000  0.50000000       0.007
   0.20000000  0.00000000  0.50000000       0.013
   0.40000000  0.00000000  0.50000000       0.013
   0.00000000  0.20000000  0.50000000       0.013
   0.20000000  0.20000000  0.50000000       0.013
   0.40000000  0.20000000  0.50000000       0.013
  -0.40000000  0.20000000  0.50000000       0.013
  -0.20000000  0.20000000  0.50000000       0.013
   0.00000000  0.40000000  0.50000000       0.013
   0.20000000  0.40000000  0.50000000       0.013
   0.40000000  0.40000000  0.50000000       0.013
  -0.40000000  0.40000000  0.50000000       0.013
  -0.20000000  0.40000000  0.50000000       0.013
 
 position of ions in fractional coordinates (direct lattice) 
   0.00000000  0.00000000  0.00000000
   0.00000000  0.00000000  0.50000000
   0.00000000  0.33333333  0.00000000
   0.00000000  0.33333333  0.50000000
   0.00000000  0.66666667  0.00000000
   0.00000000  0.66666667  0.50000000
   0.33333333  0.00000000  0.00000000
   0.33333333  0.00000000  0.50000000
   0.33333333  0.33333333  0.00000000
   0.33333333  0.33333333  0.50000000
   0.33333333  0.66666667  0.00000000
   0.33333333  0.66666667  0.50000000
   0.66666667  0.00000000  0.00000000
   0.66666667  0.00000000  0.50000000
   0.66666667  0.33333333  0.00000000
   0.66666667  0.33333333  0.50000000
   0.66666667  0.66666667  0.00000000
   0.66666667  0.66666667  0.50000000
   0.16666667  0.16666667  0.25000000
   0.16666667  0.16666667  0.75000000
   0.16666667  0.50000000  0.25000000
   0.16666667  0.50000000  0.75000000
   0.16666667  0.83333333  0.25000000
   0.16666667  0.83333333  0.75000000
   0.50000000  0.16666667  0.25000000
   0.50000000  0.16666667  0.75000000
   0.50000000  0.50000000  0.25000000
   0.50000000  0.50000000  0.75000000
   0.50000000  0.83333333  0.25000000
   0.50000000  0.83333333  0.75000000
   0.83333333  0.16666667  0.25000000
   0.83333333  0.16666667  0.75000000
   0.83333333  0.50000000  0.25000000
   0.83333333  0.50000000  0.75000000
   0.83333333  0.83333333  0.25000000
   0.83333333  0.83333333  0.75000000
 
 position of ions in cartesian coordinates  (Angst):
   0.00000000  0.00000000  0.00000000
   0.00000000  0.00000000  3.47663713
   0.00000000  2.75004939  0.00000000
   0.00000000  2.75004939  3.47663713
   0.00000000  5.50009878  0.00000000
   0.00000000  5.50009878  3.47663713
   2.75004939  0.00000000  0.00000000
   2.75004939  0.00000000  3.47663713
   2.75004939  2.75004939  0.00000000
   2.75004939  2.75004939  3.47663713
   2.75004939  5.50009878  0.00000000
   2.75004939  5.50009878  3.47663713
   5.50009878  0.00000000  0.00000000
   5.50009878  0.00000000  3.47663713
   5.50009878  2.75004939  0.00000000
   5.50009878  2.75004939  3.47663713
   5.50009878  5.50009878  0.00000000
   5.50009878  5.50009878  3.47663713
   1.37502469  1.37502469  1.73831857
   1.37502469  1.37502469  5.21495570
   1.37502469  4.12507408  1.73831857
   1.37502469  4.12507408  5.21495570
   1.37502469  6.87512347  1.73831857
   1.37502469  6.87512347  5.21495570
   4.12507408  1.37502469  1.73831857
   4.12507408  1.37502469  5.21495570
   4.12507408  4.12507408  1.73831857
   4.12507408  4.12507408  5.21495570
   4.12507408  6.87512347  1.73831857
   4.12507408  6.87512347  5.21495570
   6.87512347  1.37502469  1.73831857
   6.87512347  1.37502469  5.21495570
   6.87512347  4.12507408  1.73831857
   6.87512347  4.12507408  5.21495570
   6.87512347  6.87512347  1.73831857
   6.87512347  6.87512347  5.21495570
 


--------------------------------------------------------------------------------------------------------


 k-point  1 :   0.0000 0.0000 0.0000  plane waves:    8799
 k-point  2 :   0.2000 0.0000 0.0000  plane waves:    8753
 k-point  3 :   0.4000 0.0000 0.0000  plane waves:    8757
 k-point  4 :   0.0000 0.2000 0.0000  plane waves:    8753
 k-point  5 :   0.2000 0.2000 0.0000  plane waves:    8767
 k-point  6 :   0.4000 0.2000 0.0000  plane waves:    8761
 k-point  7 :  -0.4000 0.2000 0.0000  plane waves:    8761
 k-point  8 :  -0.2000 0.2000 0.0000  plane waves:    8767
 k-point  9 :   0.0000 0.4000 0.0000  plane waves:    8757
 k-point 10 :   0.2000 0.4000 0.0000  plane waves:    8761
 k-point 11 :   0.4000 0.4000 0.0000  plane waves:    8731
 k-point 12 :  -0.4000 0.4000 0.0000  plane waves:    8731
 k-point 13 :  -0.2000 0.4000 0.0000  plane waves:    8761
 k-point 14 :   0.0000 0.0000 0.1667  plane waves:    8763
 k-point 15 :   0.2000 0.0000 0.1667  plane waves:    8771
 k-point 16 :   0.4000 0.0000 0.1667  plane waves:    8747
 k-point 17 :   0.0000 0.2000 0.1667  plane waves:    8771
 k-point 18 :   0.2000 0.2000 0.1667  plane waves:    8764
 k-point 19 :   0.4000 0.2000 0.1667  plane waves:    8768
 k-point 20 :  -0.4000 0.2000 0.1667  plane waves:    8768
 k-point 21 :  -0.2000 0.2000 0.1667  plane waves:    8764
 k-point 22 :   0.0000 0.4000 0.1667  plane waves:    8747
 k-point 23 :   0.2000 0.4000 0.1667  plane waves:    8768
 k-point 24 :   0.4000 0.4000 0.1667  plane waves:    8740
 k-point 25 :  -0.4000 0.4000 0.1667  plane waves:    8740
 k-point 26 :  -0.2000 0.4000 0.1667  plane waves:    8768
 k-point 27 :   0.0000 0.0000 0.3333  plane waves:    8743
 k-point 28 :   0.2000 0.0000 0.3333  plane waves:    8736
 k-point 29 :   0.4000 0.0000 0.3333  plane waves:    8753
 k-point 30 :   0.0000 0.2000 0.3333  plane waves:    8736
 k-point 31 :   0.2000 0.2000 0.3333  plane waves:    8753
 k-point 32 :   0.4000 0.2000 0.3333  plane waves:    8743
 k-point 33 :  -0.4000 0.2000 0.3333  plane waves:    8743
 k-point 34 :  -0.2000 0.2000 0.3333  plane waves:    8753
 k-point 35 :   0.0000 0.4000 0.3333  plane waves:    8753
 k-point 36 :   0.2000 0.4000 0.3333  plane waves:    8743
 k-point 37 :   0.4000 0.4000 0.3333  plane waves:    8755
 k-point 38 :  -0.4000 0.4000 0.3333  plane waves:    8755
 k-point 39 :  -0.2000 0.4000 0.3333  plane waves:    8743
 k-point 40 :   0.0000 0.0000 0.5000  plane waves:    8742
 k-point 41 :   0.2000 0.0000 0.5000  plane waves:    8756
 k-point 42 :   0.4000 0.0000 0.5000  plane waves:    8744
 k-point 43 :   0.0000 0.2000 0.5000  plane waves:    8756
 k-point 44 :   0.2000 0.2000 0.5000  plane waves:    8762
 k-point 45 :   0.4000 0.2000 0.5000  plane waves:    8732
 k-point 46 :  -0.4000 0.2000 0.5000  plane waves:    8732
 k-point 47 :  -0.2000 0.2000 0.5000  plane waves:    8762
 k-point 48 :   0.0000 0.4000 0.5000  plane waves:    8744
 k-point 49 :   0.2000 0.4000 0.5000  plane waves:    8732
 k-point 50 :   0.4000 0.4000 0.5000  plane waves:    8736
 k-point 51 :  -0.4000 0.4000 0.5000  plane waves:    8736
 k-point 52 :  -0.2000 0.4000 0.5000  plane waves:    8732

 maximum and minimum number of plane-waves per node :      2210     2164

 maximum number of plane-waves:      8799
 maximum index in each direction: 
   IXMAX=   13   IYMAX=   13   IZMAX=   11
   IXMIN=  -13   IYMIN=  -13   IZMIN=  -11


 parallel 3D FFT for wavefunctions:
    minimum data exchange during FFTs selected (reduces bandwidth)
 parallel 3D FFT for charge:
    minimum data exchange during FFTs selected (reduces bandwidth)


 total amount of memory used by VASP MPI-rank0   786703. kBytes
=======================================================================

   base      :      30000. kBytes
   nonl-proj :      34307. kBytes
   fftplans  :      21726. kBytes
   grid      :      14732. kBytes
   one-center:        279. kBytes
   wavefun   :     685659. kBytes
 
     INWAV:  cpu time    0.0000: real time    0.0000
 Broyden mixing: mesh for mixing (old mesh)
   NGX = 27   NGY = 27   NGZ = 23
  (NGX  =108   NGY  =108   NGZ  = 96)
  gives a total of  16767 points

 initial charge density was supplied:
 charge density of overlapping atoms calculated
 number of electron     180.0000000 magnetization      18.0000000
 keeping initial charge density in first step


--------------------------------------------------------------------------------------------------------


 Maximum index for augmentation-charges        11261 (set IRDMAX)


--------------------------------------------------------------------------------------------------------


 First call to EWALD:  gamma=   0.227
 Maximum number of real-space cells 3x 3x 3
 Maximum number of reciprocal cells 3x 3x 3

    FEWALD:  cpu time    0.0105: real time    0.0105


--------------------------------------- Iteration      1(   1)  ---------------------------------------


    POTLOK:  cpu time    0.2529: real time    0.2533
    SETDIJ:  cpu time    0.3157: real time    0.3164
    TRIAL :  cpu time   19.7450: real time   20.6409
    CORREC:  cpu time    0.0069: real time    0.0078
    --------------------------------------------
      LOOP:  cpu time   20.3787: real time   21.6792

 eigenvalue-minimisations  : 24544
 total energy-change (2. order) : 0.1334737E+04  (-0.5947916E+04)
 number of electron     180.0000000 magnetization      18.0000000
 augmentation part      180.0000000 magnetization      18.0000000

 Free energy of the ion-electron system (eV)
  ---------------------------------------------------
  alpha Z        PSCENC =       532.25742704
  Ewald energy   TEWEN  =     -8601.05107233
  -Hartree energ DENC   =     -1903.73857242
  -exchange      EXHF   =         0.00000000
  -V(xc)+E(xc)   XCENC  =      -664.54841076
  PAW double counting   =      8494.55058411    -7650.81563588
  entropy T*S    EENTRO =        -0.00764113
  eigenvalues    EBANDS =      2662.97458147
  atomic energy  EATOM  =      8465.11600846
  ---------------------------------------------------
  free energy    TOTEN  =      1334.73726857 eV

  energy without entropy =     1334.74490970  energy(sigma->0) =     1334.73981561


--------------------------------------------------------------------------------------------------------




--------------------------------------- Iteration      1(   2)  ---------------------------------------


    TRIAL :  cpu time   20.3028: real time   20.4903
    CORREC:  cpu time    0.0082: real time    0.0090
    --------------------------------------------
      LOOP:  cpu time   20.3120: real time   20.5022

 eigenvalue-minimisations  : 24544
 total energy-change (2. order) :-0.1411743E+04  (-0.1368974E+04)
 number of electron     180.0000000 magnetization      18.0000000
 augmentation part      180.0000000 magnetization      18.0000000

 Free energy of the ion-electron system (eV)
  ---------------------------------------------------
  alpha Z        PSCENC =       532.25742704
  Ewald energy   TEWEN  =     -8601.05107233
  -Hartree energ DENC   =     -1903.73857242
  -exchange      EXHF   =         0.00000000
  -V(xc)+E(xc)   XCENC  =      -664.54841076
  PAW double counting   =      8494.55058411    -7650.81563588
  entropy T*S    EENTRO =         0.00101934
  eigenvalues    EBANDS =      1251.22300613
  atomic energy  EATOM  =      8465.11600846
  ---------------------------------------------------
  free energy    TOTEN  =       -77.00564630 eV

  energy without entropy =      -77.00666564  energy(sigma->0) =      -77.00598608


--------------------------------------------------------------------------------------------------------




--------------------------------------- Iteration      1(   3)  ---------------------------------------


    TRIAL :  cpu time   27.3735: real time   28.2443
    CORREC:  cpu time    0.0102: real time    0.0103
    --------------------------------------------
      LOOP:  cpu time   27.3849: real time   28.2579

 eigenvalue-minimisations  : 37100
 total energy-change (2. order) :-0.1649645E+03  (-0.1449635E+03)
 number of electron     180.0000000 magnetization      18.0000000
 augmentation part      180.0000000 magnetization      18.0000000

 Free energy of the ion-electron system (eV)
  ---------------------------------------------------
  alpha Z        PSCENC =       532.25742704
  Ewald energy   TEWEN  =     -8601.05107233
  -Hartree energ DENC   =     -1903.73857242
  -exchange      EXHF   =         0.00000000
  -V(xc)+E(xc)   XCENC  =      -664.54841076
  PAW double counting   =      8494.55058411    -7650.81563588
  entropy T*S    EENTRO =         0.01285865
  eigenvalues    EBANDS =      1086.24669433
  atomic energy  EATOM  =      8465.11600846
  ---------------------------------------------------
  free energy    TOTEN  =      -241.97011880 eV

  energy without entropy =     -241.98297744  energy(sigma->0) =     -241.97440501


--------------------------------------------------------------------------------------------------------




--------------------------------------- Iteration      1(   4)  ---------------------------------------


    TRIAL :  cpu time   28.9818: real time   29.1764
    CORREC:  cpu time    0.0098: real time    0.0107
    --------------------------------------------
      LOOP:  cpu time   28.9926: real time   29.1901

 eigenvalue-minimisations  : 39720
 total energy-change (2. order) :-0.2472961E+02  (-0.2151179E+02)
 number of electron     180.0000000 magnetization      18.0000000
 augmentation part      180.0000000 magnetization      18.0000000

 Free energy of the ion-electron system (eV)
  ---------------------------------------------------
  alpha Z        PSCENC =       532.25742704
  Ewald energy   TEWEN  =     -8601.05107233
  -Hartree energ DENC   =     -1903.73857242
  -exchange      EXHF   =         0.00000000
  -V(xc)+E(xc)   XCENC  =      -664.54841076
  PAW double counting   =      8494.55058411    -7650.81563588
  entropy T*S    EENTRO =         0.04529614
  eigenvalues    EBANDS =      1061.48464342
  atomic energy  EATOM  =      8465.11600846
  ---------------------------------------------------
  free energy    TOTEN  =      -266.69973222 eV

  energy without entropy =     -266.74502836  energy(sigma->0) =     -266.71483093


--------------------------------------------------------------------------------------------------------




--------------------------------------- Iteration      1(   5)  ---------------------------------------


    TRIAL :  cpu time   29.5173: real time   30.4069
    CORREC:  cpu time    0.0108: real time    0.0109
    --------------------------------------------
      LOOP:  cpu time   29.5290: real time   30.4211

 eigenvalue-minimisations  : 40448
 total energy-change (2. order) :-0.2395577E+01  (-0.2275400E+01)
 number of electron     180.0000000 magnetization      18.0000000
 augmentation part      180.0000000 magnetization      18.0000000

 Free energy of the ion-electron system (eV)
  ---------------------------------------------------
  alpha Z        PSCENC =       532.25742704
  Ewald energy   TEWEN  =     -8601.05107233
  -Hartree energ DENC   =     -1903.73857242
  -exchange      EXHF   =         0.00000000
  -V(xc)+E(xc)   XCENC  =      -664.54841076
  PAW double counting   =      8494.55058411    -7650.81563588
  entropy T*S    EENTRO =         0.05303466
  eigenvalues    EBANDS =      1059.08132821
  atomic energy  EATOM  =      8465.11600846
  ---------------------------------------------------
  free energy    TOTEN  =      -269.09530890 eV

  energy without entropy =     -269.14834356  energy(sigma->0) =     -269.11298712


--------------------------------------------------------------------------------------------------------




--------------------------------------- Iteration      1(   6)  ---------------------------------------


    TRIAL :  cpu time   29.2667: real time   29.4533
    CORREC:  cpu time    0.0106: real time    0.0115
    --------------------------------------------
      LOOP:  cpu time   29.2805: real time   29.4681

 eigenvalue-minimisations  : 40200
 total energy-change (2. order) :-0.1813168E+00  (-0.1778416E+00)
 number of electron     180.0000000 magnetization      18.0000000
 augmentation part      180.0000000 magnetization      18.0000000

 Free energy of the ion-electron system (eV)
  ---------------------------------------------------
  alpha Z        PSCENC =       532.25742704
  Ewald energy   TEWEN  =     -8601.05107233
  -Hartree energ DENC   =     -1903.73857242
  -exchange      EXHF   =         0.00000000
  -V(xc)+E(xc)   XCENC  =      -664.54841076
  PAW double counting   =      8494.55058411    -7650.81563588
  entropy T*S    EENTRO =         0.05378393
  eigenvalues    EBANDS =      1058.89926213
  atomic energy  EATOM  =      8465.11600846
  ---------------------------------------------------
  free energy    TOTEN  =      -269.27662571 eV

  energy without entropy =     -269.33040964  energy(sigma->0) =     -269.29455369


--------------------------------------------------------------------------------------------------------




--------------------------------------- Iteration      1(   7)  ---------------------------------------


    TRIAL :  cpu time   30.0650: real time   30.9679
    CORREC:  cpu time    0.0112: real time    0.0114
    --------------------------------------------
      LOOP:  cpu time   30.0795: real time   30.9827

 eigenvalue-minimisations  : 41272
 total energy-change (2. order) :-0.1877381E-01  (-0.1861983E-01)
 number of electron     180.0000000 magnetization      18.0000000
 augmentation part      180.0000000 magnetization      18.0000000

 Free energy of the ion-electron system (eV)
  ---------------------------------------------------
  alpha Z        PSCENC =       532.25742704
  Ewald energy   TEWEN  =     -8601.05107233
  -Hartree energ DENC   =     -1903.73857242
  -exchange      EXHF   =         0.00000000
  -V(xc)+E(xc)   XCENC  =      -664.54841076
  PAW double counting   =      8494.55058411    -7650.81563588
  entropy T*S    EENTRO =         0.05389861
  eigenvalues    EBANDS =      1058.88037364
  atomic energy  EATOM  =      8465.11600846
  ---------------------------------------------------
  free energy    TOTEN  =      -269.29539952 eV

  energy without entropy =     -269.34929813  energy(sigma->0) =     -269.31336573


--------------------------------------------------------------------------------------------------------




--------------------------------------- Iteration      1(   8)  ---------------------------------------


    TRIAL :  cpu time   28.6041: real time   28.7885
    CORREC:  cpu time    0.0105: real time    0.0114
    CHARGE:  cpu time    1.1361: real time    1.1375
    --------------------------------------------
      LOOP:  cpu time   29.7534: real time   29.9403

 eigenvalue-minimisations  : 39312
 total energy-change (2. order) :-0.1264867E-02  (-0.1258533E-02)
 number of electron     179.9999997 magnetization      12.9218237
 augmentation part       42.7088740 magnetization       7.5213103

 Free energy of the ion-electron system (eV)
  ---------------------------------------------------
  alpha Z        PSCENC =       532.25742704
  Ewald energy   TEWEN  =     -8601.05107233
  -Hartree energ DENC   =     -1903.73857242
  -exchange      EXHF   =         0.00000000
  -V(xc)+E(xc)   XCENC  =      -664.54841076
  PAW double counting   =      8494.55058411    -7650.81563588
  entropy T*S    EENTRO =         0.05393581
  eigenvalues    EBANDS =      1058.87907157
  atomic energy  EATOM  =      8465.11600846
  ---------------------------------------------------
  free energy    TOTEN  =      -269.29666439 eV

  energy without entropy =     -269.35060020  energy(sigma->0) =     -269.31464300


--------------------------------------------------------------------------------------------------------




--------------------------------------- Iteration      1(   9)  ---------------------------------------


    POTLOK:  cpu time    0.2517: real time    0.2521
    SETDIJ:  cpu time    1.1649: real time    1.1757
    TRIAL :  cpu time    9.7991: real time    9.8471
    CORREC:  cpu time    4.2254: real time    4.3085
    CHARGE:  cpu time    1.1307: real time    1.1306
    --------------------------------------------
      LOOP:  cpu time   16.5804: real time   16.7233

 eigenvalue-minimisations  :     0
 total energy-change (2. order) : 0.2042522E+03  (-0.1397153E+03)
 number of electron     179.9999997 magnetization      13.2533691
 augmentation part       54.0531563 magnetization       8.5810867

 Free energy of the ion-electron system (eV)
  ---------------------------------------------------
  alpha Z        PSCENC =       532.25742704
  Ewald energy   TEWEN  =     -8601.05107233
  -Hartree energ DENC   =      -847.69172995
  -exchange      EXHF   =         0.00000000
  -V(xc)+E(xc)   XCENC  =      -694.68777367
  PAW double counting   =     12766.79191044   -11820.46739196
  entropy T*S    EENTRO =         0.03561503
  eigenvalues    EBANDS =       134.63420126
  atomic energy  EATOM  =      8465.11600846
  ---------------------------------------------------
  free energy    TOTEN  =       -65.04448490 eV

  energy without entropy =      -65.08009993  energy(sigma->0) =      -65.05635658


--------------------------------------------------------------------------------------------------------




--------------------------------------- Iteration      1(  10)  ---------------------------------------


    POTLOK:  cpu time    0.2474: real time    0.2475
    SETDIJ:  cpu time    0.3219: real time    0.3218
    TRIAL :  cpu time    9.8755: real time    9.9726
    CORREC:  cpu time    3.6706: real time    4.6640
    CHARGE:  cpu time    1.1993: real time    1.1994
    --------------------------------------------
      LOOP:  cpu time   15.3214: real time   16.4132

 eigenvalue-minimisations  :     0
 total energy-change (2. order) :-0.1422073E+03  (-0.1124273E+02)
 number of electron     179.9999996 magnetization      13.2787738
 augmentation part       57.5674947 magnetization       8.9961417

 Free energy of the ion-electron system (eV)
  ---------------------------------------------------
  alpha Z        PSCENC =       532.25742704
  Ewald energy   TEWEN  =     -8601.05107233
  -Hartree energ DENC   =     -1357.56618331
  -exchange      EXHF   =         0.00000000
  -V(xc)+E(xc)   XCENC  =      -677.11989964
  PAW double counting   =     13551.14510202   -12715.80585617
  entropy T*S    EENTRO =         0.03075848
  eigenvalues    EBANDS =       595.73707638
  atomic energy  EATOM  =      8465.11600846
  ---------------------------------------------------
  free energy    TOTEN  =      -207.25178253 eV

  energy without entropy =     -207.28254102  energy(sigma->0) =     -207.26203536


--------------------------------------------------------------------------------------------------------




--------------------------------------- Iteration      1(  11)  ---------------------------------------


    POTLOK:  cpu time    0.2468: real time    0.2468
    SETDIJ:  cpu time    0.3204: real time    0.3204
    TRIAL :  cpu time    9.8106: real time    9.8447
    CORREC:  cpu time    3.5814: real time    3.6053
    CHARGE:  cpu time    1.1109: real time    1.1112
    --------------------------------------------
      LOOP:  cpu time   15.0719: real time   15.1307

 eigenvalue-minimisations  :     0
 total energy-change (2. order) :-0.1118122E+02  (-0.8718773E+01)
 number of electron     179.9999996 magnetization      13.3234435
 augmentation part       59.1355478 magnetization       9.1857212

 Free energy of the ion-electron system (eV)
  ---------------------------------------------------
  alpha Z        PSCENC =       532.25742704
  Ewald energy   TEWEN  =     -8601.05107233
  -Hartree energ DENC   =     -1555.13041687
  -exchange      EXHF   =         0.00000000
  -V(xc)+E(xc)   XCENC  =      -670.02386077
  PAW double counting   =     14380.20069702   -13581.51192688
  entropy T*S    EENTRO =         0.02484736
  eigenvalues    EBANDS =       811.67938775
  atomic energy  EATOM  =      8465.11600846
  ---------------------------------------------------
  free energy    TOTEN  =      -218.43299809 eV

  energy without entropy =     -218.45784545  energy(sigma->0) =     -218.44128055


--------------------------------------------------------------------------------------------------------




--------------------------------------- Iteration      1(  12)  ---------------------------------------


    POTLOK:  cpu time    0.2668: real time    0.2667
    SETDIJ:  cpu time    0.3184: real time    0.3187
    TRIAL :  cpu time    9.8702: real time   10.0037
    CORREC:  cpu time    4.4526: real time    4.4720
    CHARGE:  cpu time    1.1119: real time    1.1119
    --------------------------------------------
      LOOP:  cpu time   16.0237: real time   16.1771

 eigenvalue-minimisations  :     0
 total energy-change (2. order) :-0.8733186E+01  (-0.6555391E+01)
 number of electron     179.9999997 magnetization      13.0970412
 augmentation part       58.3199054 magnetization       9.1663808

 Free energy of the ion-electron system (eV)
  ---------------------------------------------------
  alpha Z        PSCENC =       532.25742704
  Ewald energy   TEWEN  =     -8601.05107233
  -Hartree energ DENC   =     -1698.91211785
  -exchange      EXHF   =         0.00000000
  -V(xc)+E(xc)   XCENC  =      -665.18013312
  PAW double counting   =     14438.40361364   -13643.01255247
  entropy T*S    EENTRO =         0.02406805
  eigenvalues    EBANDS =       945.18779500
  atomic energy  EATOM  =      8465.11600846
  ---------------------------------------------------
  free energy    TOTEN  =      -227.16618427 eV

  energy without entropy =     -227.19025232  energy(sigma->0) =     -227.17420696


--------------------------------------------------------------------------------------------------------




--------------------------------------- Iteration      1(  13)  ---------------------------------------


    POTLOK:  cpu time    0.2680: real time    0.2681
    SETDIJ:  cpu time    0.3213: real time    0.3214
    TRIAL :  cpu time   10.5021: real time   10.5933
    CORREC:  cpu time    3.5750: real time    3.5796
    CHARGE:  cpu time    1.1086: real time    1.1090
    --------------------------------------------
      LOOP:  cpu time   15.7777: real time   15.8742

 eigenvalue-minimisations  :     0
 total energy-change (2. order) :-0.6397600E+01  (-0.1011462E+01)
 number of electron     179.9999997 magnetization      13.0492050
 augmentation part       57.4315611 magnetization       9.0673771

 Free energy of the ion-electron system (eV)
  ---------------------------------------------------
  alpha Z        PSCENC =       532.25742704
  Ewald energy   TEWEN  =     -8601.05107233
  -Hartree energ DENC   =     -1706.85163555
  -exchange      EXHF   =         0.00000000
  -V(xc)+E(xc)   XCENC  =      -665.28433656
  PAW double counting   =     14171.93597281   -13352.23355025
  entropy T*S    EENTRO =         0.02358013
  eigenvalues    EBANDS =       922.52333431
  atomic energy  EATOM  =      8465.11600846
  ---------------------------------------------------
  free energy    TOTEN  =      -233.56378402 eV

  energy without entropy =     -233.58736415  energy(sigma->0) =     -233.57164406


--------------------------------------------------------------------------------------------------------




--------------------------------------- Iteration      1(  14)  ---------------------------------------


    POTLOK:  cpu time    0.2482: real time    0.2485
    SETDIJ:  cpu time    0.3407: real time    0.3409
    TRIAL :  cpu time    9.8868: real time   10.6900
    CORREC:  cpu time    3.6356: real time    3.6386
    CHARGE:  cpu time    1.1080: real time    1.1087
    --------------------------------------------
      LOOP:  cpu time   15.2258: real time   16.0338

 eigenvalue-minimisations  :     0
 total energy-change (2. order) :-0.1001938E+01  (-0.7015131E+00)
 number of electron     179.9999997 magnetization      12.9518607
 augmentation part       57.2754387 magnetization       8.9399050

 Free energy of the ion-electron system (eV)
  ---------------------------------------------------
  alpha Z        PSCENC =       532.25742704
  Ewald energy   TEWEN  =     -8601.05107233
  -Hartree energ DENC   =     -1661.82640284
  -exchange      EXHF   =         0.00000000
  -V(xc)+E(xc)   XCENC  =      -666.92351869
  PAW double counting   =     13869.55880425   -13036.48787208
  entropy T*S    EENTRO =         0.02235132
  eigenvalues    EBANDS =       864.76732453
  atomic energy  EATOM  =      8465.11600846
  ---------------------------------------------------
  free energy    TOTEN  =      -234.56572153 eV

  energy without entropy =     -234.58807286  energy(sigma->0) =     -234.57317197


--------------------------------------------------------------------------------------------------------




--------------------------------------- Iteration      1(  15)  ---------------------------------------


    POTLOK:  cpu time    0.2474: real time    0.2477
    SETDIJ:  cpu time    0.3163: real time    0.3162
    TRIAL :  cpu time    9.8893: real time    9.9423
    CORREC:  cpu time    3.6340: real time    3.6355
    CHARGE:  cpu time    1.1274: real time    1.1276
    --------------------------------------------
      LOOP:  cpu time   15.2279: real time   15.2835

 eigenvalue-minimisations  :     0
 total energy-change (2. order) :-0.6992447E+00  (-0.5420408E+00)
 number of electron     179.9999996 magnetization      12.9046145
 augmentation part       57.7056131 magnetization       8.8994942

 Free energy of the ion-electron system (eV)
  ---------------------------------------------------
  alpha Z        PSCENC =       532.25742704
  Ewald energy   TEWEN  =     -8601.05107233
  -Hartree energ DENC   =     -1644.35612823
  -exchange      EXHF   =         0.00000000
  -V(xc)+E(xc)   XCENC  =      -667.41986668
  PAW double counting   =     13412.53227933   -12574.93701199
  entropy T*S    EENTRO =         0.01977458
  eigenvalues    EBANDS =       842.57104683
  atomic energy  EATOM  =      8465.11600846
  ---------------------------------------------------
  free energy    TOTEN  =      -235.26496625 eV

  energy without entropy =     -235.28474083  energy(sigma->0) =     -235.27155778


--------------------------------------------------------------------------------------------------------




--------------------------------------- Iteration      1(  16)  ---------------------------------------


    POTLOK:  cpu time    0.2426: real time    0.3072
    SETDIJ:  cpu time    0.3184: real time    0.3184
    TRIAL :  cpu time   10.5754: real time   10.6574
    CORREC:  cpu time    3.5522: real time    3.5539
    CHARGE:  cpu time    1.1229: real time    1.1231
    --------------------------------------------
      LOOP:  cpu time   15.8148: real time   15.9641

 eigenvalue-minimisations  :     0
 total energy-change (2. order) :-0.5416876E+00  (-0.1674602E+00)
 number of electron     179.9999996 magnetization      12.7874127
 augmentation part       58.0813861 magnetization       8.8841613

 Free energy of the ion-electron system (eV)
  ---------------------------------------------------
  alpha Z        PSCENC =       532.25742704
  Ewald energy   TEWEN  =     -8601.05107233
  -Hartree energ DENC   =     -1656.85928091
  -exchange      EXHF   =         0.00000000
  -V(xc)+E(xc)   XCENC  =      -666.80009907
  PAW double counting   =     13094.75194982   -12259.91526859
  entropy T*S    EENTRO =         0.01895519
  eigenvalues    EBANDS =       856.67390716
  atomic energy  EATOM  =      8465.11600846
  ---------------------------------------------------
  free energy    TOTEN  =      -235.80665384 eV

  energy without entropy =     -235.82560903  energy(sigma->0) =     -235.81297224


--------------------------------------------------------------------------------------------------------




--------------------------------------- Iteration      1(  17)  ---------------------------------------


    POTLOK:  cpu time    0.2477: real time    0.2476
    SETDIJ:  cpu time    0.3206: real time    0.3206
    TRIAL :  cpu time   10.3480: real time   10.4115
    CORREC:  cpu time    3.5502: real time    3.5516
    CHARGE:  cpu time    1.1131: real time    1.1139
    --------------------------------------------
      LOOP:  cpu time   15.5832: real time   15.6499

 eigenvalue-minimisations  :     0
 total energy-change (2. order) :-0.1672356E+00  (-0.1513637E+00)
 number of electron     179.9999996 magnetization      12.7436936
 augmentation part       58.2451367 magnetization       8.9098148

 Free energy of the ion-electron system (eV)
  ---------------------------------------------------
  alpha Z        PSCENC =       532.25742704
  Ewald energy   TEWEN  =     -8601.05107233
  -Hartree energ DENC   =     -1673.10798636
  -exchange      EXHF   =         0.00000000
  -V(xc)+E(xc)   XCENC  =      -666.08326087
  PAW double counting   =     13031.24005917   -12200.28020090
  entropy T*S    EENTRO =         0.01700000
  eigenvalues    EBANDS =       875.91618119
  atomic energy  EATOM  =      8465.11600846
  ---------------------------------------------------
  free energy    TOTEN  =      -235.97388941 eV

  energy without entropy =     -235.99088942  energy(sigma->0) =     -235.97955608


--------------------------------------------------------------------------------------------------------




--------------------------------------- Iteration      1(  18)  ---------------------------------------


    POTLOK:  cpu time    0.2473: real time    0.2473
    SETDIJ:  cpu time    0.3382: real time    0.3382
    TRIAL :  cpu time    9.8079: real time   10.8905
    CORREC:  cpu time    3.5773: real time    3.6009
    CHARGE:  cpu time    1.1457: real time    1.1548
    --------------------------------------------
      LOOP:  cpu time   15.1192: real time   16.2350

 eigenvalue-minimisations  :     0
 total energy-change (2. order) :-0.1512682E+00  (-0.1111270E+00)
 number of electron     179.9999996 magnetization      12.6362177
 augmentation part       58.0815037 magnetization       8.8959259

 Free energy of the ion-electron system (eV)
  ---------------------------------------------------
  alpha Z        PSCENC =       532.25742704
  Ewald energy   TEWEN  =     -8601.05107233
  -Hartree energ DENC   =     -1678.96058592
  -exchange      EXHF   =         0.00000000
  -V(xc)+E(xc)   XCENC  =      -665.66134740
  PAW double counting   =     12997.99372022   -12168.98498722
  entropy T*S    EENTRO =         0.01603219
  eigenvalues    EBANDS =       883.14867958
  atomic energy  EATOM  =      8465.11600846
  ---------------------------------------------------
  free energy    TOTEN  =      -236.12515756 eV

  energy without entropy =     -236.14118976  energy(sigma->0) =     -236.13050163


--------------------------------------------------------------------------------------------------------




--------------------------------------- Iteration      1(  19)  ---------------------------------------


    POTLOK:  cpu time    0.2478: real time    0.2478
    SETDIJ:  cpu time    0.3399: real time    0.3408
    TRIAL :  cpu time    9.8990: real time    9.9235
    CORREC:  cpu time    3.5510: real time    3.6237
    CHARGE:  cpu time    1.1271: real time    1.1272
    --------------------------------------------
      LOOP:  cpu time   15.1689: real time   15.2695

 eigenvalue-minimisations  :     0
 total energy-change (2. order) :-0.1106436E+00  (-0.3787998E-01)
 number of electron     179.9999996 magnetization      12.6064103
 augmentation part       57.9254659 magnetization       8.8964347

 Free energy of the ion-electron system (eV)
  ---------------------------------------------------
  alpha Z        PSCENC =       532.25742704
  Ewald energy   TEWEN  =     -8601.05107233
  -Hartree energ DENC   =     -1669.09582343
  -exchange      EXHF   =         0.00000000
  -V(xc)+E(xc)   XCENC  =      -665.83225073
  PAW double counting   =     12975.10650505   -12144.53211534
  entropy T*S    EENTRO =         0.01472223
  eigenvalues    EBANDS =       871.77948790
  atomic energy  EATOM  =      8465.11600846
  ---------------------------------------------------
  free energy    TOTEN  =      -236.23580119 eV

  energy without entropy =     -236.25052342  energy(sigma->0) =     -236.24070860


--------------------------------------------------------------------------------------------------------




--------------------------------------- Iteration      1(  20)  ---------------------------------------


    POTLOK:  cpu time    0.2467: real time    0.2605
    SETDIJ:  cpu time    0.2864: real time    0.3596
    TRIAL :  cpu time   10.4682: real time   10.4829
    CORREC:  cpu time    3.5822: real time    3.6034
    CHARGE:  cpu time    1.1183: real time    1.1379
    --------------------------------------------
      LOOP:  cpu time   15.7058: real time   15.8494

 eigenvalue-minimisations  :     0
 total energy-change (2. order) :-0.3778325E-01  (-0.4401543E-01)
 number of electron     179.9999996 magnetization      12.5370808
 augmentation part       57.8369222 magnetization       8.8850595

 Free energy of the ion-electron system (eV)
  ---------------------------------------------------
  alpha Z        PSCENC =       532.25742704
  Ewald energy   TEWEN  =     -8601.05107233
  -Hartree energ DENC   =     -1661.44771100
  -exchange      EXHF   =         0.00000000
  -V(xc)+E(xc)   XCENC  =      -666.03221674
  PAW double counting   =     12967.33202132   -12135.21781823
  entropy T*S    EENTRO =         0.01376305
  eigenvalues    EBANDS =       862.75505482
  atomic energy  EATOM  =      8465.11600846
  ---------------------------------------------------
  free energy    TOTEN  =      -236.27358444 eV

  energy without entropy =     -236.28734749  energy(sigma->0) =     -236.27817212


--------------------------------------------------------------------------------------------------------




--------------------------------------- Iteration      1(  21)  ---------------------------------------


    POTLOK:  cpu time    0.2481: real time    0.2482
    SETDIJ:  cpu time    0.3182: real time    0.3182
    TRIAL :  cpu time   10.3376: real time   10.3749
    CORREC:  cpu time    3.5585: real time    3.5602
    CHARGE:  cpu time    1.1385: real time    1.1633
    --------------------------------------------
      LOOP:  cpu time   15.6031: real time   15.6671

 eigenvalue-minimisations  :     0
 total energy-change (2. order) :-0.4402596E-01  (-0.2971055E-01)
 number of electron     179.9999996 magnetization      12.5048766
 augmentation part       57.8973382 magnetization       8.8833080

 Free energy of the ion-electron system (eV)
  ---------------------------------------------------
  alpha Z        PSCENC =       532.25742704
  Ewald energy   TEWEN  =     -8601.05107233
  -Hartree energ DENC   =     -1658.90059919
  -exchange      EXHF   =         0.00000000
  -V(xc)+E(xc)   XCENC  =      -666.01737684
  PAW double counting   =     12973.65424202   -12140.94857242
  entropy T*S    EENTRO =         0.01257095
  eigenvalues    EBANDS =       859.55856983
  atomic energy  EATOM  =      8465.11600846
  ---------------------------------------------------
  free energy    TOTEN  =      -236.31761039 eV

  energy without entropy =     -236.33018134  energy(sigma->0) =     -236.32180071


--------------------------------------------------------------------------------------------------------




--------------------------------------- Iteration      1(  22)  ---------------------------------------


    POTLOK:  cpu time    0.2552: real time    0.2552
    SETDIJ:  cpu time    0.3075: real time    0.3498
    TRIAL :  cpu time    9.7940: real time   10.5357
    CORREC:  cpu time    3.5776: real time    3.6215
    CHARGE:  cpu time    1.1148: real time    1.1150
    --------------------------------------------
      LOOP:  cpu time   15.0508: real time   15.8798

 eigenvalue-minimisations  :     0
 total energy-change (2. order) :-0.2969288E-01  (-0.1289541E-01)
 number of electron     179.9999996 magnetization      12.4610502
 augmentation part       57.9699689 magnetization       8.8651862

 Free energy of the ion-electron system (eV)
  ---------------------------------------------------
  alpha Z        PSCENC =       532.25742704
  Ewald energy   TEWEN  =     -8601.05107233
  -Hartree energ DENC   =     -1663.84047951
  -exchange      EXHF   =         0.00000000
  -V(xc)+E(xc)   XCENC  =      -665.76512557
  PAW double counting   =     12990.52555376   -12158.78073177
  entropy T*S    EENTRO =         0.01194932
  eigenvalues    EBANDS =       865.17854570
  atomic energy  EATOM  =      8465.11600846
  ---------------------------------------------------
  free energy    TOTEN  =      -236.34730328 eV

  energy without entropy =     -236.35925260  energy(sigma->0) =     -236.35128638


--------------------------------------------------------------------------------------------------------




--------------------------------------- Iteration      1(  23)  ---------------------------------------


    POTLOK:  cpu time    0.2482: real time    0.2483
    SETDIJ:  cpu time    0.3512: real time    0.3512
    TRIAL :  cpu time    9.8492: real time    9.9322
    CORREC:  cpu time    3.5293: real time    3.5909
    CHARGE:  cpu time    1.1306: real time    1.1311
    --------------------------------------------
[...]
  8.439  14.382   0.000  -0.000  -0.000   0.000  -0.000  -0.000
 14.382  24.509   0.000  -0.000  -0.000   0.001  -0.000  -0.001
  0.000   0.000   1.996  -0.000   0.000   5.749  -0.000   0.000
 -0.000  -0.000  -0.000   1.996  -0.000  -0.000   5.748  -0.000
 -0.000  -0.000   0.000  -0.000   1.996   0.000  -0.000   5.749
  0.000   0.001   5.749  -0.000   0.000  16.476  -0.000   0.000
 -0.000  -0.000  -0.000   5.748  -0.000  -0.000  16.472  -0.000
 -0.000  -0.001   0.000  -0.000   5.749   0.000  -0.000  16.476
 total augmentation occupancy for first ion, spin component:           1
  4.362  -1.244  -0.000   0.002   0.001   0.000  -0.000   0.000
 -1.244   0.374   0.001   0.001   0.001  -0.000  -0.000   0.000
 -0.000   0.001   1.397   0.002   0.009  -0.100  -0.000  -0.000
  0.002   0.001   0.002   1.502  -0.001  -0.000  -0.101   0.000
  0.001   0.001   0.009  -0.001   1.415  -0.000   0.000  -0.101
  0.000  -0.000  -0.100  -0.000  -0.000   0.007   0.000   0.000
 -0.000  -0.000  -0.000  -0.101   0.000   0.000   0.007  -0.000
  0.000   0.000  -0.000   0.000  -0.101   0.000  -0.000   0.008
 total augmentation occupancy for first ion, spin component:           2
 -0.128   0.041  -0.037   0.001   0.035   0.001   0.000  -0.001
  0.041  -0.013  -0.004   0.002   0.003   0.000  -0.000  -0.000
 -0.037  -0.004  -0.030  -0.001  -0.031   0.002   0.000   0.000
  0.001   0.002  -0.001  -0.094  -0.002   0.000   0.004   0.000
  0.035   0.003  -0.031  -0.002  -0.058   0.000   0.000   0.003
  0.001   0.000   0.002   0.000   0.000  -0.000  -0.000   0.000
  0.000  -0.000   0.000   0.004   0.000  -0.000  -0.000  -0.000
 -0.001  -0.000   0.000   0.000   0.003   0.000  -0.000  -0.000


------------------------ aborting loop because EDIFF is reached ----------------------------------------


 


 total charge     
 
# of ion       s       p       d       tot
------------------------------------------
    1        0.405   0.426   0.000   0.831
    2        0.405   0.426   0.000   0.831
    3        0.405   0.427   0.000   0.832
    4        0.405   0.427   0.000   0.832
    5        0.405   0.430   0.000   0.835
    6        0.405   0.429   0.000   0.834
    7        0.404   0.428   0.000   0.831
    8        0.404   0.427   0.000   0.831
    9        0.406   0.427   0.000   0.833
   10        0.406   0.427   0.000   0.833
   11        0.406   0.430   0.000   0.835
   12        0.406   0.429   0.000   0.835
   13        0.405   0.422   0.000   0.827
   14        0.406   0.422   0.000   0.827
   15        0.405   0.427   0.000   0.832
   16        0.405   0.427   0.000   0.832
   17        0.405   0.426   0.000   0.831
   18        0.405   0.425   0.000   0.831
   19        0.334   0.354   5.135   5.823
   20        0.334   0.352   5.141   5.826
   21        0.333   0.355   5.127   5.815
   22        0.329   0.358   5.141   5.829
   23        0.340   0.351   5.123   5.814
   24        0.338   0.363   5.105   5.806
   25        0.331   0.350   5.148   5.829
   26        0.335   0.354   5.132   5.821
   27        0.330   0.356   5.140   5.826
   28        0.334   0.355   5.130   5.820
   29        0.333   0.351   5.144   5.827
   30        0.337   0.357   5.122   5.815
   31        0.334   0.352   5.139   5.826
   32        0.334   0.352   5.139   5.826
   33        0.339   0.354   5.119   5.811
   34        0.338   0.357   5.116   5.812
   35        0.335   0.353   5.134   5.822
   36        0.336   0.354   5.130   5.820
--------------------------------------------------
tot         13.315  14.061  92.366 119.742
 


 magnetization (x)
 
# of ion       s       p       d       tot
------------------------------------------
    1       -0.010  -0.019   0.000  -0.029
    2       -0.010  -0.019   0.000  -0.029
    3       -0.005  -0.009   0.000  -0.013
    4       -0.005  -0.008   0.000  -0.013
    5        0.002   0.009   0.000   0.011
    6        0.002   0.009   0.000   0.011
    7       -0.011  -0.020   0.000  -0.031
    8       -0.011  -0.020   0.000  -0.032
    9       -0.008  -0.017   0.000  -0.025
   10       -0.009  -0.017   0.000  -0.025
   11       -0.001  -0.001   0.000  -0.002
   12       -0.001  -0.000   0.000  -0.002
   13       -0.018  -0.032   0.000  -0.049
   14       -0.018  -0.032   0.000  -0.049
   15       -0.007  -0.011   0.000  -0.018
   16       -0.007  -0.010   0.000  -0.018
   17       -0.004  -0.008   0.000  -0.012
   18       -0.004  -0.008   0.000  -0.012
   19        0.027   0.026   2.251   2.304
   20        0.021   0.008   2.318   2.346
   21       -0.009  -0.025  -2.323  -2.357
   22        0.031   0.033   2.024   2.089
   23       -0.037  -0.012  -2.587  -2.635
   24       -0.042  -0.031  -2.522  -2.595
   25        0.006   0.003   2.198   2.208
   26        0.015   0.026   2.281   2.322
   27        0.020   0.031   2.065   2.116
   28       -0.022  -0.031  -2.289  -2.342
   29        0.020   0.007   2.271   2.299
   30        0.028   0.026   2.408   2.462
   31        0.017   0.015   2.265   2.297
   32        0.017   0.016   2.265   2.299
   33       -0.033  -0.018  -2.549  -2.601
   34       -0.032  -0.018  -2.525  -2.576
   35        0.032   0.019   2.382   2.433
   36        0.031   0.018   2.384   2.433
--------------------------------------------------
tot         -0.034  -0.120  12.319  12.164
 
    FORLOC:  cpu time    0.0293: real time    0.0293
    FORNL :  cpu time   13.6749: real time   13.8139
    STRESS:  cpu time   19.6713: real time   19.7426
    FORCOR:  cpu time    0.2909: real time    0.2910
    OFIELD:  cpu time    0.0013: real time    0.0013

  FORCE on cell =-STRESS in cart. coord.  units (eV):
  Direction    XX          YY          ZZ          XY          YZ          ZX
  --------------------------------------------------------------------------------------
  Alpha Z   532.25743   532.25743   532.25743
  Ewald   -2702.40749 -2702.40749 -3196.26924    -0.00000    -0.00000    -0.00000
  Hartree   720.76563   719.55093   226.58232    -0.14483    -0.00000    -0.00000
  E(xc)    -760.60449  -760.28722  -760.77689     0.06284    -0.00000     0.00000
  Local     248.87722   253.05173  1259.69740     0.47983    -0.00000    -0.00000
  n-local  -110.65495  -109.81126  -119.35492    -0.21297    -0.03175    -0.14542
  augment   521.68499   520.30511   515.58620    -0.10405     0.00001     0.00001
  Kinetic  1555.52781  1553.10489  1544.44066    -0.79647     0.55640     0.07814
  Fock        0.00000     0.00000     0.00000     0.00000     0.00000     0.00000
  -------------------------------------------------------------------------------------
  Total       5.44615     5.76411     2.16296    -0.71565     0.00000     0.00000
  in kB      18.43688    19.51328     7.32227    -2.42270     0.00000     0.00000
  external pressure =       15.09 kB  Pullay stress =        0.00 kB


 VOLUME and BASIS-vectors are now :
 -----------------------------------------------------------------------------
  energy-cutoff  :      404.80
  volume of cell :      473.27
      direct lattice vectors                 reciprocal lattice vectors
     8.250148166  0.000000000  0.000000000     0.121209944  0.000000000  0.000000000
     0.000000000  8.250148166  0.000000000     0.000000000  0.121209944  0.000000000
     0.000000000  0.000000000  6.953274261     0.000000000  0.000000000  0.143817137

  length of vectors
     8.250148166  8.250148166  6.953274261     0.121209944  0.121209944  0.143817137


 FORCES acting on ions:
    Electron-Ion                     Ewald-Force                    Non-Local-Force
 -----------------------------------------------------------------------------------------------
   -.208E-01 0.285E-01 0.332E-01   -.239E-08 -.239E-08 0.411E-08   -.348E-01 0.160E-01 -.475E-01
   -.208E-01 0.285E-01 -.332E-01   -.239E-08 -.239E-08 0.411E-08   -.348E-01 0.160E-01 0.475E-01
   0.525E-01 -.331E-01 -.141E-01   -.239E-08 -.802E-09 0.411E-08   0.528E-02 0.247E-01 -.283E-01
   0.525E-01 -.331E-01 0.141E-01   -.239E-08 -.802E-09 0.411E-08   0.528E-02 0.247E-01 0.283E-01
   -.575E-01 0.237E-01 0.766E-01   -.239E-08 0.631E-08 0.411E-08   0.927E-01 -.635E-01 -.231E-01
   -.575E-01 0.237E-01 -.766E-01   -.239E-08 0.631E-08 0.411E-08   0.927E-01 -.635E-01 0.231E-01
   0.162E-01 0.280E-01 0.287E-02   -.802E-09 -.239E-08 0.411E-08   0.683E-01 0.518E-01 -.239E-02
   0.162E-01 0.280E-01 -.287E-02   -.802E-09 -.239E-08 0.411E-08   0.683E-01 0.518E-01 0.239E-02
   -.286E-01 -.154E+00 0.122E-01   -.802E-09 -.802E-09 0.411E-08   0.477E-02 0.928E-02 -.200E-01
   -.286E-01 -.154E+00 -.122E-01   -.802E-09 -.802E-09 0.411E-08   0.477E-02 0.928E-02 0.200E-01
   0.585E-01 0.819E-01 0.159E+00   -.802E-09 0.631E-08 0.411E-08   -.742E-01 -.118E-01 -.462E-01
   0.585E-01 0.819E-01 -.159E+00   -.802E-09 0.631E-08 0.411E-08   -.742E-01 -.118E-01 0.462E-01
   -.278E-01 0.188E-01 -.210E-01   0.631E-08 -.239E-08 0.411E-08   0.167E-01 -.311E-01 0.344E-01
   -.278E-01 0.188E-01 0.210E-01   0.631E-08 -.239E-08 0.411E-08   0.167E-01 -.311E-01 -.344E-01
   -.461E-01 -.790E-01 -.598E-02   0.631E-08 -.802E-09 0.411E-08   -.203E-02 0.524E-02 0.406E-01
   -.461E-01 -.790E-01 0.598E-02   0.631E-08 -.802E-09 0.411E-08   -.203E-02 0.524E-02 -.406E-01
   -.280E-01 0.472E-01 -.132E-01   0.631E-08 0.631E-08 0.411E-08   0.172E-01 -.302E-01 0.635E-02
   -.280E-01 0.472E-01 0.132E-01   0.631E-08 0.631E-08 0.411E-08   0.172E-01 -.302E-01 -.635E-02
   0.613E-01 -.208E+00 0.192E-08   -.169E-07 -.169E-07 -.411E-08   -.454E-01 0.350E-01 0.000E+00
   -.595E-01 0.410E+00 -.407E-08   -.169E-07 -.169E-07 -.411E-08   0.899E-01 -.440E+00 0.000E+00
   -.606E+00 0.375E+00 -.144E-08   -.169E-07 0.802E-09 -.411E-08   0.371E+00 -.200E+00 0.000E+00
   -.247E+00 -.248E+00 -.240E-08   -.169E-07 0.802E-09 -.411E-08   0.192E+00 0.705E-02 0.000E+00
   0.188E-01 -.611E+00 0.211E-08   -.169E-07 0.130E-07 -.411E-08   -.251E-01 0.418E+00 0.000E+00
   -.133E+00 -.887E-01 -.326E-08   -.169E-07 0.130E-07 -.411E-08   0.167E+00 -.634E-02 0.000E+00
   -.967E-01 0.863E-01 -.184E-08   0.802E-09 -.169E-07 -.411E-08   0.117E+00 -.209E-01 0.000E+00
   -.195E+00 -.463E+00 -.307E-08   0.802E-09 -.169E-07 -.411E-08   0.199E+00 0.301E+00 0.000E+00
   0.248E+00 -.310E-01 -.501E-08   0.802E-09 0.802E-09 -.411E-08   -.911E-01 0.376E-01 0.000E+00
   0.482E+00 0.214E+00 -.144E-08   0.802E-09 0.802E-09 -.411E-08   -.236E+00 -.232E+00 0.000E+00
   0.284E+00 -.378E-01 -.165E-08   0.802E-09 0.130E-07 -.411E-08   -.193E+00 0.495E-01 0.000E+00
   0.371E+00 0.459E+00 -.243E-08   0.802E-09 0.130E-07 -.411E-08   -.235E+00 -.151E+00 0.000E+00
   0.634E-01 -.321E+00 -.329E-08   0.130E-07 -.169E-07 -.411E-08   -.119E+00 0.297E+00 0.000E+00
   0.238E+00 -.277E+00 -.277E-08   0.130E-07 -.169E-07 -.411E-08   -.256E+00 0.249E+00 0.000E+00
   0.713E+00 0.123E+00 -.630E-08   0.130E-07 0.802E-09 -.411E-08   -.391E+00 -.123E+00 0.000E+00
   -.368E+00 0.200E+00 -.945E-09   0.130E-07 0.802E-09 -.411E-08   0.105E+00 -.180E+00 0.000E+00
   -.352E+00 0.390E+00 -.310E-08   0.130E-07 0.130E-07 -.411E-08   0.900E-01 -.121E+00 0.000E+00
   -.330E+00 0.306E+00 -.211E-08   0.130E-07 0.130E-07 -.411E-08   0.159E+00 -.769E-01 0.000E+00
 -----------------------------------------------------------------------------------------------
   -.849E-01 0.214E+00 -.772E-07   -.197E-14 0.275E-13 0.265E-14   0.849E-01 -.214E+00 0.000E+00
 
 
 POSITION                                       TOTAL-FORCE (eV/Angst)
 -----------------------------------------------------------------------------------
      0.00000      0.00000      0.00000        -0.052528      0.042535     -0.010375
      0.00000      0.00000      3.47664        -0.052528      0.042535      0.010375
      0.00000      2.75005      0.00000         0.057914     -0.009366     -0.039752
      0.00000      2.75005      3.47664         0.057914     -0.009366      0.039752
      0.00000      5.50010      0.00000         0.027877     -0.035167      0.054850
      0.00000      5.50010      3.47664         0.027877     -0.035167     -0.054850
      2.75005      0.00000      0.00000         0.078862      0.074921      0.000079
      2.75005      0.00000      3.47664         0.078862      0.074921     -0.000079
      2.75005      2.75005      0.00000        -0.024499     -0.144078     -0.006026
      2.75005      2.75005      3.47664        -0.024499     -0.144078      0.006026
      2.75005      5.50010      0.00000        -0.009359      0.070146      0.116015
      2.75005      5.50010      3.47664        -0.009359      0.070146     -0.116015
      5.50010      0.00000      0.00000        -0.012606     -0.009736      0.009872
      5.50010      0.00000      3.47664        -0.012606     -0.009736     -0.009872
      5.50010      2.75005      0.00000        -0.048483     -0.073921      0.030649
      5.50010      2.75005      3.47664        -0.048483     -0.073921     -0.030649
      5.50010      5.50010      0.00000        -0.012687      0.018471     -0.007901
      5.50010      5.50010      3.47664        -0.012687      0.018471      0.007901
      1.37502      1.37502      1.73832         0.017463     -0.180103      0.000000
      1.37502      1.37502      5.21496         0.029802     -0.029299      0.000000
      1.37502      4.12507      1.73832        -0.245434      0.176687      0.000000
      1.37502      4.12507      5.21496        -0.060157     -0.236148      0.000000
      1.37502      6.87512      1.73832        -0.007305     -0.209604      0.000000
      1.37502      6.87512      5.21496         0.030769     -0.096004      0.000000
      4.12507      1.37502      1.73832         0.019263      0.064332      0.000000
      4.12507      1.37502      5.21496         0.002947     -0.171735      0.000000
      4.12507      4.12507      1.73832         0.165995      0.002981      0.000000
      4.12507      4.12507      5.21496         0.254847     -0.011630      0.000000
      4.12507      6.87512      1.73832         0.093118      0.015419      0.000000
      4.12507      6.87512      5.21496         0.139168      0.320674      0.000000
      6.87512      1.37502      1.73832        -0.055098     -0.025997      0.000000
      6.87512      1.37502      5.21496        -0.016706     -0.031538      0.000000
      6.87512      4.12507      1.73832         0.340557      0.004608      0.000000
      6.87512      4.12507      5.21496        -0.274540      0.026997      0.000000
      6.87512      6.87512      1.73832        -0.266499      0.277001      0.000000
      6.87512      6.87512      5.21496        -0.177172      0.235750      0.000000
 -----------------------------------------------------------------------------------
    total drift:                               -0.000011      0.000014     -0.000000


--------------------------------------------------------------------------------------------------------



  FREE ENERGIE OF THE ION-ELECTRON SYSTEM (eV)
  ---------------------------------------------------
  free  energy   TOTEN  =      -236.40190646 eV

  energy  without entropy=     -236.41320951  energy(sigma->0) =     -236.40567414
 


--------------------------------------------------------------------------------------------------------


    POTLOK:  cpu time    0.6047: real time    0.6048


--------------------------------------------------------------------------------------------------------


     LOOP+:  cpu time 1119.5824: real time 1144.0843
    4ORBIT:  cpu time    0.0000: real time    0.0000
 


 total charge     
 
# of ion       s       p       d       tot
------------------------------------------
    1        0.405   0.426   0.000   0.831
    2        0.405   0.426   0.000   0.831
    3        0.405   0.427   0.000   0.832
    4        0.405   0.427   0.000   0.832
    5        0.405   0.430   0.000   0.835
    6        0.405   0.429   0.000   0.834
    7        0.404   0.428   0.000   0.831
    8        0.404   0.427   0.000   0.831
    9        0.406   0.427   0.000   0.833
   10        0.406   0.427   0.000   0.833
   11        0.406   0.430   0.000   0.835
   12        0.406   0.429   0.000   0.835
   13        0.405   0.422   0.000   0.827
   14        0.406   0.422   0.000   0.827
   15        0.405   0.427   0.000   0.832
   16        0.405   0.427   0.000   0.832
   17        0.405   0.426   0.000   0.831
   18        0.405   0.425   0.000   0.831
   19        0.334   0.354   5.135   5.823
   20        0.334   0.352   5.141   5.826
   21        0.333   0.355   5.127   5.815
   22        0.329   0.358   5.141   5.829
   23        0.340   0.351   5.123   5.814
   24        0.338   0.363   5.105   5.806
   25        0.331   0.350   5.148   5.829
   26        0.335   0.354   5.132   5.821
   27        0.330   0.356   5.140   5.826
   28        0.334   0.355   5.130   5.820
   29        0.333   0.351   5.144   5.827
   30        0.337   0.357   5.122   5.815
   31        0.334   0.352   5.139   5.826
   32        0.334   0.352   5.139   5.826
   33        0.339   0.354   5.119   5.811
   34        0.338   0.357   5.116   5.812
   35        0.335   0.353   5.134   5.822
   36        0.336   0.354   5.130   5.820
--------------------------------------------------
tot         13.315  14.061  92.366 119.742
 


 magnetization (x)
 
# of ion       s       p       d       tot
------------------------------------------
    1       -0.010  -0.019   0.000  -0.029
    2       -0.010  -0.019   0.000  -0.029
    3       -0.005  -0.009   0.000  -0.013
    4       -0.005  -0.008   0.000  -0.013
    5        0.002   0.009   0.000   0.011
    6        0.002   0.009   0.000   0.011
    7       -0.011  -0.020   0.000  -0.031
    8       -0.011  -0.020   0.000  -0.032
    9       -0.008  -0.017   0.000  -0.025
   10       -0.009  -0.017   0.000  -0.025
   11       -0.001  -0.001   0.000  -0.002
   12       -0.001  -0.000   0.000  -0.002
   13       -0.018  -0.032   0.000  -0.049
   14       -0.018  -0.032   0.000  -0.049
   15       -0.007  -0.011   0.000  -0.018
   16       -0.007  -0.010   0.000  -0.018
   17       -0.004  -0.008   0.000  -0.012
   18       -0.004  -0.008   0.000  -0.012
   19        0.027   0.026   2.251   2.304
   20        0.021   0.008   2.318   2.346
   21       -0.009  -0.025  -2.323  -2.357
   22        0.031   0.033   2.024   2.089
   23       -0.037  -0.012  -2.587  -2.635
   24       -0.042  -0.031  -2.522  -2.595
   25        0.006   0.003   2.198   2.208
   26        0.015   0.026   2.281   2.322
   27        0.020   0.031   2.065   2.116
   28       -0.022  -0.031  -2.289  -2.342
   29        0.020   0.007   2.271   2.299
   30        0.028   0.026   2.408   2.462
   31        0.017   0.015   2.265   2.297
   32        0.017   0.016   2.265   2.299
   33       -0.033  -0.018  -2.549  -2.601
   34       -0.032  -0.018  -2.525  -2.576
   35        0.032   0.019   2.382   2.433
   36        0.031   0.018   2.384   2.433
--------------------------------------------------
tot         -0.034  -0.120  12.319  12.164
 

 total amount of memory used by VASP MPI-rank0   786703. kBytes
=======================================================================

   base      :      30000. kBytes
   nonl-proj :      34307. kBytes
   fftplans  :      21726. kBytes
   grid      :      14732. kBytes
   one-center:        279. kBytes
   wavefun   :     685659. kBytes
 
  
  
 General timing and accounting informations for this job:
 ========================================================
  
                  Total CPU time used (sec):     1147.973
                            User time (sec):     1126.200
                          System time (sec):       21.773
                         Elapsed time (sec):     1175.648
  
                   Maximum memory used (kb):      929972.
                   Average memory used (kb):           0.
  
                          Minor page faults:       398127
                          Major page faults:           15
                 Voluntary context switches:         3215
