 vasp.5.4.4.18Apr17-6-g9f103f2a35 (build Dec 13 2018 10:28:32) complex          
  
 executed on             LinuxIFC date 2019.06.10  13:37:42
 running on   24 total cores
 distrk:  each k-point on    6 cores,    4 groups
 distr:  one band on NCORES_PER_BAND=   6 cores,    1 groups


--------------------------------------------------------------------------------------------------------


 INCAR:
 POTCAR:    PAW_PBE Fe 06Sep2000                  

 ----------------------------------------------------------------------------- 
|                                                                             |
|           W    W    AA    RRRRR   N    N  II  N    N   GGGG   !!!           |
|           W    W   A  A   R    R  NN   N  II  NN   N  G    G  !!!           |
|           W    W  A    A  R    R  N N  N  II  N N  N  G       !!!           |
|           W WW W  AAAAAA  RRRRR   N  N N  II  N  N N  G  GGG   !            |
|           WW  WW  A    A  R   R   N   NN  II  N   NN  G    G                |
|           W    W  A    A  R    R  N    N  II  N    N   GGGG   !!!           |
|                                                                             |
|      You have enabled k-point parallelism (KPAR>1).                         |
|      This developmental code was originally  written by Paul Kent at ORNL,  |
|      and carefully double checked in Vienna.                                |
|      GW as well as linear response parallelism added by Martijn Marsman     |
|      and Georg Kresse.                                                      |
|      Carefully verify results versus KPAR=1.                                |
|      Report problems to Paul Kent and Vienna.                               |
|                                                                             |
 ----------------------------------------------------------------------------- 

 POTCAR:    PAW_PBE Fe 06Sep2000                  
   VRHFIN =Fe:  d7 s1                                                           
   LEXCH  = PE                                                                  
   EATOM  =   594.3153 eV,   43.6809 Ry                                         
                                                                                
   TITEL  = PAW_PBE Fe 06Sep2000                                                
   LULTRA =        F    use ultrasoft PP ?                                      
   IUNSCR =        1    unscreen: 0-lin 1-nonlin 2-no                           
   RPACOR =    2.000    partial core radius                                     
   POMASS =   55.847; ZVAL   =    8.000    mass and valenz                      
   RCORE  =    2.300    outmost cutoff radius                                   
   RWIGS  =    2.460; RWIGS  =    1.302    wigner-seitz radius (au A)           
   ENMAX  =  267.882; ENMIN  =  200.911 eV                                      
   RCLOC  =    1.701    cutoff for local pot                                    
   LCOR   =        T    correct aug charges                                     
   LPAW   =        T    paw PP                                                  
   EAUG   =  511.368                                                            
   DEXC   =    0.000                                                            
   RMAX   =    2.356    core radius for proj-oper                               
   RAUG   =    1.300    factor for augmentation sphere                          
   RDEP   =    2.442    radius for radial grids                                 
   RDEPT  =    1.890    core radius for aug-charge                              
                                                                                
   Atomic configuration                                                         
    9 entries                                                                   
     n  l   j            E        occ.                                          
     1  0  0.50     -6993.8440   2.0000                                         
     2  0  0.50      -814.6047   2.0000                                         
     2  1  1.50      -693.3689   6.0000                                         
     3  0  0.50       -89.4732   2.0000                                         
     3  1  1.50       -55.6373   6.0000                                         
     3  2  2.50        -3.8151   7.0000                                         
     4  0  0.50        -4.2551   1.0000                                         
     4  1  1.50        -3.4015   0.0000                                         
     4  3  2.50        -1.3606   0.0000                                         
   Description                                                                  
     l       E           TYP  RCUT    TYP  RCUT                                 
     2     -3.8151135     23  2.300                                             
     2     -5.1756961     23  2.300                                             
     0     -4.2550963     23  2.300                                             
     0      7.2035603     23  2.300                                             
     1     -2.7211652     23  2.300                                             
     1     18.4316424     23  2.300                                             
  local pseudopotential read in
  partial core-charges read in
  partial kinetic energy density read in
  atomic valenz-charges read in
  non local Contribution for L=           2  read in
    real space projection operators read in
  non local Contribution for L=           2  read in
    real space projection operators read in
  non local Contribution for L=           0  read in
    real space projection operators read in
  non local Contribution for L=           0  read in
    real space projection operators read in
  non local Contribution for L=           1  read in
    real space projection operators read in
  non local Contribution for L=           1  read in
    real space projection operators read in
    PAW grid and wavefunctions read in
 
   number of l-projection  operators is LMAX  =           6
   number of lm-projection operators is LMMAX =          18
 
  PAW_PBE Fe 06Sep2000                  :
 energy of atom  1       EATOM= -594.3153
 kinetic energy error for atom=    0.0207 (will be added to EATOM!!)
 
 
 POSCAR: BCC IRON                                
  positions in cartesian coordinates
  velocities in cartesian coordinates
  No initial velocities read in
 exchange correlation table for  LEXCH =        8
   RHO(1)=    0.500       N(1)  =     2000
   RHO(2)=  100.500       N(2)  =     4000
 


--------------------------------------------------------------------------------------------------------


 ion  position               nearest neighbor table
   1  0.000  0.000  0.000-   2 2.45   2 2.45   2 2.45   2 2.45   2 2.45   2 2.45   2 2.45   2 2.45

   2  0.500  0.500  0.500-   1 2.45   1 2.45   1 2.45   1 2.45   1 2.45   1 2.45   1 2.45   1 2.45

 
  LATTYP: Found a simple cubic cell.
 ALAT       =     2.8290088819
  
  Lattice vectors:
  
 A1 = (   2.8290088819,   0.0000000000,   0.0000000000)
 A2 = (   0.0000000000,   2.8290088819,   0.0000000000)
 A3 = (   0.0000000000,   0.0000000000,   2.8290088819)


Analysis of symmetry for initial positions (statically):
=====================================================================
 Subroutine PRICEL returns following result:
 
  LATTYP: Found a body centered cubic cell.
 ALAT       =     2.8290088819
  
  Lattice vectors:
  
 A1 = (   1.4145044410,   1.4145044410,   1.4145044410)
 A2 = (   1.4145044410,  -1.4145044410,  -1.4145044410)
 A3 = (  -1.4145044410,   1.4145044410,  -1.4145044410)
 
   2 primitive cells build up your supercell.
 

 Routine SETGRP: Setting up the symmetry group for a 
 simple cubic supercell.


 Subroutine GETGRP returns: Found 48 space group operations
 (whereof 48 operations were pure point group operations)
 out of a pool of 48 trial point group operations.


The static configuration has the point symmetry O_h .


Analysis of symmetry for dynamics (positions and initial velocities):
=====================================================================
 Subroutine PRICEL returns following result:
 
  LATTYP: Found a body centered cubic cell.
 ALAT       =     2.8290088819
  
  Lattice vectors:
  
 A1 = (   1.4145044410,   1.4145044410,   1.4145044410)
 A2 = (   1.4145044410,  -1.4145044410,  -1.4145044410)
 A3 = (  -1.4145044410,   1.4145044410,  -1.4145044410)
 
   2 primitive cells build up your supercell.
 

 Routine SETGRP: Setting up the symmetry group for a 
 simple cubic supercell.


 Subroutine GETGRP returns: Found 48 space group operations
 (whereof 48 operations were pure point group operations)
 out of a pool of 48 trial point group operations.


The dynamic configuration has the point symmetry O_h .


Analysis of structural, dynamic, and magnetic symmetry:
=====================================================================
 Subroutine PRICEL returns following result:
 
  LATTYP: Found a body centered cubic cell.
 ALAT       =     2.8290088819
  
  Lattice vectors:
  
 A1 = (   1.4145044410,   1.4145044410,   1.4145044410)
 A2 = (   1.4145044410,  -1.4145044410,  -1.4145044410)
 A3 = (  -1.4145044410,   1.4145044410,  -1.4145044410)
 
   2 primitive cells build up your supercell.
 

 Routine SETGRP: Setting up the symmetry group for a 
 simple cubic supercell.


 Subroutine GETGRP returns: Found 48 space group operations
 (whereof 48 operations were pure point group operations)
 out of a pool of 48 trial point group operations.


The magnetic configuration has the point symmetry O_h .


 Subroutine INISYM returns: Found 48 space group operations
 (whereof 48 operations are pure point group operations),
 and found     2 'primitive' translations

 
 
 KPOINTS: automatic KPOINTS                       

Automatic generation of k-mesh.
 generate k-points for:   14   14   14
Space group operators:
 irot       det(A)        alpha          n_x          n_y          n_z        tau_x        tau_y        tau_z
    1     1.000000     0.000000     1.000000     0.000000     0.000000     0.000000     0.000000     0.000000
    2    -1.000000     0.000000     1.000000     0.000000     0.000000     0.000000     0.000000     0.000000
    3     1.000000   120.000000    -0.577350    -0.577350    -0.577350     0.000000     0.000000     0.000000
    4    -1.000000   120.000000    -0.577350    -0.577350    -0.577350     0.000000     0.000000     0.000000
    5     1.000000   120.000000     0.577350     0.577350     0.577350     0.000000     0.000000     0.000000
    6    -1.000000   120.000000     0.577350     0.577350     0.577350     0.000000     0.000000     0.000000
    7     1.000000    90.000000     0.000000     0.000000    -1.000000     0.000000     0.000000     0.000000
    8    -1.000000    90.000000     0.000000     0.000000    -1.000000     0.000000     0.000000     0.000000
    9     1.000000   180.000000     0.000000     0.707107     0.707107     0.000000     0.000000     0.000000
   10    -1.000000   180.000000     0.000000     0.707107     0.707107     0.000000     0.000000     0.000000
   11     1.000000    90.000000     0.000000     1.000000     0.000000     0.000000     0.000000     0.000000
   12    -1.000000    90.000000     0.000000     1.000000     0.000000     0.000000     0.000000     0.000000
   13     1.000000   179.999999     0.000000     0.000000     1.000000     0.000000     0.000000     0.000000
   14    -1.000000   179.999999     0.000000     0.000000     1.000000     0.000000     0.000000     0.000000
   15     1.000000   120.000000    -0.577350     0.577350     0.577350     0.000000     0.000000     0.000000
   16    -1.000000   120.000000    -0.577350     0.577350     0.577350     0.000000     0.000000     0.000000
   17     1.000000   120.000000    -0.577350     0.577350    -0.577350     0.000000     0.000000     0.000000
   18    -1.000000   120.000000    -0.577350     0.577350    -0.577350     0.000000     0.000000     0.000000
   19     1.000000    90.000000     0.000000     0.000000     1.000000     0.000000     0.000000     0.000000
   20    -1.000000    90.000000     0.000000     0.000000     1.000000     0.000000     0.000000     0.000000
   21     1.000000    90.000000    -1.000000     0.000000     0.000000     0.000000     0.000000     0.000000
   22    -1.000000    90.000000    -1.000000     0.000000     0.000000     0.000000     0.000000     0.000000
   23     1.000000   180.000000     0.707107     0.000000     0.707107     0.000000     0.000000     0.000000
   24    -1.000000   180.000000     0.707107     0.000000     0.707107     0.000000     0.000000     0.000000
   25     1.000000   120.000000     0.577350    -0.577350     0.577350     0.000000     0.000000     0.000000
   26    -1.000000   120.000000     0.577350    -0.577350     0.577350     0.000000     0.000000     0.000000
   27     1.000000   120.000000    -0.577350    -0.577350     0.577350     0.000000     0.000000     0.000000
   28    -1.000000   120.000000    -0.577350    -0.577350     0.577350     0.000000     0.000000     0.000000
   29     1.000000   180.000000     1.000000     0.000000     0.000000     0.000000     0.000000     0.000000
   30    -1.000000   180.000000     1.000000     0.000000     0.000000     0.000000     0.000000     0.000000
   31     1.000000    90.000000     0.000000    -1.000000     0.000000     0.000000     0.000000     0.000000
   32    -1.000000    90.000000     0.000000    -1.000000     0.000000     0.000000     0.000000     0.000000
   33     1.000000   180.000000     0.707107     0.707107     0.000000     0.000000     0.000000     0.000000
   34    -1.000000   180.000000     0.707107     0.707107     0.000000     0.000000     0.000000     0.000000
   35     1.000000    90.000000     1.000000     0.000000     0.000000     0.000000     0.000000     0.000000
   36    -1.000000    90.000000     1.000000     0.000000     0.000000     0.000000     0.000000     0.000000
   37     1.000000   120.000000     0.577350    -0.577350    -0.577350     0.000000     0.000000     0.000000
   38    -1.000000   120.000000     0.577350    -0.577350    -0.577350     0.000000     0.000000     0.000000
   39     1.000000   180.000000     0.000000     1.000000     0.000000     0.000000     0.000000     0.000000
   40    -1.000000   180.000000     0.000000     1.000000     0.000000     0.000000     0.000000     0.000000
   41     1.000000   120.000000     0.577350     0.577350    -0.577350     0.000000     0.000000     0.000000
   42    -1.000000   120.000000     0.577350     0.577350    -0.577350     0.000000     0.000000     0.000000
   43     1.000000   180.000000     0.000000    -0.707107     0.707107     0.000000     0.000000     0.000000
   44    -1.000000   180.000000     0.000000    -0.707107     0.707107     0.000000     0.000000     0.000000
   45     1.000000   180.000000     0.707107    -0.707107     0.000000     0.000000     0.000000     0.000000
   46    -1.000000   180.000000     0.707107    -0.707107     0.000000     0.000000     0.000000     0.000000
   47     1.000000   180.000000     0.707107     0.000000    -0.707107     0.000000     0.000000     0.000000
   48    -1.000000   180.000000     0.707107     0.000000    -0.707107     0.000000     0.000000     0.000000
 
 Subroutine IBZKPT returns following result:
 ===========================================
 
 Found    120 irreducible k-points:
 
 Following reciprocal coordinates:
            Coordinates               Weight
  0.000000  0.000000  0.000000      1.000000
  0.071429  0.000000  0.000000      6.000000
  0.142857  0.000000  0.000000      6.000000
  0.214286  0.000000  0.000000      6.000000
  0.285714  0.000000  0.000000      6.000000
  0.357143  0.000000  0.000000      6.000000
  0.428571  0.000000  0.000000      6.000000
  0.500000  0.000000  0.000000      3.000000
  0.071429  0.071429  0.000000     12.000000
  0.142857  0.071429  0.000000     24.000000
  0.214286  0.071429  0.000000     24.000000
  0.285714  0.071429  0.000000     24.000000
  0.357143  0.071429  0.000000     24.000000
  0.428571  0.071429  0.000000     24.000000
  0.500000  0.071429  0.000000     12.000000
  0.142857  0.142857  0.000000     12.000000
  0.214286  0.142857  0.000000     24.000000
  0.285714  0.142857  0.000000     24.000000
  0.357143  0.142857  0.000000     24.000000
  0.428571  0.142857  0.000000     24.000000
  0.500000  0.142857  0.000000     12.000000
  0.214286  0.214286  0.000000     12.000000
  0.285714  0.214286  0.000000     24.000000
  0.357143  0.214286  0.000000     24.000000
  0.428571  0.214286  0.000000     24.000000
  0.500000  0.214286  0.000000     12.000000
  0.285714  0.285714  0.000000     12.000000
  0.357143  0.285714  0.000000     24.000000
  0.428571  0.285714  0.000000     24.000000
  0.500000  0.285714  0.000000     12.000000
  0.357143  0.357143  0.000000     12.000000
  0.428571  0.357143  0.000000     24.000000
  0.500000  0.357143  0.000000     12.000000
  0.428571  0.428571  0.000000     12.000000
  0.500000  0.428571  0.000000     12.000000
  0.500000  0.500000  0.000000      3.000000
  0.071429  0.071429  0.071429      8.000000
  0.142857  0.071429  0.071429     24.000000
  0.214286  0.071429  0.071429     24.000000
  0.285714  0.071429  0.071429     24.000000
  0.357143  0.071429  0.071429     24.000000
  0.428571  0.071429  0.071429     24.000000
  0.500000  0.071429  0.071429     12.000000
  0.142857  0.142857  0.071429     24.000000
  0.214286  0.142857  0.071429     48.000000
  0.285714  0.142857  0.071429     48.000000
  0.357143  0.142857  0.071429     48.000000
  0.428571  0.142857  0.071429     48.000000
  0.500000  0.142857  0.071429     24.000000
  0.214286  0.214286  0.071429     24.000000
  0.285714  0.214286  0.071429     48.000000
  0.357143  0.214286  0.071429     48.000000
  0.428571  0.214286  0.071429     48.000000
  0.500000  0.214286  0.071429     24.000000
  0.285714  0.285714  0.071429     24.000000
  0.357143  0.285714  0.071429     48.000000
  0.428571  0.285714  0.071429     48.000000
  0.500000  0.285714  0.071429     24.000000
  0.357143  0.357143  0.071429     24.000000
  0.428571  0.357143  0.071429     48.000000
  0.500000  0.357143  0.071429     24.000000
  0.428571  0.428571  0.071429     24.000000
  0.500000  0.428571  0.071429     24.000000
  0.500000  0.500000  0.071429      6.000000
  0.142857  0.142857  0.142857      8.000000
  0.214286  0.142857  0.142857     24.000000
  0.285714  0.142857  0.142857     24.000000
  0.357143  0.142857  0.142857     24.000000
  0.428571  0.142857  0.142857     24.000000
  0.500000  0.142857  0.142857     12.000000
  0.214286  0.214286  0.142857     24.000000
  0.285714  0.214286  0.142857     48.000000
  0.357143  0.214286  0.142857     48.000000
  0.428571  0.214286  0.142857     48.000000
  0.500000  0.214286  0.142857     24.000000
  0.285714  0.285714  0.142857     24.000000
  0.357143  0.285714  0.142857     48.000000
  0.428571  0.285714  0.142857     48.000000
  0.500000  0.285714  0.142857     24.000000
  0.357143  0.357143  0.142857     24.000000
  0.428571  0.357143  0.142857     48.000000
  0.500000  0.357143  0.142857     24.000000
  0.428571  0.428571  0.142857     24.000000
  0.500000  0.428571  0.142857     24.000000
  0.500000  0.500000  0.142857      6.000000
  0.214286  0.214286  0.214286      8.000000
  0.285714  0.214286  0.214286     24.000000
  0.357143  0.214286  0.214286     24.000000
  0.428571  0.214286  0.214286     24.000000
  0.500000  0.214286  0.214286     12.000000
  0.285714  0.285714  0.214286     24.000000
  0.357143  0.285714  0.214286     48.000000
  0.428571  0.285714  0.214286     48.000000
  0.500000  0.285714  0.214286     24.000000
  0.357143  0.357143  0.214286     24.000000
  0.428571  0.357143  0.214286     48.000000
  0.500000  0.357143  0.214286     24.000000
  0.428571  0.428571  0.214286     24.000000
  0.500000  0.428571  0.214286     24.000000
  0.500000  0.500000  0.214286      6.000000
  0.285714  0.285714  0.285714      8.000000
  0.357143  0.285714  0.285714     24.000000
  0.428571  0.285714  0.285714     24.000000
  0.500000  0.285714  0.285714     12.000000
  0.357143  0.357143  0.285714     24.000000
  0.428571  0.357143  0.285714     48.000000
  0.500000  0.357143  0.285714     24.000000
  0.428571  0.428571  0.285714     24.000000
  0.500000  0.428571  0.285714     24.000000
  0.500000  0.500000  0.285714      6.000000
  0.357143  0.357143  0.357143      8.000000
  0.428571  0.357143  0.357143     24.000000
  0.500000  0.357143  0.357143     12.000000
  0.428571  0.428571  0.357143     24.000000
  0.500000  0.428571  0.357143     24.000000
  0.500000  0.500000  0.357143      6.000000
  0.428571  0.428571  0.428571      8.000000
  0.500000  0.428571  0.428571     12.000000
  0.500000  0.500000  0.428571      6.000000
  0.500000  0.500000  0.500000      1.000000
 
 Following cartesian coordinates:
            Coordinates               Weight
  0.000000  0.000000  0.000000      1.000000
  0.025249  0.000000  0.000000      6.000000
  0.050497  0.000000  0.000000      6.000000
  0.075746  0.000000  0.000000      6.000000
  0.100994  0.000000  0.000000      6.000000
  0.126243  0.000000  0.000000      6.000000
  0.151492  0.000000  0.000000      6.000000
  0.176740  0.000000  0.000000      3.000000
  0.025249  0.025249  0.000000     12.000000
  0.050497  0.025249  0.000000     24.000000
  0.075746  0.025249  0.000000     24.000000
  0.100994  0.025249  0.000000     24.000000
  0.126243  0.025249  0.000000     24.000000
  0.151492  0.025249  0.000000     24.000000
  0.176740  0.025249  0.000000     12.000000
  0.050497  0.050497  0.000000     12.000000
  0.075746  0.050497  0.000000     24.000000
  0.100994  0.050497  0.000000     24.000000
  0.126243  0.050497  0.000000     24.000000
  0.151492  0.050497  0.000000     24.000000
  0.176740  0.050497  0.000000     12.000000
  0.075746  0.075746  0.000000     12.000000
  0.100994  0.075746  0.000000     24.000000
  0.126243  0.075746  0.000000     24.000000
  0.151492  0.075746  0.000000     24.000000
  0.176740  0.075746  0.000000     12.000000
  0.100994  0.100994  0.000000     12.000000
  0.126243  0.100994  0.000000     24.000000
  0.151492  0.100994  0.000000     24.000000
  0.176740  0.100994  0.000000     12.000000
  0.126243  0.126243  0.000000     12.000000
  0.151492  0.126243  0.000000     24.000000
  0.176740  0.126243  0.000000     12.000000
  0.151492  0.151492  0.000000     12.000000
  0.176740  0.151492  0.000000     12.000000
  0.176740  0.176740  0.000000      3.000000
  0.025249  0.025249  0.025249      8.000000
  0.050497  0.025249  0.025249     24.000000
  0.075746  0.025249  0.025249     24.000000
  0.100994  0.025249  0.025249     24.000000
  0.126243  0.025249  0.025249     24.000000
  0.151492  0.025249  0.025249     24.000000
  0.176740  0.025249  0.025249     12.000000
  0.050497  0.050497  0.025249     24.000000
  0.075746  0.050497  0.025249     48.000000
  0.100994  0.050497  0.025249     48.000000
  0.126243  0.050497  0.025249     48.000000
  0.151492  0.050497  0.025249     48.000000
  0.176740  0.050497  0.025249     24.000000
  0.075746  0.075746  0.025249     24.000000
  0.100994  0.075746  0.025249     48.000000
  0.126243  0.075746  0.025249     48.000000
  0.151492  0.075746  0.025249     48.000000
  0.176740  0.075746  0.025249     24.000000
  0.100994  0.100994  0.025249     24.000000
  0.126243  0.100994  0.025249     48.000000
  0.151492  0.100994  0.025249     48.000000
  0.176740  0.100994  0.025249     24.000000
  0.126243  0.126243  0.025249     24.000000
  0.151492  0.126243  0.025249     48.000000
  0.176740  0.126243  0.025249     24.000000
  0.151492  0.151492  0.025249     24.000000
  0.176740  0.151492  0.025249     24.000000
  0.176740  0.176740  0.025249      6.000000
  0.050497  0.050497  0.050497      8.000000
  0.075746  0.050497  0.050497     24.000000
  0.100994  0.050497  0.050497     24.000000
  0.126243  0.050497  0.050497     24.000000
  0.151492  0.050497  0.050497     24.000000
  0.176740  0.050497  0.050497     12.000000
  0.075746  0.075746  0.050497     24.000000
  0.100994  0.075746  0.050497     48.000000
  0.126243  0.075746  0.050497     48.000000
  0.151492  0.075746  0.050497     48.000000
  0.176740  0.075746  0.050497     24.000000
  0.100994  0.100994  0.050497     24.000000
  0.126243  0.100994  0.050497     48.000000
  0.151492  0.100994  0.050497     48.000000
  0.176740  0.100994  0.050497     24.000000
  0.126243  0.126243  0.050497     24.000000
  0.151492  0.126243  0.050497     48.000000
  0.176740  0.126243  0.050497     24.000000
  0.151492  0.151492  0.050497     24.000000
  0.176740  0.151492  0.050497     24.000000
  0.176740  0.176740  0.050497      6.000000
  0.075746  0.075746  0.075746      8.000000
  0.100994  0.075746  0.075746     24.000000
  0.126243  0.075746  0.075746     24.000000
  0.151492  0.075746  0.075746     24.000000
  0.176740  0.075746  0.075746     12.000000
  0.100994  0.100994  0.075746     24.000000
  0.126243  0.100994  0.075746     48.000000
  0.151492  0.100994  0.075746     48.000000
  0.176740  0.100994  0.075746     24.000000
  0.126243  0.126243  0.075746     24.000000
  0.151492  0.126243  0.075746     48.000000
  0.176740  0.126243  0.075746     24.000000
  0.151492  0.151492  0.075746     24.000000
  0.176740  0.151492  0.075746     24.000000
  0.176740  0.176740  0.075746      6.000000
  0.100994  0.100994  0.100994      8.000000
  0.126243  0.100994  0.100994     24.000000
  0.151492  0.100994  0.100994     24.000000
  0.176740  0.100994  0.100994     12.000000
  0.126243  0.126243  0.100994     24.000000
  0.151492  0.126243  0.100994     48.000000
  0.176740  0.126243  0.100994     24.000000
  0.151492  0.151492  0.100994     24.000000
  0.176740  0.151492  0.100994     24.000000
  0.176740  0.176740  0.100994      6.000000
  0.126243  0.126243  0.126243      8.000000
  0.151492  0.126243  0.126243     24.000000
  0.176740  0.126243  0.126243     12.000000
  0.151492  0.151492  0.126243     24.000000
  0.176740  0.151492  0.126243     24.000000
  0.176740  0.176740  0.126243      6.000000
  0.151492  0.151492  0.151492      8.000000
  0.176740  0.151492  0.151492     12.000000
  0.176740  0.176740  0.151492      6.000000
  0.176740  0.176740  0.176740      1.000000
 


--------------------------------------------------------------------------------------------------------




 Dimension of arrays:
   k-points           NKPTS =    120   k-points in BZ     NKDIM =    120   number of bands    NBANDS=     12
   number of dos      NEDOS =    301   number of ions     NIONS =      2
   non local maximal  LDIM  =      6   non local SUM 2l+1 LMDIM =     18
   total plane-waves  NPLWV =   5832
   max r-space proj   IRMAX =      1   max aug-charges    IRDMAX=   9374
   dimension x,y,z NGX =    18 NGY =   18 NGZ =   18
   dimension x,y,z NGXF=    36 NGYF=   36 NGZF=   36
   support grid    NGXF=    36 NGYF=   36 NGZF=   36
   ions per type =               2
   NGX,Y,Z   is equivalent  to a cutoff of  10.58, 10.58, 10.58 a.u.
   NGXF,Y,Z  is equivalent  to a cutoff of  21.16, 21.16, 21.16 a.u.

 SYSTEM =  BCC_IRON                                
 POSCAR =  BCC IRON                                

 Startparameter for this run:
   NWRITE =      2    write-flag & timer
   PREC   = accura    normal or accurate (medium, high low for compatibility)
   ISTART =      0    job   : 0-new  1-cont  2-samecut
   ICHARG =      2    charge: 1-file 2-atom 10-const
   ISPIN  =      2    spin polarized calculation?
   LNONCOLLINEAR =      F non collinear calculations
   LSORBIT =      F    spin-orbit coupling
   INIWAV =      1    electr: 0-lowe 1-rand  2-diag
   LASPH  =      F    aspherical Exc in radial PAW
   METAGGA=      F    non-selfconsistent MetaGGA calc.

 Electronic Relaxation 1
   ENCUT  =  349.0 eV  25.65 Ry    5.06 a.u.   4.31  4.31  4.31*2*pi/ulx,y,z
   ENINI  =  349.0     initial cutoff
   ENAUG  =  511.4 eV  augmentation charge cutoff
   NELM   =    100;   NELMIN=  2; NELMDL= -5     # of ELM steps 
   EDIFF  = 0.1E-06   stopping-criterion for ELM
   LREAL  =      F    real-space projection
   NLSPLINE    = F    spline interpolate recip. space projectors
   LCOMPAT=      F    compatible to vasp.4.4
   GGA_COMPAT  = T    GGA compatible to vasp.4.4-vasp.4.6
   LMAXPAW     = -100 max onsite density
   LMAXMIX     =    2 max onsite mixed and CHGCAR
   VOSKOWN=      0    Vosko Wilk Nusair interpolation
   ROPT   =    0.00000
 Ionic relaxation
   EDIFFG = 0.1E-05   stopping-criterion for IOM
   NSW    =      0    number of steps for IOM
   NBLOCK =      1;   KBLOCK =      1    inner block; outer block 
   IBRION =     -1    ionic relax: 0-MD 1-quasi-New 2-CG
   NFREE  =      0    steps in history (QN), initial steepest desc. (CG)
   ISIF   =      2    stress and relaxation
   IWAVPR =     10    prediction:  0-non 1-charg 2-wave 3-comb
   ISYM   =      2    0-nonsym 1-usesym 2-fastsym
   LCORR  =      T    Harris-Foulkes like correction to forces

   POTIM  = 0.5000    time-step for ionic-motion
   TEIN   =    0.0    initial temperature
   TEBEG  =    0.0;   TEEND  =   0.0 temperature during run
   SMASS  =  -3.00    Nose mass-parameter (am)
   estimated Nose-frequenzy (Omega)   =  0.10E-29 period in steps =****** mass=  -0.183E-27a.u.
   SCALEE = 1.0000    scale energy and forces
   NPACO  =    256;   APACO  = 16.0  distance and # of slots for P.C.
   PSTRESS=    0.0 pullay stress

  Mass of Ions in am
   POMASS =  55.85
  Ionic Valenz
   ZVAL   =   8.00
  Atomic Wigner-Seitz radii
   RWIGS  =  -1.00
  virtual crystal weights 
   VCA    =   1.00
   NELECT =      16.0000    total number of electrons
   NUPDOWN=      -1.0000    fix difference up-down

 DOS related values:
   EMIN   =  10.00;   EMAX   =-10.00  energy-range for DOS
   EFERMI =   0.00
   ISMEAR =     1;   SIGMA  =   0.01  broadening in eV -4-tet -1-fermi 0-gaus

 Electronic relaxation 2 (details)
   IALGO  =     38    algorithm
   LDIAG  =      T    sub-space diagonalisation (order eigenvalues)
   LSUBROT=      F    optimize rotation matrix (better conditioning)
   TURBO    =      0    0=normal 1=particle mesh
   IRESTART =      0    0=no restart 2=restart with 2 vectors
   NREBOOT  =      0    no. of reboots
   NMIN     =      0    reboot dimension
   EREF     =   0.00    reference energy to select bands
   IMIX   =      4    mixing-type and parameters
     AMIX     =   0.40;   BMIX     =  1.00
     AMIX_MAG =   1.60;   BMIX_MAG =  1.00
     AMIN     =   0.10
     WC   =   100.;   INIMIX=   1;  MIXPRE=   1;  MAXMIX= -45

 Intra band minimization:
   WEIMIN = 0.0000     energy-eigenvalue tresh-hold
   EBREAK =  0.21E-08  absolut break condition
   DEPER  =   0.30     relativ break condition  

   TIME   =   0.40     timestep for ELM

  volume/ion in A,a.u.               =      11.32        76.40
  Fermi-wavevector in a.u.,A,eV,Ry     =   1.458189  2.755578 28.930278  2.126315
  Thomas-Fermi vector in A             =   2.574903
 
 Write flags
   LWAVE        =      F    write WAVECAR
   LDOWNSAMPLE  =      F    k-point downsampling of WAVECAR
   LCHARG       =      F    write CHGCAR
   LVTOT        =      F    write LOCPOT, total local potential
   LVHAR        =      F    write LOCPOT, Hartree potential only
   LELF         =      F    write electronic localiz. function (ELF)
   LORBIT       =     11    0 simple, 1 ext, 2 COOP (PROOUT), +10 PAW based schemes


 Dipole corrections
   LMONO  =      F    monopole corrections only (constant potential shift)
   LDIPOL =      F    correct potential (dipole corrections)
   IDIPOL =      0    1-x, 2-y, 3-z, 4-all directions 
   EPSILON=  1.0000000 bulk dielectric constant

 Exchange correlation treatment:
   GGA     =    --    GGA type
   LEXCH   =     8    internal setting for exchange type
   VOSKOWN=      0    Vosko Wilk Nusair interpolation
   LHFCALC =     F    Hartree Fock is set to
   LHFONE  =     F    Hartree Fock one center treatment
   AEXX    =    0.0000 exact exchange contribution

 Linear response parameters
   LEPSILON=     F    determine dielectric tensor
   LRPA    =     F    only Hartree local field effects (RPA)
   LNABLA  =     F    use nabla operator in PAW spheres
   LVEL    =     F    velocity operator in full k-point grid
   LINTERFAST=   F  fast interpolation
   KINTER  =     0    interpolate to denser k-point grid
   CSHIFT  =0.1000    complex shift for real part using Kramers Kronig
   OMEGAMAX=  -1.0    maximum frequency
   DEG_THRESHOLD= 0.2000000E-02 threshold for treating states as degnerate
   RTIME   =   -0.100 relaxation time in fs
  (WPLASMAI=    0.000 imaginary part of plasma frequency in eV, 0.658/RTIME)
   DFIELD  = 0.0000000 0.0000000 0.0000000 field for delta impulse in time
 
 Orbital magnetization related:
   ORBITALMAG=     F  switch on orbital magnetization
   LCHIMAG   =     F  perturbation theory with respect to B field
   DQ        =  0.001000  dq finite difference perturbation B field
   LLRAUG    =     F  two centre corrections for induced B field



--------------------------------------------------------------------------------------------------------


 Static calculation
 charge density and potential will be updated during run
 spin polarized calculation
 Variant of blocked Davidson
 Davidson routine will perform the subspace rotation
 perform sub-space diagonalisation
    after iterative eigenvector-optimisation
 modified Broyden-mixing scheme, WC =      100.0
 initial mixing is a Kerker type mixing with AMIX =  0.4000 and BMIX =      1.0000
 Hartree-type preconditioning will be used
 using additional bands            4
 reciprocal scheme for non local part
 use partial core corrections
 calculate Harris-corrections to forces 
   (improved forces if not selfconsistent)
 use gradient corrections 
 use of overlap-Matrix (Vanderbilt PP)
 Methfessel and Paxton  Order N= 1 SIGMA  =   0.01


--------------------------------------------------------------------------------------------------------


  energy-cutoff  :      349.00
  volume of cell :       22.64
      direct lattice vectors                 reciprocal lattice vectors
     2.829008882  0.000000000  0.000000000     0.353480686  0.000000000  0.000000000
     0.000000000  2.829008882  0.000000000     0.000000000  0.353480686  0.000000000
     0.000000000  0.000000000  2.829008882     0.000000000  0.000000000  0.353480686

  length of vectors
     2.829008882  2.829008882  2.829008882     0.353480686  0.353480686  0.353480686


 
 k-points in units of 2pi/SCALE and weight: automatic KPOINTS                       
   0.00000000  0.00000000  0.00000000       0.000
   0.02524862  0.00000000  0.00000000       0.002
   0.05049724  0.00000000  0.00000000       0.002
   0.07574586  0.00000000  0.00000000       0.002
   0.10099448  0.00000000  0.00000000       0.002
   0.12624310  0.00000000  0.00000000       0.002
   0.15149172  0.00000000  0.00000000       0.002
   0.17674034  0.00000000  0.00000000       0.001
   0.02524862  0.02524862  0.00000000       0.004
   0.05049724  0.02524862  0.00000000       0.009
   0.07574586  0.02524862  0.00000000       0.009
   0.10099448  0.02524862  0.00000000       0.009
   0.12624310  0.02524862  0.00000000       0.009
   0.15149172  0.02524862  0.00000000       0.009
   0.17674034  0.02524862  0.00000000       0.004
   0.05049724  0.05049724  0.00000000       0.004
   0.07574586  0.05049724  0.00000000       0.009
   0.10099448  0.05049724  0.00000000       0.009
   0.12624310  0.05049724  0.00000000       0.009
   0.15149172  0.05049724  0.00000000       0.009
   0.17674034  0.05049724  0.00000000       0.004
   0.07574586  0.07574586  0.00000000       0.004
   0.10099448  0.07574586  0.00000000       0.009
   0.12624310  0.07574586  0.00000000       0.009
   0.15149172  0.07574586  0.00000000       0.009
   0.17674034  0.07574586  0.00000000       0.004
   0.10099448  0.10099448  0.00000000       0.004
   0.12624310  0.10099448  0.00000000       0.009
   0.15149172  0.10099448  0.00000000       0.009
   0.17674034  0.10099448  0.00000000       0.004
   0.12624310  0.12624310  0.00000000       0.004
   0.15149172  0.12624310  0.00000000       0.009
   0.17674034  0.12624310  0.00000000       0.004
   0.15149172  0.15149172  0.00000000       0.004
   0.17674034  0.15149172  0.00000000       0.004
   0.17674034  0.17674034  0.00000000       0.001
   0.02524862  0.02524862  0.02524862       0.003
   0.05049724  0.02524862  0.02524862       0.009
   0.07574586  0.02524862  0.02524862       0.009
   0.10099448  0.02524862  0.02524862       0.009
   0.12624310  0.02524862  0.02524862       0.009
   0.15149172  0.02524862  0.02524862       0.009
   0.17674034  0.02524862  0.02524862       0.004
   0.05049724  0.05049724  0.02524862       0.009
   0.07574586  0.05049724  0.02524862       0.017
   0.10099448  0.05049724  0.02524862       0.017
   0.12624310  0.05049724  0.02524862       0.017
   0.15149172  0.05049724  0.02524862       0.017
   0.17674034  0.05049724  0.02524862       0.009
   0.07574586  0.07574586  0.02524862       0.009
   0.10099448  0.07574586  0.02524862       0.017
   0.12624310  0.07574586  0.02524862       0.017
   0.15149172  0.07574586  0.02524862       0.017
   0.17674034  0.07574586  0.02524862       0.009
   0.10099448  0.10099448  0.02524862       0.009
   0.12624310  0.10099448  0.02524862       0.017
   0.15149172  0.10099448  0.02524862       0.017
   0.17674034  0.10099448  0.02524862       0.009
   0.12624310  0.12624310  0.02524862       0.009
   0.15149172  0.12624310  0.02524862       0.017
   0.17674034  0.12624310  0.02524862       0.009
   0.15149172  0.15149172  0.02524862       0.009
   0.17674034  0.15149172  0.02524862       0.009
   0.17674034  0.17674034  0.02524862       0.002
   0.05049724  0.05049724  0.05049724       0.003
   0.07574586  0.05049724  0.05049724       0.009
   0.10099448  0.05049724  0.05049724       0.009
   0.12624310  0.05049724  0.05049724       0.009
   0.15149172  0.05049724  0.05049724       0.009
   0.17674034  0.05049724  0.05049724       0.004
   0.07574586  0.07574586  0.05049724       0.009
   0.10099448  0.07574586  0.05049724       0.017
   0.12624310  0.07574586  0.05049724       0.017
   0.15149172  0.07574586  0.05049724       0.017
   0.17674034  0.07574586  0.05049724       0.009
   0.10099448  0.10099448  0.05049724       0.009
   0.12624310  0.10099448  0.05049724       0.017
   0.15149172  0.10099448  0.05049724       0.017
   0.17674034  0.10099448  0.05049724       0.009
   0.12624310  0.12624310  0.05049724       0.009
   0.15149172  0.12624310  0.05049724       0.017
   0.17674034  0.12624310  0.05049724       0.009
   0.15149172  0.15149172  0.05049724       0.009
   0.17674034  0.15149172  0.05049724       0.009
   0.17674034  0.17674034  0.05049724       0.002
   0.07574586  0.07574586  0.07574586       0.003
   0.10099448  0.07574586  0.07574586       0.009
   0.12624310  0.07574586  0.07574586       0.009
   0.15149172  0.07574586  0.07574586       0.009
   0.17674034  0.07574586  0.07574586       0.004
   0.10099448  0.10099448  0.07574586       0.009
   0.12624310  0.10099448  0.07574586       0.017
   0.15149172  0.10099448  0.07574586       0.017
   0.17674034  0.10099448  0.07574586       0.009
   0.12624310  0.12624310  0.07574586       0.009
   0.15149172  0.12624310  0.07574586       0.017
   0.17674034  0.12624310  0.07574586       0.009
   0.15149172  0.15149172  0.07574586       0.009
   0.17674034  0.15149172  0.07574586       0.009
   0.17674034  0.17674034  0.07574586       0.002
   0.10099448  0.10099448  0.10099448       0.003
   0.12624310  0.10099448  0.10099448       0.009
   0.15149172  0.10099448  0.10099448       0.009
   0.17674034  0.10099448  0.10099448       0.004
   0.12624310  0.12624310  0.10099448       0.009
   0.15149172  0.12624310  0.10099448       0.017
   0.17674034  0.12624310  0.10099448       0.009
   0.15149172  0.15149172  0.10099448       0.009
   0.17674034  0.15149172  0.10099448       0.009
   0.17674034  0.17674034  0.10099448       0.002
   0.12624310  0.12624310  0.12624310       0.003
   0.15149172  0.12624310  0.12624310       0.009
   0.17674034  0.12624310  0.12624310       0.004
   0.15149172  0.15149172  0.12624310       0.009
   0.17674034  0.15149172  0.12624310       0.009
   0.17674034  0.17674034  0.12624310       0.002
   0.15149172  0.15149172  0.15149172       0.003
   0.17674034  0.15149172  0.15149172       0.004
   0.17674034  0.17674034  0.15149172       0.002
   0.17674034  0.17674034  0.17674034       0.000
 
 k-points in reciprocal lattice and weights: automatic KPOINTS                       
   0.00000000  0.00000000  0.00000000       0.000
   0.07142857  0.00000000  0.00000000       0.002
   0.14285714  0.00000000  0.00000000       0.002
   0.21428571  0.00000000  0.00000000       0.002
   0.28571429  0.00000000  0.00000000       0.002
   0.35714286  0.00000000  0.00000000       0.002
   0.42857143  0.00000000  0.00000000       0.002
   0.50000000  0.00000000  0.00000000       0.001
   0.07142857  0.07142857  0.00000000       0.004
   0.14285714  0.07142857  0.00000000       0.009
   0.21428571  0.07142857  0.00000000       0.009
   0.28571429  0.07142857  0.00000000       0.009
   0.35714286  0.07142857  0.00000000       0.009
   0.42857143  0.07142857  0.00000000       0.009
   0.50000000  0.07142857  0.00000000       0.004
   0.14285714  0.14285714  0.00000000       0.004
   0.21428571  0.14285714  0.00000000       0.009
   0.28571429  0.14285714  0.00000000       0.009
   0.35714286  0.14285714  0.00000000       0.009
   0.42857143  0.14285714  0.00000000       0.009
   0.50000000  0.14285714  0.00000000       0.004
   0.21428571  0.21428571  0.00000000       0.004
   0.28571429  0.21428571  0.00000000       0.009
   0.35714286  0.21428571  0.00000000       0.009
   0.42857143  0.21428571  0.00000000       0.009
   0.50000000  0.21428571  0.00000000       0.004
   0.28571429  0.28571429  0.00000000       0.004
   0.35714286  0.28571429  0.00000000       0.009
   0.42857143  0.28571429  0.00000000       0.009
   0.50000000  0.28571429  0.00000000       0.004
   0.35714286  0.35714286  0.00000000       0.004
   0.42857143  0.35714286  0.00000000       0.009
   0.50000000  0.35714286  0.00000000       0.004
   0.42857143  0.42857143  0.00000000       0.004
   0.50000000  0.42857143  0.00000000       0.004
   0.50000000  0.50000000  0.00000000       0.001
   0.07142857  0.07142857  0.07142857       0.003
   0.14285714  0.07142857  0.07142857       0.009
   0.21428571  0.07142857  0.07142857       0.009
   0.28571429  0.07142857  0.07142857       0.009
   0.35714286  0.07142857  0.07142857       0.009
   0.42857143  0.07142857  0.07142857       0.009
   0.50000000  0.07142857  0.07142857       0.004
   0.14285714  0.14285714  0.07142857       0.009
   0.21428571  0.14285714  0.07142857       0.017
   0.28571429  0.14285714  0.07142857       0.017
   0.35714286  0.14285714  0.07142857       0.017
   0.42857143  0.14285714  0.07142857       0.017
   0.50000000  0.14285714  0.07142857       0.009
   0.21428571  0.21428571  0.07142857       0.009
   0.28571429  0.21428571  0.07142857       0.017
   0.35714286  0.21428571  0.07142857       0.017
   0.42857143  0.21428571  0.07142857       0.017
   0.50000000  0.21428571  0.07142857       0.009
   0.28571429  0.28571429  0.07142857       0.009
   0.35714286  0.28571429  0.07142857       0.017
   0.42857143  0.28571429  0.07142857       0.017
   0.50000000  0.28571429  0.07142857       0.009
   0.35714286  0.35714286  0.07142857       0.009
   0.42857143  0.35714286  0.07142857       0.017
   0.50000000  0.35714286  0.07142857       0.009
   0.42857143  0.42857143  0.07142857       0.009
   0.50000000  0.42857143  0.07142857       0.009
   0.50000000  0.50000000  0.07142857       0.002
   0.14285714  0.14285714  0.14285714       0.003
   0.21428571  0.14285714  0.14285714       0.009
   0.28571429  0.14285714  0.14285714       0.009
   0.35714286  0.14285714  0.14285714       0.009
   0.42857143  0.14285714  0.14285714       0.009
   0.50000000  0.14285714  0.14285714       0.004
   0.21428571  0.21428571  0.14285714       0.009
   0.28571429  0.21428571  0.14285714       0.017
   0.35714286  0.21428571  0.14285714       0.017
   0.42857143  0.21428571  0.14285714       0.017
   0.50000000  0.21428571  0.14285714       0.009
   0.28571429  0.28571429  0.14285714       0.009
   0.35714286  0.28571429  0.14285714       0.017
   0.42857143  0.28571429  0.14285714       0.017
   0.50000000  0.28571429  0.14285714       0.009
   0.35714286  0.35714286  0.14285714       0.009
   0.42857143  0.35714286  0.14285714       0.017
   0.50000000  0.35714286  0.14285714       0.009
   0.42857143  0.42857143  0.14285714       0.009
   0.50000000  0.42857143  0.14285714       0.009
   0.50000000  0.50000000  0.14285714       0.002
   0.21428571  0.21428571  0.21428571       0.003
   0.28571429  0.21428571  0.21428571       0.009
   0.35714286  0.21428571  0.21428571       0.009
   0.42857143  0.21428571  0.21428571       0.009
   0.50000000  0.21428571  0.21428571       0.004
   0.28571429  0.28571429  0.21428571       0.009
   0.35714286  0.28571429  0.21428571       0.017
   0.42857143  0.28571429  0.21428571       0.017
   0.50000000  0.28571429  0.21428571       0.009
   0.35714286  0.35714286  0.21428571       0.009
   0.42857143  0.35714286  0.21428571       0.017
   0.50000000  0.35714286  0.21428571       0.009
   0.42857143  0.42857143  0.21428571       0.009
   0.50000000  0.42857143  0.21428571       0.009
   0.50000000  0.50000000  0.21428571       0.002
   0.28571429  0.28571429  0.28571429       0.003
   0.35714286  0.28571429  0.28571429       0.009
   0.42857143  0.28571429  0.28571429       0.009
   0.50000000  0.28571429  0.28571429       0.004
   0.35714286  0.35714286  0.28571429       0.009
   0.42857143  0.35714286  0.28571429       0.017
   0.50000000  0.35714286  0.28571429       0.009
   0.42857143  0.42857143  0.28571429       0.009
   0.50000000  0.42857143  0.28571429       0.009
   0.50000000  0.50000000  0.28571429       0.002
   0.35714286  0.35714286  0.35714286       0.003
   0.42857143  0.35714286  0.35714286       0.009
   0.50000000  0.35714286  0.35714286       0.004
   0.42857143  0.42857143  0.35714286       0.009
   0.50000000  0.42857143  0.35714286       0.009
   0.50000000  0.50000000  0.35714286       0.002
   0.42857143  0.42857143  0.42857143       0.003
   0.50000000  0.42857143  0.42857143       0.004
   0.50000000  0.50000000  0.42857143       0.002
   0.50000000  0.50000000  0.50000000       0.000
 
 position of ions in fractional coordinates (direct lattice) 
   0.00000000  0.00000000  0.00000000
   0.50000000  0.50000000  0.50000000
 
 position of ions in cartesian coordinates  (Angst):
   0.00000000  0.00000000  0.00000000
   1.41450444  1.41450444  1.41450444
 


--------------------------------------------------------------------------------------------------------


 k-point  1 :   0.0000 0.0000 0.0000  plane waves:     341
 k-point  2 :   0.0714 0.0000 0.0000  plane waves:     337
 k-point  3 :   0.1429 0.0000 0.0000  plane waves:     341
 k-point  4 :   0.2143 0.0000 0.0000  plane waves:     341
 k-point  5 :   0.2857 0.0000 0.0000  plane waves:     333
 k-point  6 :   0.3571 0.0000 0.0000  plane waves:     340
 k-point  7 :   0.4286 0.0000 0.0000  plane waves:     336
 k-point  8 :   0.5000 0.0000 0.0000  plane waves:     336
 k-point  9 :   0.0714 0.0714 0.0000  plane waves:     342
 k-point 10 :   0.1429 0.0714 0.0000  plane waves:     340
 k-point 11 :   0.2143 0.0714 0.0000  plane waves:     336
 k-point 12 :   0.2857 0.0714 0.0000  plane waves:     338
 k-point 13 :   0.3571 0.0714 0.0000  plane waves:     337
 k-point 14 :   0.4286 0.0714 0.0000  plane waves:     334
 k-point 15 :   0.5000 0.0714 0.0000  plane waves:     330
 k-point 16 :   0.1429 0.1429 0.0000  plane waves:     338
 k-point 17 :   0.2143 0.1429 0.0000  plane waves:     330
 k-point 18 :   0.2857 0.1429 0.0000  plane waves:     333
 k-point 19 :   0.3571 0.1429 0.0000  plane waves:     328
 k-point 20 :   0.4286 0.1429 0.0000  plane waves:     338
 k-point 21 :   0.5000 0.1429 0.0000  plane waves:     338
 k-point 22 :   0.2143 0.2143 0.0000  plane waves:     334
 k-point 23 :   0.2857 0.2143 0.0000  plane waves:     335
 k-point 24 :   0.3571 0.2143 0.0000  plane waves:     334
 k-point 25 :   0.4286 0.2143 0.0000  plane waves:     336
 k-point 26 :   0.5000 0.2143 0.0000  plane waves:     338
 k-point 27 :   0.2857 0.2857 0.0000  plane waves:     336
 k-point 28 :   0.3571 0.2857 0.0000  plane waves:     337
 k-point 29 :   0.4286 0.2857 0.0000  plane waves:     343
 k-point 30 :   0.5000 0.2857 0.0000  plane waves:     340
 k-point 31 :   0.3571 0.3571 0.0000  plane waves:     336
 k-point 32 :   0.4286 0.3571 0.0000  plane waves:     340
 k-point 33 :   0.5000 0.3571 0.0000  plane waves:     340
 k-point 34 :   0.4286 0.4286 0.0000  plane waves:     336
 k-point 35 :   0.5000 0.4286 0.0000  plane waves:     336
 k-point 36 :   0.5000 0.5000 0.0000  plane waves:     356
 k-point 37 :   0.0714 0.0714 0.0714  plane waves:     335
 k-point 38 :   0.1429 0.0714 0.0714  plane waves:     338
 k-point 39 :   0.2143 0.0714 0.0714  plane waves:     332
 k-point 40 :   0.2857 0.0714 0.0714  plane waves:     338
 k-point 41 :   0.3571 0.0714 0.0714  plane waves:     338
 k-point 42 :   0.4286 0.0714 0.0714  plane waves:     334
 k-point 43 :   0.5000 0.0714 0.0714  plane waves:     338
 k-point 44 :   0.1429 0.1429 0.0714  plane waves:     334
 k-point 45 :   0.2143 0.1429 0.0714  plane waves:     332
 k-point 46 :   0.2857 0.1429 0.0714  plane waves:     337
 k-point 47 :   0.3571 0.1429 0.0714  plane waves:     334
 k-point 48 :   0.4286 0.1429 0.0714  plane waves:     336
 k-point 49 :   0.5000 0.1429 0.0714  plane waves:     338
 k-point 50 :   0.2143 0.2143 0.0714  plane waves:     328
 k-point 51 :   0.2857 0.2143 0.0714  plane waves:     335
 k-point 52 :   0.3571 0.2143 0.0714  plane waves:     336
 k-point 53 :   0.4286 0.2143 0.0714  plane waves:     338
 k-point 54 :   0.5000 0.2143 0.0714  plane waves:     338
 k-point 55 :   0.2857 0.2857 0.0714  plane waves:     335
 k-point 56 :   0.3571 0.2857 0.0714  plane waves:     336
 k-point 57 :   0.4286 0.2857 0.0714  plane waves:     341
 k-point 58 :   0.5000 0.2857 0.0714  plane waves:     338
 k-point 59 :   0.3571 0.3571 0.0714  plane waves:     340
 k-point 60 :   0.4286 0.3571 0.0714  plane waves:     338
 k-point 61 :   0.5000 0.3571 0.0714  plane waves:     336
 k-point 62 :   0.4286 0.4286 0.0714  plane waves:     340
 k-point 63 :   0.5000 0.4286 0.0714  plane waves:     336
 k-point 64 :   0.5000 0.5000 0.0714  plane waves:     340
 k-point 65 :   0.1429 0.1429 0.1429  plane waves:     335
 k-point 66 :   0.2143 0.1429 0.1429  plane waves:     337
 k-point 67 :   0.2857 0.1429 0.1429  plane waves:     341
 k-point 68 :   0.3571 0.1429 0.1429  plane waves:     336
 k-point 69 :   0.4286 0.1429 0.1429  plane waves:     337
 k-point 70 :   0.5000 0.1429 0.1429  plane waves:     338
 k-point 71 :   0.2143 0.2143 0.1429  plane waves:     334
 k-point 72 :   0.2857 0.2143 0.1429  plane waves:     331
 k-point 73 :   0.3571 0.2143 0.1429  plane waves:     336
 k-point 74 :   0.4286 0.2143 0.1429  plane waves:     339
 k-point 75 :   0.5000 0.2143 0.1429  plane waves:     338
 k-point 76 :   0.2857 0.2857 0.1429  plane waves:     336
 k-point 77 :   0.3571 0.2857 0.1429  plane waves:     338
 k-point 78 :   0.4286 0.2857 0.1429  plane waves:     334
 k-point 79 :   0.5000 0.2857 0.1429  plane waves:     336
 k-point 80 :   0.3571 0.3571 0.1429  plane waves:     339
 k-point 81 :   0.4286 0.3571 0.1429  plane waves:     336
 k-point 82 :   0.5000 0.3571 0.1429  plane waves:     336
 k-point 83 :   0.4286 0.4286 0.1429  plane waves:     336
 k-point 84 :   0.5000 0.4286 0.1429  plane waves:     332
 k-point 85 :   0.5000 0.5000 0.1429  plane waves:     340
 k-point 86 :   0.2143 0.2143 0.2143  plane waves:     335
 k-point 87 :   0.2857 0.2143 0.2143  plane waves:     334
 k-point 88 :   0.3571 0.2143 0.2143  plane waves:     339
 k-point 89 :   0.4286 0.2143 0.2143  plane waves:     343
 k-point 90 :   0.5000 0.2143 0.2143  plane waves:     336
 k-point 91 :   0.2857 0.2857 0.2143  plane waves:     332
 k-point 92 :   0.3571 0.2857 0.2143  plane waves:     334
 k-point 93 :   0.4286 0.2857 0.2143  plane waves:     334
 k-point 94 :   0.5000 0.2857 0.2143  plane waves:     338
 k-point 95 :   0.3571 0.3571 0.2143  plane waves:     331
 k-point 96 :   0.4286 0.3571 0.2143  plane waves:     335
 k-point 97 :   0.5000 0.3571 0.2143  plane waves:     338
 k-point 98 :   0.4286 0.4286 0.2143  plane waves:     333
 k-point 99 :   0.5000 0.4286 0.2143  plane waves:     330
 k-point ** :   0.5000 0.5000 0.2143  plane waves:     332
 k-point ** :   0.2857 0.2857 0.2857  plane waves:     332
 k-point ** :   0.3571 0.2857 0.2857  plane waves:     327
 k-point ** :   0.4286 0.2857 0.2857  plane waves:     333
 k-point ** :   0.5000 0.2857 0.2857  plane waves:     330
 k-point ** :   0.3571 0.3571 0.2857  plane waves:     329
 k-point ** :   0.4286 0.3571 0.2857  plane waves:     329
 k-point ** :   0.5000 0.3571 0.2857  plane waves:     328
 k-point ** :   0.4286 0.4286 0.2857  plane waves:     329
 k-point ** :   0.5000 0.4286 0.2857  plane waves:     330
 k-point ** :   0.5000 0.5000 0.2857  plane waves:     324
 k-point ** :   0.3571 0.3571 0.3571  plane waves:     323
 k-point ** :   0.4286 0.3571 0.3571  plane waves:     328
 k-point ** :   0.5000 0.3571 0.3571  plane waves:     330
 k-point ** :   0.4286 0.4286 0.3571  plane waves:     327
 k-point ** :   0.5000 0.4286 0.3571  plane waves:     332
 k-point ** :   0.5000 0.5000 0.3571  plane waves:     324
 k-point ** :   0.4286 0.4286 0.4286  plane waves:     326
 k-point ** :   0.5000 0.4286 0.4286  plane waves:     326
 k-point ** :   0.5000 0.5000 0.4286  plane waves:     324
 k-point ** :   0.5000 0.5000 0.5000  plane waves:     304

 maximum and minimum number of plane-waves per node :        67       48

 maximum number of plane-waves:       356
 maximum index in each direction: 
   IXMAX=    4   IYMAX=    4   IZMAX=    4
   IXMIN=   -4   IYMIN=   -4   IZMIN=   -4


 parallel 3D FFT for wavefunctions:
    minimum data exchange during FFTs selected (reduces bandwidth)
 parallel 3D FFT for charge:
    minimum data exchange during FFTs selected (reduces bandwidth)


 total amount of memory used by VASP MPI-rank0    36071. kBytes
=======================================================================

   base      :      30000. kBytes
   nonl-proj :       1159. kBytes
   fftplans  :        302. kBytes
   grid      :        663. kBytes
   one-center:         31. kBytes
   wavefun   :       3916. kBytes
 
     INWAV:  cpu time    0.0000: real time    0.0000
 Broyden mixing: mesh for mixing (old mesh)
   NGX =  9   NGY =  9   NGZ =  9
  (NGX  = 36   NGY  = 36   NGZ  = 36)
  gives a total of    729 points

 initial charge density was supplied:
 charge density of overlapping atoms calculated
 number of electron      16.0000000 magnetization       0.0000000
 keeping initial charge density in first step


--------------------------------------------------------------------------------------------------------


 Maximum index for augmentation-charges         1465 (set IRDMAX)


--------------------------------------------------------------------------------------------------------


 First call to EWALD:  gamma=   0.627
 Maximum number of real-space cells 3x 3x 3
 Maximum number of reciprocal cells 3x 3x 3

    FEWALD:  cpu time    0.0015: real time    0.0015


--------------------------------------- Iteration      1(   1)  ---------------------------------------


    POTLOK:  cpu time    0.0140: real time    0.0312
    SETDIJ:  cpu time    0.0018: real time    0.0018
     EDDAV:  cpu time    0.2103: real time    0.2117
       DOS:  cpu time    0.0015: real time    0.0015
    --------------------------------------------
      LOOP:  cpu time    0.2276: real time    0.2461

 eigenvalue-minimisations  :  5856
 total energy-change (2. order) : 0.7211726E+02  (-0.5830106E+03)
 number of electron      16.0000000 magnetization       0.0000000
 augmentation part       16.0000000 magnetization       0.0000000

 Free energy of the ion-electron system (eV)
  ---------------------------------------------------
  alpha Z        PSCENC =       122.10169127
  Ewald energy   TEWEN  =     -1185.52755918
  -Hartree energ DENC   =      -222.53661930
  -exchange      EXHF   =         0.00000000
  -V(xc)+E(xc)   XCENC  =         8.84950467
  PAW double counting   =      1108.55857356    -1123.98403091
  entropy T*S    EENTRO =         0.00001178
  eigenvalues    EBANDS =       176.06653695
  atomic energy  EATOM  =      1188.58915604
  Solvation  Ediel_sol  =         0.00000000
  ---------------------------------------------------
  free energy    TOTEN  =        72.11726489 eV

  energy without entropy =       72.11725311  energy(sigma->0) =       72.11726097


--------------------------------------------------------------------------------------------------------




--------------------------------------- Iteration      1(   2)  ---------------------------------------


     EDDAV:  cpu time    0.2025: real time    0.2085
       DOS:  cpu time    0.0017: real time    0.0017
    --------------------------------------------
      LOOP:  cpu time    0.2042: real time    0.2102

 eigenvalue-minimisations  :  5892
 total energy-change (2. order) :-0.8750609E+02  (-0.8113050E+02)
 number of electron      16.0000000 magnetization       0.0000000
 augmentation part       16.0000000 magnetization       0.0000000

 Free energy of the ion-electron system (eV)
  ---------------------------------------------------
  alpha Z        PSCENC =       122.10169127
  Ewald energy   TEWEN  =     -1185.52755918
  -Hartree energ DENC   =      -222.53661930
  -exchange      EXHF   =         0.00000000
  -V(xc)+E(xc)   XCENC  =         8.84950467
  PAW double counting   =      1108.55857356    -1123.98403091
  entropy T*S    EENTRO =         0.00001521
  eigenvalues    EBANDS =        88.56044748
  atomic energy  EATOM  =      1188.58915604
  Solvation  Ediel_sol  =         0.00000000
  ---------------------------------------------------
  free energy    TOTEN  =       -15.38882115 eV

  energy without entropy =      -15.38883636  energy(sigma->0) =      -15.38882622


--------------------------------------------------------------------------------------------------------




--------------------------------------- Iteration      1(   3)  ---------------------------------------


     EDDAV:  cpu time    0.2163: real time    0.2210
       DOS:  cpu time    0.0015: real time    0.0015
    --------------------------------------------
      LOOP:  cpu time    0.2178: real time    0.2225

 eigenvalue-minimisations  :  6328
 total energy-change (2. order) :-0.2857690E+01  (-0.2471088E+01)
 number of electron      16.0000000 magnetization       0.0000000
 augmentation part       16.0000000 magnetization       0.0000000

 Free energy of the ion-electron system (eV)
  ---------------------------------------------------
  alpha Z        PSCENC =       122.10169127
  Ewald energy   TEWEN  =     -1185.52755918
  -Hartree energ DENC   =      -222.53661930
  -exchange      EXHF   =         0.00000000
  -V(xc)+E(xc)   XCENC  =         8.84950467
  PAW double counting   =      1108.55857356    -1123.98403091
  entropy T*S    EENTRO =         0.00003490
  eigenvalues    EBANDS =        85.70273776
  atomic energy  EATOM  =      1188.58915604
  Solvation  Ediel_sol  =         0.00000000
  ---------------------------------------------------
  free energy    TOTEN  =       -18.24651118 eV

  energy without entropy =      -18.24654608  energy(sigma->0) =      -18.24652281


--------------------------------------------------------------------------------------------------------




--------------------------------------- Iteration      1(   4)  ---------------------------------------


     EDDAV:  cpu time    0.1921: real time    0.2156
       DOS:  cpu time    0.0017: real time    0.0017
    --------------------------------------------
      LOOP:  cpu time    0.1937: real time    0.2172

 eigenvalue-minimisations  :  6000
 total energy-change (2. order) :-0.6239104E-01  (-0.5872660E-01)
 number of electron      16.0000000 magnetization       0.0000000
 augmentation part       16.0000000 magnetization       0.0000000

 Free energy of the ion-electron system (eV)
  ---------------------------------------------------
  alpha Z        PSCENC =       122.10169127
  Ewald energy   TEWEN  =     -1185.52755918
  -Hartree energ DENC   =      -222.53661930
  -exchange      EXHF   =         0.00000000
  -V(xc)+E(xc)   XCENC  =         8.84950467
  PAW double counting   =      1108.55857356    -1123.98403091
  entropy T*S    EENTRO =        -0.00000379
  eigenvalues    EBANDS =        85.64038540
  atomic energy  EATOM  =      1188.58915604
  Solvation  Ediel_sol  =         0.00000000
  ---------------------------------------------------
  free energy    TOTEN  =       -18.30890223 eV

  energy without entropy =      -18.30889844  energy(sigma->0) =      -18.30890096


--------------------------------------------------------------------------------------------------------




--------------------------------------- Iteration      1(   5)  ---------------------------------------


     EDDAV:  cpu time    0.2103: real time    0.2138
       DOS:  cpu time    0.0018: real time    0.0018
    CHARGE:  cpu time    0.0144: real time    0.0144
    MIXING:  cpu time    0.0009: real time    0.0009
    --------------------------------------------
      LOOP:  cpu time    0.2273: real time    0.2308

 eigenvalue-minimisations  :  6272
 total energy-change (2. order) :-0.7322680E-03  (-0.7296193E-03)
 number of electron      15.9999982 magnetization      -0.0000000
 augmentation part        7.1782710 magnetization      -0.0000000

 Broyden mixing:
  rms(total) = 0.15787E+01    rms(broyden)= 0.15784E+01
  rms(prec ) = 0.37012E+01
  weight for this iteration     100.00

 Free energy of the ion-electron system (eV)
  ---------------------------------------------------
  alpha Z        PSCENC =       122.10169127
  Ewald energy   TEWEN  =     -1185.52755918
  -Hartree energ DENC   =      -222.53661930
  -exchange      EXHF   =         0.00000000
  -V(xc)+E(xc)   XCENC  =         8.84950467
  PAW double counting   =      1108.55857356    -1123.98403091
  entropy T*S    EENTRO =        -0.00000259
  eigenvalues    EBANDS =        85.63965193
  atomic energy  EATOM  =      1188.58915604
  Solvation  Ediel_sol  =         0.00000000
  ---------------------------------------------------
  free energy    TOTEN  =       -18.30963449 eV

  energy without entropy =      -18.30963191  energy(sigma->0) =      -18.30963363


--------------------------------------------------------------------------------------------------------




--------------------------------------- Iteration      1(   6)  ---------------------------------------


    POTLOK:  cpu time    0.0095: real time    0.0125
    SETDIJ:  cpu time    0.0059: real time    0.0059
     EDDAV:  cpu time    0.1985: real time    0.1992
       DOS:  cpu time    0.0018: real time    0.0018
    CHARGE:  cpu time    0.0143: real time    0.0143
    MIXING:  cpu time    0.0006: real time    0.0006
    --------------------------------------------
      LOOP:  cpu time    0.2306: real time    0.2344

 eigenvalue-minimisations  :  5772
 total energy-change (2. order) : 0.2497107E+01  (-0.2072725E+01)
 number of electron      15.9999978 magnetization      -0.0000000
 augmentation part        8.5904008 magnetization      -0.0000000

 Broyden mixing:
  rms(total) = 0.61768E+00    rms(broyden)= 0.61720E+00
  rms(prec ) = 0.89236E+00
  weight for this iteration     100.00

 eigenvalues of (default mixing * dielectric matrix)
  average eigenvalue GAMMA=   0.6866
  0.6866

 Free energy of the ion-electron system (eV)
  ---------------------------------------------------
  alpha Z        PSCENC =       122.10169127
  Ewald energy   TEWEN  =     -1185.52755918
  -Hartree energ DENC   =      -188.15330032
  -exchange      EXHF   =         0.00000000
  -V(xc)+E(xc)   XCENC  =         6.85252842
  PAW double counting   =      1212.20039225    -1223.14380134
  entropy T*S    EENTRO =        -0.00009191
  eigenvalues    EBANDS =        51.26845730
  atomic energy  EATOM  =      1188.58915604
  Solvation  Ediel_sol  =         0.00000000
  ---------------------------------------------------
  free energy    TOTEN  =       -15.81252747 eV

  energy without entropy =      -15.81243556  energy(sigma->0) =      -15.81249683


--------------------------------------------------------------------------------------------------------




--------------------------------------- Iteration      1(   7)  ---------------------------------------


    POTLOK:  cpu time    0.0088: real time    0.0113
    SETDIJ:  cpu time    0.0053: real time    0.0053
     EDDAV:  cpu time    0.1984: real time    0.1996
       DOS:  cpu time    0.0018: real time    0.0018
    CHARGE:  cpu time    0.0141: real time    0.0141
    MIXING:  cpu time    0.0005: real time    0.0005
    --------------------------------------------
      LOOP:  cpu time    0.2290: real time    0.2328

 eigenvalue-minimisations  :  5776
 total energy-change (2. order) : 0.2036825E+00  (-0.1274296E+00)
 number of electron      15.9999979 magnetization       0.0000000
 augmentation part        8.2326896 magnetization       0.0000000

 Broyden mixing:
  rms(total) = 0.28274E+00    rms(broyden)= 0.28266E+00
  rms(prec ) = 0.38884E+00
  weight for this iteration     100.00

 eigenvalues of (default mixing * dielectric matrix)
  average eigenvalue GAMMA=   0.8149
  1.0630  0.5669

 Free energy of the ion-electron system (eV)
  ---------------------------------------------------
  alpha Z        PSCENC =       122.10169127
  Ewald energy   TEWEN  =     -1185.52755918
  -Hartree energ DENC   =      -193.41762685
  -exchange      EXHF   =         0.00000000
  -V(xc)+E(xc)   XCENC  =         7.32181141
  PAW double counting   =      1282.36052555    -1296.87484698
  entropy T*S    EENTRO =         0.00003701
  eigenvalues    EBANDS =        59.83796671
  atomic energy  EATOM  =      1188.58915604
  Solvation  Ediel_sol  =         0.00000000
  ---------------------------------------------------
  free energy    TOTEN  =       -15.60884501 eV

  energy without entropy =      -15.60888202  energy(sigma->0) =      -15.60885735


--------------------------------------------------------------------------------------------------------




--------------------------------------- Iteration      1(   8)  ---------------------------------------


    POTLOK:  cpu time    0.0088: real time    0.0116
    SETDIJ:  cpu time    0.0052: real time    0.0052
     EDDAV:  cpu time    0.2048: real time    0.2057
       DOS:  cpu time    0.0017: real time    0.0017
    CHARGE:  cpu time    0.0137: real time    0.0137
    MIXING:  cpu time    0.0005: real time    0.0005
    --------------------------------------------
      LOOP:  cpu time    0.2347: real time    0.2384

 eigenvalue-minimisations  :  5944
 total energy-change (2. order) : 0.1555109E-01  (-0.9763797E-03)
 number of electron      15.9999979 magnetization      -0.0000000
 augmentation part        8.2497295 magnetization      -0.0000000

 Broyden mixing:
  rms(total) = 0.10883E+00    rms(broyden)= 0.10881E+00
  rms(prec ) = 0.20090E+00
  weight for this iteration     100.00

 eigenvalues of (default mixing * dielectric matrix)
  average eigenvalue GAMMA=   1.0630
  1.7814  0.7828  0.6248

 Free energy of the ion-electron system (eV)
  ---------------------------------------------------
  alpha Z        PSCENC =       122.10169127
  Ewald energy   TEWEN  =     -1185.52755918
  -Hartree energ DENC   =      -191.73027633
  -exchange      EXHF   =         0.00000000
  -V(xc)+E(xc)   XCENC  =         7.26418118
  PAW double counting   =      1325.59653688    -1341.23190083
  entropy T*S    EENTRO =         0.00003342
  eigenvalues    EBANDS =        59.34484363
  atomic energy  EATOM  =      1188.58915604
  Solvation  Ediel_sol  =         0.00000000
  ---------------------------------------------------
  free energy    TOTEN  =       -15.59329392 eV

  energy without entropy =      -15.59332734  energy(sigma->0) =      -15.59330506


--------------------------------------------------------------------------------------------------------




--------------------------------------- Iteration      1(   9)  ---------------------------------------


    POTLOK:  cpu time    0.0089: real time    0.0116
    SETDIJ:  cpu time    0.0051: real time    0.0051
     EDDAV:  cpu time    0.2296: real time    0.2303
       DOS:  cpu time    0.0017: real time    0.0017
    CHARGE:  cpu time    0.0136: real time    0.0136
    MIXING:  cpu time    0.0005: real time    0.0005
    --------------------------------------------
      LOOP:  cpu time    0.2594: real time    0.2628

 eigenvalue-minimisations  :  7356
 total energy-change (2. order) : 0.1094381E-01  (-0.6679120E-03)
 number of electron      15.9999979 magnetization      -0.0000000
 augmentation part        8.2769003 magnetization      -0.0000000

 Broyden mixing:
  rms(total) = 0.32095E-01    rms(broyden)= 0.32081E-01
  rms(prec ) = 0.49726E-01
  weight for this iteration     100.00

 eigenvalues of (default mixing * dielectric matrix)
  average eigenvalue GAMMA=   1.2409
  2.5563  1.0426  0.7127  0.6521

 Free energy of the ion-electron system (eV)
  ---------------------------------------------------
  alpha Z        PSCENC =       122.10169127
  Ewald energy   TEWEN  =     -1185.52755918
  -Hartree energ DENC   =      -189.71722328
  -exchange      EXHF   =         0.00000000
  -V(xc)+E(xc)   XCENC  =         7.24212196
  PAW double counting   =      1378.70020630    -1395.64845081
  entropy T*S    EENTRO =         0.00000750
  eigenvalues    EBANDS =        58.67770008
  atomic energy  EATOM  =      1188.58915604
  Solvation  Ediel_sol  =         0.00000000
  ---------------------------------------------------
  free energy    TOTEN  =       -15.58235012 eV

  energy without entropy =      -15.58235762  energy(sigma->0) =      -15.58235262


--------------------------------------------------------------------------------------------------------




--------------------------------------- Iteration      1(  10)  ---------------------------------------


    POTLOK:  cpu time    0.0117: real time    0.0118
    SETDIJ:  cpu time    0.0052: real time    0.0052
     EDDAV:  cpu time    0.2669: real time    0.2705
       DOS:  cpu time    0.0018: real time    0.0018
    CHARGE:  cpu time    0.0142: real time    0.0142
    MIXING:  cpu time    0.0006: real time    0.0006
    --------------------------------------------
      LOOP:  cpu time    0.3005: real time    0.3042

 eigenvalue-minimisations  :  8496
 total energy-change (2. order) : 0.9079331E-03  (-0.1429403E-03)
 number of electron      15.9999979 magnetization       0.0000000
 augmentation part        8.2806327 magnetization       0.0000000

 Broyden mixing:
  rms(total) = 0.76408E-02    rms(broyden)= 0.76161E-02
  rms(prec ) = 0.11419E-01
  weight for this iteration     100.00

 eigenvalues of (default mixing * dielectric matrix)
  average eigenvalue GAMMA=   1.1826
  2.7481  1.1502  0.7096  0.7096  0.5954

 Free energy of the ion-electron system (eV)
  ---------------------------------------------------
  alpha Z        PSCENC =       122.10169127
  Ewald energy   TEWEN  =     -1185.52755918
  -Hartree energ DENC   =      -188.89294473
  -exchange      EXHF   =         0.00000000
  -V(xc)+E(xc)   XCENC  =         7.24837082
  PAW double counting   =      1409.67633889    -1427.38235982
  entropy T*S    EENTRO =        -0.00000932
  eigenvalues    EBANDS =        58.60587386
  atomic energy  EATOM  =      1188.58915604
  Solvation  Ediel_sol  =         0.00000000
  ---------------------------------------------------
  free energy    TOTEN  =       -15.58144218 eV

  energy without entropy =      -15.58143286  energy(sigma->0) =      -15.58143907


--------------------------------------------------------------------------------------------------------




--------------------------------------- Iteration      1(  11)  ---------------------------------------


    POTLOK:  cpu time    0.0091: real time    0.0124
    SETDIJ:  cpu time    0.0059: real time    0.0059
     EDDAV:  cpu time    0.2058: real time    0.2080
       DOS:  cpu time    0.0018: real time    0.0018
    CHARGE:  cpu time    0.0138: real time    0.0138
    MIXING:  cpu time    0.0006: real time    0.0006
    --------------------------------------------
      LOOP:  cpu time    0.2370: real time    0.2424

 eigenvalue-minimisations  :  6324
 total energy-change (2. order) :-0.3098251E-04  (-0.1056961E-04)
 number of electron      15.9999979 magnetization       0.0000000
 augmentation part        8.2797066 magnetization       0.0000000

 Broyden mixing:
  rms(total) = 0.37306E-02    rms(broyden)= 0.37126E-02
  rms(prec ) = 0.67551E-02
  weight for this iteration     100.00

 eigenvalues of (default mixing * dielectric matrix)
  average eigenvalue GAMMA=   1.1939
  2.6147  1.4384  0.9423  0.6334  0.7672  0.7672

 Free energy of the ion-electron system (eV)
  ---------------------------------------------------
  alpha Z        PSCENC =       122.10169127
  Ewald energy   TEWEN  =     -1185.52755918
  -Hartree energ DENC   =      -188.92280491
  -exchange      EXHF   =         0.00000000
  -V(xc)+E(xc)   XCENC  =         7.25815227
  PAW double counting   =      1410.45928006    -1428.16083591
  entropy T*S    EENTRO =         0.00000180
  eigenvalues    EBANDS =        58.62144539
  atomic energy  EATOM  =      1188.58915604
  Solvation  Ediel_sol  =         0.00000000
  ---------------------------------------------------
  free energy    TOTEN  =       -15.58147316 eV

  energy without entropy =      -15.58147496  energy(sigma->0) =      -15.58147376


--------------------------------------------------------------------------------------------------------




--------------------------------------- Iteration      1(  12)  ---------------------------------------


    POTLOK:  cpu time    0.0093: real time    0.0116
    SETDIJ:  cpu time    0.0054: real time    0.0054
     EDDAV:  cpu time    0.2546: real time    0.2862
       DOS:  cpu time    0.0017: real time    0.0017
    CHARGE:  cpu time    0.0136: real time    0.0136
    MIXING:  cpu time    0.0006: real time    0.0006
    --------------------------------------------
      LOOP:  cpu time    0.2851: real time    0.3191

 eigenvalue-minimisations  :  8972
 total energy-change (2. order) : 0.9399105E-05  (-0.2889648E-05)
 number of electron      15.9999979 magnetization       0.0000000
 augmentation part        8.2788121 magnetization       0.0000000

 Broyden mixing:
  rms(total) = 0.16237E-02    rms(broyden)= 0.16098E-02
  rms(prec ) = 0.19210E-02
  weight for this iteration     100.00

 eigenvalues of (default mixing * dielectric matrix)
  average eigenvalue GAMMA=   1.2566
  2.8798  2.2262  1.0159  0.7272  0.7272  0.6101  0.6101

 Free energy of the ion-electron system (eV)
  ---------------------------------------------------
  alpha Z        PSCENC =       122.10169127
  Ewald energy   TEWEN  =     -1185.52755918
  -Hartree energ DENC   =      -189.00627395
  -exchange      EXHF   =         0.00000000
  -V(xc)+E(xc)   XCENC  =         7.26533624
  PAW double counting   =      1409.54638375    -1427.18854033
  entropy T*S    EENTRO =         0.00001139
  eigenvalues    EBANDS =        58.63833100
  atomic energy  EATOM  =      1188.58915604
  Solvation  Ediel_sol  =         0.00000000
  ---------------------------------------------------
  free energy    TOTEN  =       -15.58146377 eV

  energy without entropy =      -15.58147516  energy(sigma->0) =      -15.58146756


--------------------------------------------------------------------------------------------------------




--------------------------------------- Iteration      1(  13)  ---------------------------------------


    POTLOK:  cpu time    0.0089: real time    0.0117
    SETDIJ:  cpu time    0.0051: real time    0.0051
     EDDAV:  cpu time    0.2678: real time    0.2685
       DOS:  cpu time    0.0018: real time    0.0018
    CHARGE:  cpu time    0.0135: real time    0.0135
    MIXING:  cpu time    0.0006: real time    0.0006
    --------------------------------------------
      LOOP:  cpu time    0.2978: real time    0.3011

 eigenvalue-minimisations  :  8616
 total energy-change (2. order) : 0.2630807E-05  (-0.4592848E-06)
 number of electron      15.9999979 magnetization      -0.0000000
 augmentation part        8.2787943 magnetization      -0.0000000

 Broyden mixing:
  rms(total) = 0.82372E-03    rms(broyden)= 0.82098E-03
  rms(prec ) = 0.92349E-03
  weight for this iteration     100.00

 eigenvalues of (default mixing * dielectric matrix)
  average eigenvalue GAMMA=   1.1983
  2.7945  2.0788  0.9680  0.9680  0.7806  0.7806  0.6278  0.5884

 Free energy of the ion-electron system (eV)
  ---------------------------------------------------
  alpha Z        PSCENC =       122.10169127
  Ewald energy   TEWEN  =     -1185.52755918
  -Hartree energ DENC   =      -189.02797155
  -exchange      EXHF   =         0.00000000
  -V(xc)+E(xc)   XCENC  =         7.26996873
  PAW double counting   =      1409.59965610    -1427.22282227
  entropy T*S    EENTRO =         0.00001384
  eigenvalues    EBANDS =        58.63640590
  atomic energy  EATOM  =      1188.58915604
  Solvation  Ediel_sol  =         0.00000000
  ---------------------------------------------------
  free energy    TOTEN  =       -15.58146113 eV

  energy without entropy =      -15.58147497  energy(sigma->0) =      -15.58146575


--------------------------------------------------------------------------------------------------------




--------------------------------------- Iteration      1(  14)  ---------------------------------------


    POTLOK:  cpu time    0.0088: real time    0.0117
    SETDIJ:  cpu time    0.0052: real time    0.0052
     EDDAV:  cpu time    0.2632: real time    0.2643
       DOS:  cpu time    0.0018: real time    0.0018
    CHARGE:  cpu time    0.0135: real time    0.0135
    MIXING:  cpu time    0.0006: real time    0.0006
    --------------------------------------------
      LOOP:  cpu time    0.2931: real time    0.2970

 eigenvalue-minimisations  :  8344
 total energy-change (2. order) :-0.1058238E-05  (-0.1897287E-06)
 number of electron      15.9999979 magnetization      -0.0000000
 augmentation part        8.2790179 magnetization      -0.0000000

 Broyden mixing:
  rms(total) = 0.29124E-03    rms(broyden)= 0.29075E-03
  rms(prec ) = 0.45085E-03
  weight for this iteration     100.00

 eigenvalues of (default mixing * dielectric matrix)
  average eigenvalue GAMMA=   1.2269
  2.7763  2.3844  1.4608  0.9276  0.7819  0.7819  0.6639  0.6639  0.6014

 Free energy of the ion-electron system (eV)
  ---------------------------------------------------
  alpha Z        PSCENC =       122.10169127
  Ewald energy   TEWEN  =     -1185.52755918
  -Hartree energ DENC   =      -189.02049986
  -exchange      EXHF   =         0.00000000
  -V(xc)+E(xc)   XCENC  =         7.26829529
[...]
      6       4.2479      1.00000
      7       5.3775      1.00000
      8       5.5421      1.00000
      9       6.8642      0.00000
     10       7.1980      0.00000
     11      10.7622      0.00000
     12      10.7661      0.00000

 k-point   110 :       0.5000    0.5000    0.2857
  band No.  band energies     occupation 
      1       2.2780      1.00000
      2       2.6288      1.00000
      3       2.9402      1.00000
      4       2.9402      1.00000
      5       4.2947      1.00000
      6       4.2947      1.00000
      7       5.2925      1.00000
      8       5.5256      1.00000
      9       6.8924      0.00000
     10       7.2365      0.00000
     11      11.0211      0.00000
     12      11.0211      0.00000

 k-point   111 :       0.3571    0.3571    0.3571
  band No.  band energies     occupation 
      1       2.5084      1.00000
      2       2.9858      1.00000
      3       2.9858      1.00000
      4       3.0908      1.00000
      5       3.4927      1.00000
      6       3.4927      1.00000
      7       5.6118      1.00000
      8       5.6118      1.00000
      9       6.9362      0.00000
     10       6.9362      0.00000
     11       9.3871      0.00000
     12      13.1995      0.00000

 k-point   112 :       0.4286    0.3571    0.3571
  band No.  band energies     occupation 
      1       2.5164      1.00000
      2       2.9088      1.00000
      3       2.9267      1.00000
      4       3.2807      1.00000
      5       3.4121      1.00000
      6       3.8189      1.00000
      7       5.4962      1.00000
      8       5.5504      1.00000
      9       6.9370      0.00000
     10       7.0934      0.00000
     11      10.1493      0.00000
     12      12.1033      0.00000

 k-point   113 :       0.5000    0.3571    0.3571
  band No.  band energies     occupation 
      1       2.4997      1.00000
      2       2.8723      1.00000
      3       2.9058      1.00000
      4       3.3555      1.00000
      5       3.3831      1.00000
      6       3.9985      1.00000
      7       5.4223      1.00000
      8       5.5315      1.00000
      9       6.9379      0.00000
     10       7.1533      0.00000
     11      11.0402      0.00000
     12      11.0558      0.00000

 k-point   114 :       0.4286    0.4286    0.3571
  band No.  band energies     occupation 
      1       2.5577      1.00000
      2       2.8828      1.00000
      3       2.9068      1.00000
      4       3.2181      1.00000
      5       3.7400      1.00000
      6       3.8022      1.00000
      7       5.4122      1.00000
      8       5.4885      1.00000
      9       7.0262      0.00000
     10       7.1627      0.00000
     11      10.9612      0.00000
     12      12.4913      0.00000

 k-point   115 :       0.5000    0.4286    0.3571
  band No.  band energies     occupation 
      1       2.5563      1.00000
      2       2.8775      1.00000
      3       2.8845      1.00000
      4       3.1856      1.00000
      5       3.7729      1.00000
      6       3.9540      1.00000
      7       5.3520      1.00000
      8       5.4719      1.00000
      9       7.0411      0.00000
     10       7.2086      0.00000
     11      11.8174      0.00000
     12      11.8330      0.00000

 k-point   116 :       0.5000    0.5000    0.3571
  band No.  band energies     occupation 
      1       2.5615      1.00000
      2       2.8815      1.00000
      3       2.8815      1.00000
      4       3.1135      1.00000
      5       3.9535      1.00000
      6       3.9535      1.00000
      7       5.3000      1.00000
      8       5.4534      1.00000
      9       7.0652      0.00000
     10       7.2454      0.00000
     11      12.2437      0.00000
     12      12.2437      0.00000

 k-point   117 :       0.4286    0.4286    0.4286
  band No.  band energies     occupation 
      1       2.6857      1.00000
      2       2.8635      1.00000
      3       2.8635      1.00000
      4       3.5897      1.00000
      5       3.6361      1.00000
      6       3.6361      1.00000
      7       5.3901      1.00000
      8       5.3901      1.00000
      9       7.1695      0.00000
     10       7.1695      0.00000
     11      11.8928      0.00000
     12      13.7622      0.00000

 k-point   118 :       0.5000    0.4286    0.4286
  band No.  band energies     occupation 
      1       2.7174      1.00000
      2       2.8487      1.00000
      3       2.8547      1.00000
      4       3.5754      1.00000
      5       3.5780      1.00000
      6       3.7904      1.00000
      7       5.3345      1.00000
      8       5.3842      1.00000
      9       7.1720      0.00000
     10       7.2245      0.00000
     11      12.8540      0.00000
     12      12.8700      0.00000

 k-point   119 :       0.5000    0.5000    0.4286
  band No.  band energies     occupation 
      1       2.7611      1.00000
      2       2.8447      1.00000
      3       2.8447      1.00000
      4       3.5085      1.00000
      5       3.7416      1.00000
      6       3.7416      1.00000
      7       5.3052      1.00000
      8       5.3582      1.00000
      9       7.2013      0.00000
     10       7.2515      0.00000
     11      13.5372      0.00000
     12      13.5372      0.00000

 k-point   120 :       0.5000    0.5000    0.5000
  band No.  band energies     occupation 
      1       2.8330      1.00000
      2       2.8330      1.00000
      3       2.8330      1.00000
      4       3.6698      1.00000
      5       3.6698      1.00000
      6       3.6698      1.00000
      7       5.3071      1.00000
      8       5.3071      1.00000
      9       7.2539      0.00000
     10       7.2539      0.00000
     11      14.8070      0.00000
     12      14.8070      0.00000


--------------------------------------------------------------------------------------------------------


 soft charge-density along one line, spin component           1
         0         1         2         3         4         5         6         7         8         9
 total charge-density along one line
 
 soft charge-density along one line, spin component           2
         0         1         2         3         4         5         6         7         8         9
 total charge-density along one line
 
 pseudopotential strength for first ion, spin component:           1
 -5.382   0.000   0.000  -0.000   0.000  -5.919   0.000   0.000
  0.000  -5.382   0.000  -0.000   0.000   0.000  -5.919   0.000
  0.000   0.000  -5.568   0.000  -0.000   0.000   0.000  -6.099
 -0.000  -0.000   0.000  -5.382   0.000  -0.000  -0.000   0.000
  0.000   0.000  -0.000   0.000  -5.568   0.000   0.000  -0.000
 -5.919   0.000   0.000  -0.000   0.000  -6.414   0.000   0.000
  0.000  -5.919   0.000  -0.000   0.000   0.000  -6.414   0.000
  0.000   0.000  -6.099   0.000  -0.000   0.000   0.000  -6.589
 -0.000  -0.000   0.000  -5.919   0.000  -0.000  -0.000   0.000
  0.000   0.000  -0.000   0.000  -6.099   0.000   0.000  -0.000
  0.000   0.000  -0.000  -0.000  -0.000   0.000   0.000  -0.000
  0.000   0.000  -0.000  -0.000  -0.000   0.000   0.000  -0.000
  0.000   0.000  -0.000  -0.000  -0.000   0.000   0.000  -0.000
 -0.000   0.000   0.000   0.000  -0.000  -0.000   0.000   0.000
  0.000  -0.000  -0.000   0.000   0.000   0.000  -0.000  -0.000
  0.000   0.000  -0.000  -0.000  -0.000   0.000   0.000  -0.000
 -0.000   0.000   0.000   0.000  -0.000  -0.000   0.000   0.000
  0.000  -0.000  -0.000   0.000   0.000   0.000  -0.000  -0.000
 pseudopotential strength for first ion, spin component:           2
 -4.498   0.000   0.000  -0.000   0.000  -5.063   0.000   0.000
  0.000  -4.498  -0.000  -0.000   0.000   0.000  -5.063  -0.000
  0.000  -0.000  -4.289   0.000  -0.000   0.000  -0.000  -4.859
 -0.000  -0.000   0.000  -4.498   0.000  -0.000  -0.000   0.000
  0.000   0.000  -0.000   0.000  -4.289   0.000   0.000  -0.000
 -5.063   0.000   0.000  -0.000   0.000  -5.585   0.000   0.000
  0.000  -5.063  -0.000  -0.000   0.000   0.000  -5.585  -0.000
  0.000  -0.000  -4.859   0.000  -0.000   0.000  -0.000  -5.386
 -0.000  -0.000   0.000  -5.063   0.000  -0.000  -0.000   0.000
  0.000   0.000  -0.000   0.000  -4.859   0.000   0.000  -0.000
  0.000   0.000   0.000  -0.000  -0.000   0.000   0.000   0.000
  0.000   0.000   0.000  -0.000  -0.000   0.000   0.000   0.000
  0.000   0.000  -0.000  -0.000  -0.000   0.000   0.000  -0.000
 -0.000   0.000   0.000   0.000  -0.000  -0.000   0.000   0.000
  0.000  -0.000  -0.000   0.000   0.000   0.000  -0.000  -0.000
  0.000   0.000  -0.000  -0.000  -0.000   0.000   0.000  -0.000
 -0.000   0.000   0.000   0.000  -0.000  -0.000   0.000   0.000
  0.000  -0.000  -0.000   0.000   0.000   0.000  -0.000  -0.000
 total augmentation occupancy for first ion, spin component:           1
  1.648   0.000  -0.000   0.000   0.000  -0.719  -0.000   0.000  -0.000  -0.000  -0.000  -0.000   0.000  -0.000   0.000   0.000
 -0.000   1.648   0.000  -0.000   0.000   0.000  -0.719   0.000   0.000   0.000  -0.000   0.000   0.000   0.000   0.000   0.000
 -0.000  -0.000   3.263  -0.000   0.000  -0.000   0.000  -2.032   0.000   0.000  -0.000   0.000   0.000   0.000   0.000   0.000
  0.000  -0.000  -0.000   1.648   0.000  -0.000  -0.000   0.000  -0.719   0.000   0.000  -0.000   0.000   0.000   0.000  -0.000
  0.000   0.000   0.000   0.000   3.263  -0.000  -0.000   0.000  -0.000  -2.032   0.000  -0.000   0.000   0.000   0.000   0.000
 -0.719   0.000   0.000  -0.000  -0.000   1.192  -0.000  -0.000   0.000  -0.000  -0.000   0.000  -0.000   0.000  -0.000   0.000
  0.000  -0.719   0.000  -0.000  -0.000  -0.000   1.192   0.000   0.000   0.000  -0.000   0.000   0.000  -0.000   0.000   0.000
  0.000  -0.000  -2.032   0.000   0.000   0.000   0.000   2.054   0.000   0.000   0.000  -0.000   0.000  -0.000  -0.000   0.000
 -0.000   0.000   0.000  -0.719  -0.000   0.000   0.000   0.000   1.192  -0.000  -0.000  -0.000   0.000   0.000  -0.000  -0.000
 -0.000   0.000   0.000   0.000  -2.032  -0.000   0.000  -0.000  -0.000   2.054  -0.000   0.000   0.000  -0.000   0.000   0.000
 -0.000  -0.000  -0.000   0.000   0.000  -0.000  -0.000   0.000  -0.000  -0.000   2.387  -0.265   0.000   0.000   0.000   0.000
 -0.000   0.000   0.000  -0.000  -0.000   0.000   0.000  -0.000   0.000  -0.000  -0.265   0.035   0.000   0.000   0.000   0.000
  0.000   0.000   0.000   0.000   0.000  -0.000   0.000   0.000   0.000   0.000   0.000   0.000   0.292  -0.000  -0.000  -0.024
 -0.000   0.000   0.000   0.000   0.000   0.000   0.000   0.000   0.000   0.000   0.000   0.000  -0.000   0.292   0.000  -0.000
  0.000   0.000   0.000   0.000  -0.000  -0.000   0.000   0.000   0.000   0.000   0.000   0.000  -0.000  -0.000   0.292  -0.000
 -0.000   0.000   0.000  -0.000   0.000   0.000   0.000   0.000  -0.000   0.000   0.000   0.000  -0.024  -0.000  -0.000   0.002
  0.000   0.000   0.000   0.000   0.000  -0.000   0.000   0.000   0.000   0.000   0.000   0.000  -0.000  -0.024   0.000  -0.000
  0.000   0.000  -0.000   0.000   0.000   0.000   0.000   0.000   0.000   0.000  -0.000   0.000  -0.000  -0.000  -0.024  -0.000
 total augmentation occupancy for first ion, spin component:           2
  0.399   0.000  -0.000  -0.000  -0.000   0.060   0.000   0.000   0.000   0.000   0.000   0.000   0.000   0.000  -0.000   0.000
  0.000   0.399   0.000  -0.000  -0.000   0.000   0.060   0.000  -0.000  -0.000   0.000   0.000   0.000   0.000   0.000   0.000
 -0.000  -0.000   2.325   0.000   0.000  -0.000   0.000  -1.169   0.000  -0.000  -0.000  -0.000   0.000  -0.000   0.000  -0.000
 -0.000  -0.000   0.000   0.399  -0.000   0.000  -0.000   0.000   0.060   0.000   0.000   0.000   0.000   0.000   0.000   0.000
  0.000  -0.000   0.000  -0.000   2.325   0.000  -0.000   0.000  -0.000  -1.169   0.000  -0.000  -0.000   0.000  -0.000   0.000
  0.060   0.000  -0.000   0.000   0.000  -0.308   0.000   0.000   0.000  -0.000   0.000   0.000   0.000   0.000   0.000   0.000
  0.000   0.060   0.000   0.000  -0.000   0.000  -0.308  -0.000  -0.000   0.000   0.000   0.000   0.000   0.000   0.000   0.000
  0.000   0.000  -1.169   0.000   0.000   0.000   0.000   0.548  -0.000  -0.000   0.000   0.000   0.000   0.000   0.000  -0.000
 -0.000  -0.000   0.000   0.060  -0.000   0.000   0.000  -0.000  -0.308   0.000  -0.000  -0.000   0.000   0.000   0.000  -0.000
  0.000  -0.000   0.000   0.000  -1.169  -0.000   0.000  -0.000  -0.000   0.548   0.000   0.000  -0.000   0.000  -0.000   0.000
  0.000   0.000  -0.000  -0.000  -0.000   0.000   0.000   0.000   0.000   0.000  -0.124   0.065  -0.000   0.000   0.000  -0.000
 -0.000  -0.000  -0.000   0.000  -0.000  -0.000  -0.000   0.000   0.000   0.000   0.065  -0.011   0.000   0.000   0.000   0.000
  0.000   0.000   0.000   0.000   0.000   0.000   0.000  -0.000   0.000   0.000  -0.000   0.000   0.005   0.000   0.000   0.004
  0.000   0.000  -0.000   0.000  -0.000   0.000   0.000   0.000   0.000   0.000   0.000   0.000  -0.000   0.005  -0.000  -0.000
  0.000   0.000  -0.000  -0.000  -0.000   0.000   0.000   0.000   0.000   0.000  -0.000   0.000  -0.000   0.000   0.005  -0.000
  0.000   0.000   0.000   0.000  -0.000   0.000   0.000   0.000  -0.000   0.000  -0.000  -0.000   0.004   0.000   0.000  -0.001
  0.000   0.000  -0.000   0.000   0.000  -0.000   0.000   0.000   0.000   0.000  -0.000   0.000  -0.000   0.004  -0.000  -0.000
 -0.000   0.000   0.000   0.000   0.000   0.000   0.000   0.000  -0.000  -0.000  -0.000  -0.000  -0.000   0.000   0.004  -0.000


------------------------ aborting loop because EDIFF is reached ----------------------------------------


 


 total charge     
 
# of ion       s       p       d       tot
------------------------------------------
    1        0.491   0.542   6.237   7.270
    2        0.491   0.542   6.237   7.270
--------------------------------------------------
tot          0.982   1.084  12.473  14.539
 


 magnetization (x)
 
# of ion       s       p       d       tot
------------------------------------------
    1        0.020   0.027   1.482   1.529
    2       -0.020  -0.027  -1.482  -1.529
--------------------------------------------------
tot         -0.000  -0.000   0.000   0.000
 
    CHARGE:  cpu time    0.0146: real time    0.0146
    FORLOC:  cpu time    0.0002: real time    0.0002
    FORNL :  cpu time    0.0263: real time    0.0263
    STRESS:  cpu time    0.0669: real time    0.0669
    FORCOR:  cpu time    0.0082: real time    0.0082
    FORHAR:  cpu time    0.0008: real time    0.0008
    MIXING:  cpu time    0.0007: real time    0.0007
    OFIELD:  cpu time    0.0001: real time    0.0001

  FORCE on cell =-STRESS in cart. coord.  units (eV):
  Direction    XX          YY          ZZ          XY          YZ          ZX
  --------------------------------------------------------------------------------------
  Alpha Z   122.10169   122.10169   122.10169
  Ewald    -395.17582  -395.17582  -395.17582     0.00000     0.00000     0.00000
  Hartree    63.00795    63.00795    63.00795    -0.00000    -0.00000    -0.00000
  E(xc)     -78.34387   -78.34387   -78.34387     0.00000    -0.00000     0.00000
  Local     117.76517   117.76517   117.76517    -0.00000     0.00000    -0.00000
  n-local   -54.77172   -52.51084   -51.01424     2.52288    -0.15044     0.81408
  augment    76.60143    76.60143    76.60143    -0.00000     0.00000     0.00000
  Kinetic   146.73809   147.12835   143.97694     3.13654    -1.00062    -0.36736
  Fock        0.00000     0.00000     0.00000     0.00000     0.00000     0.00000
  -------------------------------------------------------------------------------------
  Total      -0.86126    -0.86126    -0.86126     0.00000     0.00000    -0.00000
  in kB     -60.94543   -60.94543   -60.94543     0.00000     0.00000    -0.00000
  external pressure =      -60.95 kB  Pullay stress =        0.00 kB


 VOLUME and BASIS-vectors are now :
 -----------------------------------------------------------------------------
  energy-cutoff  :      349.00
  volume of cell :       22.64
      direct lattice vectors                 reciprocal lattice vectors
     2.829008882  0.000000000  0.000000000     0.353480686  0.000000000  0.000000000
     0.000000000  2.829008882  0.000000000     0.000000000  0.353480686  0.000000000
     0.000000000  0.000000000  2.829008882     0.000000000  0.000000000  0.353480686

  length of vectors
     2.829008882  2.829008882  2.829008882     0.353480686  0.353480686  0.353480686


 FORCES acting on ions
    electron-ion (+dipol)            ewald-force                    non-local-force                 convergence-correction
 -----------------------------------------------------------------------------------------------
   0.441E-08 0.441E-08 0.441E-08   -.853E-08 -.853E-08 -.853E-08   -.129E-25 0.000E+00 -.517E-25   0.303E-12 0.313E-12 0.301E-12
   -.364E-08 -.364E-08 -.363E-08   0.853E-08 0.853E-08 0.853E-08   0.000E+00 0.000E+00 0.000E+00   -.267E-12 -.264E-12 -.284E-12
 -----------------------------------------------------------------------------------------------
   0.776E-09 0.775E-09 0.776E-09   0.595E-15 -.129E-14 0.503E-16   -.129E-25 0.000E+00 -.517E-25   0.357E-13 0.492E-13 0.172E-13
 
 
 POSITION                                       TOTAL-FORCE (eV/Angst)
 -----------------------------------------------------------------------------------
      0.00000      0.00000      0.00000         0.000000      0.000000      0.000000
      1.41450      1.41450      1.41450         0.000000      0.000000      0.000000
 -----------------------------------------------------------------------------------
    total drift:                                0.000000      0.000000      0.000000


--------------------------------------------------------------------------------------------------------



  FREE ENERGIE OF THE ION-ELECTRON SYSTEM (eV)
  ---------------------------------------------------
  free  energy   TOTEN  =       -15.58146220 eV

  energy  without entropy=      -15.58147450  energy(sigma->0) =      -15.58146630
 


--------------------------------------------------------------------------------------------------------


    POTLOK:  cpu time    0.0133: real time    0.0134


--------------------------------------------------------------------------------------------------------


     LOOP+:  cpu time    4.1205: real time    4.2642
    4ORBIT:  cpu time    0.0000: real time    0.0000
 


 total charge     
 
# of ion       s       p       d       tot
------------------------------------------
    1        0.491   0.542   6.237   7.270
    2        0.491   0.542   6.237   7.270
--------------------------------------------------
tot          0.982   1.084  12.473  14.539
 


 magnetization (x)
 
# of ion       s       p       d       tot
------------------------------------------
    1        0.020   0.027   1.482   1.529
    2       -0.020  -0.027  -1.482  -1.529
--------------------------------------------------
tot         -0.000  -0.000   0.000   0.000
 

 total amount of memory used by VASP MPI-rank0    36071. kBytes
=======================================================================

   base      :      30000. kBytes
   nonl-proj :       1159. kBytes
   fftplans  :        302. kBytes
   grid      :        663. kBytes
   one-center:         31. kBytes
   wavefun   :       3916. kBytes
 
  
  
 General timing and accounting informations for this job:
 ========================================================
  
                  Total CPU time used (sec):        6.453
                            User time (sec):        4.484
                          System time (sec):        1.969
                         Elapsed time (sec):        6.530
  
                   Maximum memory used (kb):       64432.
                   Average memory used (kb):           0.
  
                          Minor page faults:        21594
                          Major page faults:           17
                 Voluntary context switches:         2842
