  36  36   1   0
  0.1314651E+02  0.8250148E-09  0.8250148E-09  0.6953274E-09  0.2000000E-15
  1.000000000000000E-004
  CAR 
 AlMn_pv                                 
     11.96014654     -4.53367920  301      7.72610970      1.00000000
     -4.534  0.0000E+00  0.0000E+00  0.0000E+00  0.0000E+00
     -4.479  0.0000E+00  0.0000E+00  0.0000E+00  0.0000E+00
     -4.424  0.0000E+00  0.0000E+00  0.0000E+00  0.0000E+00
     -4.369  0.0000E+00  0.0000E+00  0.0000E+00  0.0000E+00
     -4.314  0.0000E+00  0.0000E+00  0.0000E+00  0.0000E+00
     -4.259  0.0000E+00  0.0000E+00  0.0000E+00  0.0000E+00
     -4.204  0.0000E+00  0.0000E+00  0.0000E+00  0.0000E+00
     -4.149 -0.1312E-28 -0.1874E-29 -0.7211E-30 -0.1030E-30
     -4.094 -0.9874E-27 -0.1502E-27 -0.5501E-28 -0.8363E-29
     -4.039 -0.6432E-25 -0.1051E-25 -0.3591E-26 -0.5861E-27
     -3.984 -0.3597E-23 -0.6283E-24 -0.2014E-24 -0.3513E-25
     -3.929 -0.1727E-21 -0.3226E-22 -0.9698E-23 -0.1809E-23
     -3.874 -0.7120E-20 -0.1422E-20 -0.4012E-21 -0.7998E-22
     -3.819 -0.2520E-18 -0.5380E-19 -0.1425E-19 -0.3038E-20
     -3.764 -0.7654E-17 -0.1747E-17 -0.4351E-18 -0.9911E-19
     -3.709 -0.1929E-15 -0.4872E-16 -0.1104E-16 -0.2778E-17
     -3.654 -0.4334E-14 -0.1133E-14 -0.2493E-15 -0.6505E-16
     -3.599 -0.8290E-13 -0.2316E-13 -0.4807E-14 -0.1338E-14
     -3.544 -0.1363E-11 -0.4074E-12 -0.7974E-13 -0.2374E-13
     -3.489 -0.1923E-10 -0.6146E-11 -0.1137E-11 -0.3616E-12
     -3.434 -0.2329E-09 -0.7959E-10 -0.1394E-10 -0.4737E-11
     -3.379 -0.2421E-08 -0.8848E-09 -0.1471E-09 -0.5338E-10
     -3.324 -0.2162E-07 -0.8448E-08 -0.1336E-08 -0.5178E-09
     -3.269 -0.1659E-06 -0.6929E-07 -0.1046E-07 -0.4327E-08
     -3.214 -0.1094E-05 -0.4884E-06 -0.7062E-07 -0.3118E-07
     -3.159 -0.6206E-05 -0.2960E-05 -0.4118E-06 -0.1939E-06
     -3.104 -0.3028E-04 -0.1543E-04 -0.2076E-05 -0.1042E-05
     -3.049 -0.1270E-03 -0.6918E-04 -0.9060E-05 -0.4845E-05
     -2.994 -0.4578E-03 -0.2666E-03 -0.3423E-04 -0.1950E-04
     -2.939 -0.1413E-02 -0.8814E-03 -0.1119E-03 -0.6796E-04
     -2.884 -0.3713E-02 -0.2489E-02 -0.3160E-03 -0.2048E-03
     -2.829 -0.8193E-02 -0.5943E-02 -0.7665E-03 -0.5315E-03
     -2.774 -0.1474E-01 -0.1176E-01 -0.1577E-02 -0.1178E-02
     -2.719 -0.2001E-01 -0.1835E-01 -0.2677E-02 -0.2187E-02
     -2.664 -0.1471E-01 -0.1926E-01 -0.3486E-02 -0.3246E-02
     -2.609  0.1659E-01 -0.1429E-02 -0.2573E-02 -0.3324E-02
     -2.554  0.8961E-01  0.5198E-01  0.2353E-02 -0.4662E-03
     -2.499  0.2081E+00  0.1516E+00  0.1380E-01  0.7871E-02
     -2.444  0.3539E+00  0.2894E+00  0.3326E-01  0.2378E-01
     -2.389  0.4918E+00  0.4355E+00  0.6029E-01  0.4773E-01
     -2.335  0.5950E+00  0.5556E+00  0.9300E-01  0.7828E-01
     -2.280  0.6734E+00  0.6415E+00  0.1300E+00  0.1135E+00
     -2.225  0.7723E+00  0.7262E+00  0.1725E+00  0.1535E+00
     -2.170  0.9278E+00  0.8568E+00  0.2235E+00  0.2006E+00
     -2.115  0.1114E+01  0.1038E+01  0.2848E+00  0.2576E+00
     -2.060  0.1245E+01  0.1204E+01  0.3532E+00  0.3238E+00
     -2.005  0.1243E+01  0.1262E+01  0.4215E+00  0.3932E+00
     -1.950  0.1128E+01  0.1186E+01  0.4835E+00  0.4584E+00
     -1.895  0.1022E+01  0.1059E+01  0.5397E+00  0.5167E+00
     -1.840  0.1056E+01  0.1024E+01  0.5978E+00  0.5730E+00
     -1.785  0.1256E+01  0.1159E+01  0.6669E+00  0.6367E+00
     -1.730  0.1526E+01  0.1415E+01  0.7507E+00  0.7145E+00
     -1.675  0.1722E+01  0.1654E+01  0.8454E+00  0.8054E+00
     -1.620  0.1767E+01  0.1764E+01  0.9426E+00  0.9024E+00
     -1.565  0.1698E+01  0.1733E+01  0.1036E+01  0.9977E+00
     -1.510  0.1629E+01  0.1652E+01  0.1126E+01  0.1089E+01
     -1.455  0.1657E+01  0.1634E+01  0.1217E+01  0.1178E+01
     -1.400  0.1770E+01  0.1719E+01  0.1314E+01  0.1273E+01
     -1.345  0.1855E+01  0.1831E+01  0.1416E+01  0.1374E+01
     -1.290  0.1804E+01  0.1844E+01  0.1515E+01  0.1475E+01
     -1.235  0.1642E+01  0.1719E+01  0.1605E+01  0.1569E+01
     -1.180  0.1540E+01  0.1573E+01  0.1690E+01  0.1656E+01
     -1.125  0.1654E+01  0.1587E+01  0.1781E+01  0.1743E+01
     -1.070  0.1979E+01  0.1831E+01  0.1890E+01  0.1844E+01
     -1.015  0.2346E+01  0.2198E+01  0.2019E+01  0.1965E+01
     -0.960  0.2583E+01  0.2501E+01  0.2161E+01  0.2102E+01
     -0.905  0.2649E+01  0.2635E+01  0.2306E+01  0.2247E+01
     -0.850  0.2618E+01  0.2635E+01  0.2450E+01  0.2392E+01
     -0.795  0.2563E+01  0.2584E+01  0.2591E+01  0.2534E+01
     -0.740  0.2471E+01  0.2509E+01  0.2727E+01  0.2672E+01
     -0.685  0.2289E+01  0.2372E+01  0.2853E+01  0.2802E+01
     -0.630  0.2037E+01  0.2156E+01  0.2965E+01  0.2921E+01
     -0.575  0.1847E+01  0.1941E+01  0.3067E+01  0.3028E+01
     -0.520  0.1875E+01  0.1875E+01  0.3170E+01  0.3131E+01
     -0.465  0.2167E+01  0.2050E+01  0.3289E+01  0.3243E+01
     -0.410  0.2618E+01  0.2427E+01  0.3433E+01  0.3377E+01
     -0.355  0.3048E+01  0.2861E+01  0.3600E+01  0.3534E+01
     -0.300  0.3328E+01  0.3210E+01  0.3783E+01  0.3711E+01
     -0.245  0.3432E+01  0.3401E+01  0.3972E+01  0.3898E+01
     -0.190  0.3411E+01  0.3441E+01  0.4159E+01  0.4087E+01
     -0.135  0.3335E+01  0.3383E+01  0.4343E+01  0.4273E+01
     -0.080  0.3249E+01  0.3289E+01  0.4522E+01  0.4454E+01
     -0.025  0.3169E+01  0.3204E+01  0.4696E+01  0.4630E+01
      0.030  0.3104E+01  0.3146E+01  0.4866E+01  0.4803E+01
      0.085  0.3075E+01  0.3110E+01  0.5036E+01  0.4974E+01
      0.140  0.3111E+01  0.3102E+01  0.5207E+01  0.5144E+01
      0.195  0.3222E+01  0.3139E+01  0.5384E+01  0.5317E+01
      0.250  0.3374E+01  0.3236E+01  0.5569E+01  0.5495E+01
      0.305  0.3484E+01  0.3363E+01  0.5761E+01  0.5680E+01
      0.359  0.3466E+01  0.3436E+01  0.5951E+01  0.5869E+01
      0.414  0.3294E+01  0.3365E+01  0.6132E+01  0.6054E+01
      0.469  0.3053E+01  0.3153E+01  0.6300E+01  0.6227E+01
      0.524  0.2910E+01  0.2931E+01  0.6460E+01  0.6388E+01
      0.579  0.2990E+01  0.2879E+01  0.6625E+01  0.6547E+01
      0.634  0.3276E+01  0.3070E+01  0.6805E+01  0.6715E+01
      0.689  0.3625E+01  0.3409E+01  0.7004E+01  0.6903E+01
      0.744  0.3898E+01  0.3731E+01  0.7218E+01  0.7108E+01
      0.799  0.4043E+01  0.3932E+01  0.7441E+01  0.7324E+01
      0.854  0.4068E+01  0.4007E+01  0.7664E+01  0.7544E+01
      0.909  0.3975E+01  0.3975E+01  0.7883E+01  0.7763E+01
      0.964  0.3775E+01  0.3833E+01  0.8090E+01  0.7974E+01
      1.019  0.3544E+01  0.3610E+01  0.8285E+01  0.8172E+01
      1.074  0.3404E+01  0.3405E+01  0.8472E+01  0.8359E+01
      1.129  0.3413E+01  0.3328E+01  0.8660E+01  0.8542E+01
      1.184  0.3500E+01  0.3384E+01  0.8853E+01  0.8728E+01
      1.239  0.3552E+01  0.3460E+01  0.9048E+01  0.8919E+01
      1.294  0.3544E+01  0.3465E+01  0.9243E+01  0.9109E+01
      1.349  0.3543E+01  0.3423E+01  0.9437E+01  0.9297E+01
      1.404  0.3582E+01  0.3423E+01  0.9634E+01  0.9485E+01
      1.459  0.3602E+01  0.3479E+01  0.9832E+01  0.9677E+01
      1.514  0.3555E+01  0.3510E+01  0.1003E+02  0.9870E+01
      1.569  0.3533E+01  0.3475E+01  0.1022E+02  0.1006E+02
      1.624  0.3721E+01  0.3472E+01  0.1043E+02  0.1025E+02
      1.679  0.4210E+01  0.3679E+01  0.1066E+02  0.1045E+02
      1.734  0.4861E+01  0.4165E+01  0.1093E+02  0.1068E+02
      1.789  0.5379E+01  0.4786E+01  0.1122E+02  0.1095E+02
      1.844  0.5534E+01  0.5262E+01  0.1153E+02  0.1124E+02
      1.899  0.5322E+01  0.5385E+01  0.1182E+02  0.1153E+02
      1.954  0.4943E+01  0.5160E+01  0.1209E+02  0.1182E+02
      2.009  0.4651E+01  0.4781E+01  0.1235E+02  0.1208E+02
      2.064  0.4618E+01  0.4476E+01  0.1260E+02  0.1232E+02
      2.119  0.4889E+01  0.4385E+01  0.1287E+02  0.1257E+02
      2.174  0.5377E+01  0.4541E+01  0.1316E+02  0.1281E+02
      2.229  0.5875E+01  0.4902E+01  0.1349E+02  0.1308E+02
      2.284  0.6128E+01  0.5343E+01  0.1382E+02  0.1338E+02
      2.339  0.5978E+01  0.5674E+01  0.1415E+02  0.1369E+02
      2.394  0.5482E+01  0.5721E+01  0.1445E+02  0.1400E+02
      2.449  0.4878E+01  0.5454E+01  0.1472E+02  0.1430E+02
      2.504  0.4440E+01  0.5013E+01  0.1497E+02  0.1458E+02
      2.559  0.4331E+01  0.4620E+01  0.1520E+02  0.1483E+02
      2.614  0.4555E+01  0.4439E+01  0.1545E+02  0.1508E+02
      2.669  0.4988E+01  0.4506E+01  0.1573E+02  0.1533E+02
      2.724  0.5460E+01  0.4750E+01  0.1603E+02  0.1559E+02
      2.779  0.5826E+01  0.5073E+01  0.1635E+02  0.1587E+02
      2.834  0.6015E+01  0.5394E+01  0.1668E+02  0.1616E+02
      2.889  0.6037E+01  0.5658E+01  0.1701E+02  0.1647E+02
      2.944  0.5986E+01  0.5799E+01  0.1734E+02  0.1679E+02
      2.999  0.5999E+01  0.5780E+01  0.1767E+02  0.1711E+02
      3.053  0.6152E+01  0.5656E+01  0.1801E+02  0.1742E+02
      3.108  0.6369E+01  0.5566E+01  0.1836E+02  0.1773E+02
      3.163  0.6477E+01  0.5613E+01  0.1872E+02  0.1804E+02
      3.218  0.6364E+01  0.5751E+01  0.1907E+02  0.1835E+02
      3.273  0.6062E+01  0.5840E+01  0.1940E+02  0.1867E+02
      3.328  0.5677E+01  0.5796E+01  0.1971E+02  0.1899E+02
      3.383  0.5280E+01  0.5657E+01  0.2000E+02  0.1930E+02
      3.438  0.4916E+01  0.5496E+01  0.2027E+02  0.1960E+02
      3.493  0.4671E+01  0.5326E+01  0.2053E+02  0.1990E+02
      3.548  0.4672E+01  0.5126E+01  0.2078E+02  0.2018E+02
      3.603  0.4994E+01  0.4946E+01  0.2106E+02  0.2045E+02
      3.658  0.5585E+01  0.4930E+01  0.2137E+02  0.2072E+02
      3.713  0.6280E+01  0.5198E+01  0.2171E+02  0.2101E+02
      3.768  0.6900E+01  0.5712E+01  0.2209E+02  0.2132E+02
      3.823  0.7358E+01  0.6273E+01  0.2250E+02  0.2167E+02
      3.878  0.7719E+01  0.6679E+01  0.2292E+02  0.2203E+02
      3.933  0.8174E+01  0.6884E+01  0.2337E+02  0.2241E+02
      3.988  0.8918E+01  0.7020E+01  0.2386E+02  0.2280E+02
      4.043  0.1002E+02  0.7283E+01  0.2441E+02  0.2320E+02
      4.098  0.1136E+02  0.7803E+01  0.2504E+02  0.2363E+02
      4.153  0.1269E+02  0.8601E+01  0.2573E+02  0.2410E+02
      4.208  0.1379E+02  0.9597E+01  0.2649E+02  0.2463E+02
      4.263  0.1455E+02  0.1064E+02  0.2729E+02  0.2521E+02
      4.318  0.1500E+02  0.1154E+02  0.2812E+02  0.2585E+02
      4.373  0.1519E+02  0.1219E+02  0.2895E+02  0.2652E+02
      4.428  0.1516E+02  0.1260E+02  0.2978E+02  0.2721E+02
      4.483  0.1501E+02  0.1287E+02  0.3061E+02  0.2792E+02
      4.538  0.1486E+02  0.1309E+02  0.3143E+02  0.2864E+02
      4.593  0.1480E+02  0.1327E+02  0.3224E+02  0.2937E+02
      4.648  0.1487E+02  0.1343E+02  0.3306E+02  0.3011E+02
      4.703  0.1502E+02  0.1359E+02  0.3388E+02  0.3085E+02
      4.758  0.1519E+02  0.1380E+02  0.3472E+02  0.3161E+02
      4.813  0.1536E+02  0.1408E+02  0.3556E+02  0.3239E+02
      4.868  0.1563E+02  0.1438E+02  0.3642E+02  0.3318E+02
      4.923  0.1616E+02  0.1465E+02  0.3731E+02  0.3398E+02
      4.978  0.1710E+02  0.1484E+02  0.3825E+02  0.3480E+02
      5.033  0.1853E+02  0.1504E+02  0.3927E+02  0.3563E+02
      5.088  0.2036E+02  0.1543E+02  0.4039E+02  0.3647E+02
      5.143  0.2226E+02  0.1625E+02  0.4161E+02  0.3737E+02
      5.198  0.2376E+02  0.1758E+02  0.4292E+02  0.3833E+02
      5.253  0.2440E+02  0.1920E+02  0.4426E+02  0.3939E+02
      5.308  0.2407E+02  0.2065E+02  0.4558E+02  0.4052E+02
      5.363  0.2304E+02  0.2152E+02  0.4685E+02  0.4171E+02
      5.418  0.2179E+02  0.2165E+02  0.4805E+02  0.4290E+02
      5.473  0.2076E+02  0.2124E+02  0.4919E+02  0.4407E+02
      5.528  0.2015E+02  0.2054E+02  0.5030E+02  0.4519E+02
      5.583  0.1992E+02  0.1973E+02  0.5139E+02  0.4628E+02
      5.638  0.1986E+02  0.1884E+02  0.5249E+02  0.4732E+02
      5.692  0.1974E+02  0.1788E+02  0.5357E+02  0.4830E+02
      5.747  0.1937E+02  0.1699E+02  0.5464E+02  0.4923E+02
      5.802  0.1875E+02  0.1630E+02  0.5567E+02  0.5013E+02
      5.857  0.1810E+02  0.1586E+02  0.5666E+02  0.5100E+02
      5.912  0.1770E+02  0.1555E+02  0.5764E+02  0.5186E+02
      5.967  0.1775E+02  0.1516E+02  0.5861E+02  0.5269E+02
      6.022  0.1824E+02  0.1464E+02  0.5961E+02  0.5349E+02
      6.077  0.1901E+02  0.1414E+02  0.6066E+02  0.5427E+02
      6.132  0.1991E+02  0.1402E+02  0.6175E+02  0.5504E+02
      6.187  0.2087E+02  0.1451E+02  0.6290E+02  0.5584E+02
      6.242  0.2197E+02  0.1559E+02  0.6411E+02  0.5670E+02
      6.297  0.2334E+02  0.1705E+02  0.6539E+02  0.5763E+02
      6.352  0.2515E+02  0.1867E+02  0.6678E+02  0.5866E+02
      6.407  0.2741E+02  0.2037E+02  0.6828E+02  0.5978E+02
      6.462  0.2979E+02  0.2220E+02  0.6992E+02  0.6100E+02
      6.517  0.3173E+02  0.2412E+02  0.7166E+02  0.6233E+02
      6.572  0.3262E+02  0.2597E+02  0.7346E+02  0.6376E+02
      6.627  0.3219E+02  0.2747E+02  0.7523E+02  0.6527E+02
      6.682  0.3068E+02  0.2829E+02  0.7691E+02  0.6682E+02
      6.737  0.2869E+02  0.2811E+02  0.7849E+02  0.6837E+02
      6.792  0.2675E+02  0.2678E+02  0.7996E+02  0.6984E+02
      6.847  0.2508E+02  0.2447E+02  0.8134E+02  0.7118E+02
      6.902  0.2353E+02  0.2166E+02  0.8264E+02  0.7238E+02
      6.957  0.2181E+02  0.1897E+02  0.8383E+02  0.7342E+02
      7.012  0.1982E+02  0.1692E+02  0.8492E+02  0.7435E+02
      7.067  0.1775E+02  0.1579E+02  0.8590E+02  0.7522E+02
      7.122  0.1590E+02  0.1546E+02  0.8677E+02  0.7607E+02
      7.177  0.1451E+02  0.1554E+02  0.8757E+02  0.7692E+02
      7.232  0.1360E+02  0.1557E+02  0.8832E+02  0.7778E+02
      7.287  0.1299E+02  0.1538E+02  0.8903E+02  0.7862E+02
      7.342  0.1253E+02  0.1513E+02  0.8972E+02  0.7945E+02
      7.397  0.1223E+02  0.1510E+02  0.9039E+02  0.8028E+02
      7.452  0.1221E+02  0.1535E+02  0.9107E+02  0.8113E+02
      7.507  0.1258E+02  0.1565E+02  0.9176E+02  0.8199E+02
      7.562  0.1324E+02  0.1560E+02  0.9249E+02  0.8285E+02
      7.617  0.1389E+02  0.1508E+02  0.9325E+02  0.8368E+02
      7.672  0.1425E+02  0.1425E+02  0.9403E+02  0.8446E+02
      7.727  0.1426E+02  0.1348E+02  0.9482E+02  0.8520E+02
      7.782  0.1399E+02  0.1302E+02  0.9559E+02  0.8592E+02
      7.837  0.1365E+02  0.1297E+02  0.9634E+02  0.8663E+02
      7.892  0.1337E+02  0.1327E+02  0.9707E+02  0.8736E+02
      7.947  0.1317E+02  0.1386E+02  0.9780E+02  0.8812E+02
      8.002  0.1298E+02  0.1466E+02  0.9851E+02  0.8893E+02
      8.057  0.1269E+02  0.1559E+02  0.9921E+02  0.8978E+02
      8.112  0.1229E+02  0.1648E+02  0.9988E+02  0.9069E+02
      8.167  0.1186E+02  0.1713E+02  0.1005E+03  0.9163E+02
      8.222  0.1153E+02  0.1730E+02  0.1012E+03  0.9258E+02
      8.277  0.1144E+02  0.1692E+02  0.1018E+03  0.9351E+02
      8.332  0.1167E+02  0.1617E+02  0.1024E+03  0.9440E+02
      8.386  0.1212E+02  0.1539E+02  0.1031E+03  0.9525E+02
      8.441  0.1259E+02  0.1501E+02  0.1038E+03  0.9607E+02
      8.496  0.1293E+02  0.1531E+02  0.1045E+03  0.9692E+02
      8.551  0.1315E+02  0.1634E+02  0.1052E+03  0.9781E+02
      8.606  0.1340E+02  0.1793E+02  0.1060E+03  0.9880E+02
      8.661  0.1378E+02  0.1974E+02  0.1067E+03  0.9989E+02
      8.716  0.1423E+02  0.2139E+02  0.1075E+03  0.1011E+03
      8.771  0.1452E+02  0.2254E+02  0.1083E+03  0.1023E+03
      8.826  0.1447E+02  0.2295E+02  0.1091E+03  0.1036E+03
      8.881  0.1404E+02  0.2254E+02  0.1099E+03  0.1048E+03
      8.936  0.1350E+02  0.2140E+02  0.1106E+03  0.1060E+03
      8.991  0.1314E+02  0.1982E+02  0.1113E+03  0.1071E+03
      9.046  0.1308E+02  0.1817E+02  0.1121E+03  0.1081E+03
      9.101  0.1304E+02  0.1677E+02  0.1128E+03  0.1090E+03
      9.156  0.1257E+02  0.1569E+02  0.1135E+03  0.1099E+03
      9.211  0.1136E+02  0.1473E+02  0.1141E+03  0.1107E+03
      9.266  0.9541E+01  0.1368E+02  0.1146E+03  0.1114E+03
      9.321  0.7503E+01  0.1248E+02  0.1150E+03  0.1121E+03
      9.376  0.5627E+01  0.1128E+02  0.1153E+03  0.1127E+03
      9.431  0.4099E+01  0.1025E+02  0.1156E+03  0.1133E+03
      9.486  0.2931E+01  0.9400E+01  0.1157E+03  0.1138E+03
      9.541  0.2058E+01  0.8593E+01  0.1158E+03  0.1143E+03
      9.596  0.1400E+01  0.7703E+01  0.1159E+03  0.1147E+03
      9.651  0.8972E+00  0.6688E+01  0.1160E+03  0.1151E+03
      9.706  0.5146E+00  0.5563E+01  0.1160E+03  0.1154E+03
      9.761  0.2409E+00  0.4370E+01  0.1160E+03  0.1156E+03
      9.816  0.6966E-01  0.3182E+01  0.1160E+03  0.1158E+03
      9.871 -0.1586E-01  0.2106E+01  0.1160E+03  0.1159E+03
      9.926 -0.4298E-01  0.1237E+01  0.1160E+03  0.1160E+03
      9.981 -0.3981E-01  0.6140E+00  0.1160E+03  0.1160E+03
     10.036 -0.2679E-01  0.2212E+00  0.1160E+03  0.1160E+03
     10.091 -0.1463E-01  0.1155E-01  0.1160E+03  0.1160E+03
     10.146 -0.6711E-02 -0.7102E-01  0.1160E+03  0.1160E+03
     10.201 -0.2613E-02 -0.7995E-01  0.1160E+03  0.1160E+03
     10.256 -0.8670E-03 -0.5832E-01  0.1160E+03  0.1160E+03
     10.311 -0.2454E-03 -0.3311E-01  0.1160E+03  0.1160E+03
     10.366 -0.5928E-04 -0.1539E-01  0.1160E+03  0.1160E+03
     10.421 -0.1222E-04 -0.5976E-02  0.1160E+03  0.1160E+03
     10.476 -0.2149E-05 -0.1958E-02  0.1160E+03  0.1160E+03
     10.531 -0.3228E-06 -0.5442E-03  0.1160E+03  0.1160E+03
     10.586 -0.4141E-07 -0.1288E-03  0.1160E+03  0.1160E+03
     10.641 -0.4540E-08 -0.2602E-04  0.1160E+03  0.1160E+03
     10.696 -0.4255E-09 -0.4494E-05  0.1160E+03  0.1160E+03
     10.751 -0.3412E-10 -0.6645E-06  0.1160E+03  0.1160E+03
     10.806 -0.2342E-11 -0.8418E-07  0.1160E+03  0.1160E+03
     10.861 -0.1376E-12 -0.9144E-08  0.1160E+03  0.1160E+03
     10.916 -0.6893E-14 -0.8520E-09  0.1160E+03  0.1160E+03
     10.971 -0.3231E-15 -0.6814E-10  0.1160E+03  0.1160E+03
     11.025  0.0000E+00 -0.4679E-11  0.1160E+03  0.1160E+03
     11.080  0.0000E+00 -0.2760E-12  0.1160E+03  0.1160E+03
     11.135  0.0000E+00 -0.1400E-13  0.1160E+03  0.1160E+03
     11.190  0.0000E+00 -0.7000E-15  0.1160E+03  0.1160E+03
     11.245  0.0000E+00  0.0000E+00  0.1160E+03  0.1160E+03
     11.300  0.0000E+00  0.0000E+00  0.1160E+03  0.1160E+03
     11.355  0.0000E+00  0.0000E+00  0.1160E+03  0.1160E+03
     11.410  0.0000E+00  0.0000E+00  0.1160E+03  0.1160E+03
     11.465  0.0000E+00  0.0000E+00  0.1160E+03  0.1160E+03
     11.520  0.0000E+00  0.0000E+00  0.1160E+03  0.1160E+03
     11.575  0.0000E+00  0.0000E+00  0.1160E+03  0.1160E+03
     11.630  0.0000E+00  0.0000E+00  0.1160E+03  0.1160E+03
     11.685  0.0000E+00  0.0000E+00  0.1160E+03  0.1160E+03
     11.740  0.0000E+00  0.0000E+00  0.1160E+03  0.1160E+03
     11.795  0.0000E+00  0.0000E+00  0.1160E+03  0.1160E+03
     11.850  0.0000E+00  0.0000E+00  0.1160E+03  0.1160E+03
     11.905  0.0000E+00  0.0000E+00  0.1160E+03  0.1160E+03
     11.960  0.0000E+00  0.0000E+00  0.1160E+03  0.1160E+03
     11.96014654     -4.53367920  301      7.72610970      1.00000000
     -4.534  0.0000E+00  0.0000E+00  0.0000E+00  0.0000E+00  0.0000E+00  0.0000E+00
     -4.479  0.0000E+00  0.0000E+00  0.0000E+00  0.0000E+00  0.0000E+00  0.0000E+00
     -4.424  0.0000E+00  0.0000E+00  0.0000E+00  0.0000E+00  0.0000E+00  0.0000E+00
     -4.369  0.0000E+00  0.0000E+00  0.0000E+00  0.0000E+00  0.0000E+00  0.0000E+00
     -4.314  0.0000E+00  0.0000E+00  0.0000E+00  0.0000E+00  0.0000E+00  0.0000E+00
     -4.259  0.0000E+00  0.0000E+00  0.0000E+00  0.0000E+00  0.0000E+00  0.0000E+00
     -4.204  0.0000E+00  0.0000E+00  0.0000E+00  0.0000E+00  0.0000E+00  0.0000E+00
     -4.149 -0.1534E-30 -0.2166E-31 -0.3301E-35 -0.2341E-35  0.0000E+00  0.0000E+00
     -4.094 -0.1155E-28 -0.1737E-29 -0.5645E-33 -0.1877E-33  0.0000E+00  0.0000E+00
     -4.039 -0.7524E-27 -0.1215E-27 -0.4230E-31 -0.1704E-31  0.0000E+00  0.0000E+00
     -3.984 -0.4208E-25 -0.7264E-26 -0.2784E-29 -0.1082E-29  0.0000E+00  0.0000E+00
     -3.929 -0.2021E-23 -0.3729E-24 -0.1592E-27 -0.5989E-28  0.0000E+00  0.0000E+00
     -3.874 -0.8330E-22 -0.1644E-22 -0.7909E-26 -0.2883E-26  0.0000E+00  0.0000E+00
     -3.819 -0.2948E-20 -0.6218E-21 -0.3410E-24 -0.1209E-24  0.0000E+00  0.0000E+00
     -3.764 -0.8954E-19 -0.2020E-19 -0.1274E-22 -0.4419E-23  0.0000E+00  0.0000E+00
     -3.709 -0.2256E-17 -0.5632E-18 -0.4100E-21 -0.1408E-21  0.0000E+00  0.0000E+00
     -3.654 -0.5070E-16 -0.1309E-16 -0.1146E-19 -0.3866E-20  0.0000E+00  0.0000E+00
     -3.599 -0.9697E-15 -0.2677E-15 -0.2678E-18 -0.9067E-19  0.0000E+00  0.0000E+00
     -3.544 -0.1594E-13 -0.4708E-14 -0.5562E-17 -0.1922E-17  0.0000E+00  0.0000E+00
     -3.489 -0.2249E-12 -0.7102E-13 -0.9898E-16 -0.3493E-16  0.0000E+00  0.0000E+00
     -3.434 -0.2724E-11 -0.9197E-12 -0.1516E-14 -0.5506E-15  0.0000E+00  0.0000E+00
     -3.379 -0.2832E-10 -0.1022E-10 -0.1994E-13 -0.7510E-14  0.0000E+00  0.0000E+00
     -3.324 -0.2529E-09 -0.9759E-10 -0.2253E-12 -0.8847E-13  0.0000E+00  0.0000E+00
     -3.269 -0.1940E-08 -0.8003E-09 -0.2184E-11 -0.8991E-12  0.0000E+00  0.0000E+00
     -3.214 -0.1279E-07 -0.5640E-08 -0.1815E-10 -0.7870E-11  0.0000E+00  0.0000E+00
     -3.159 -0.7255E-07 -0.3417E-07 -0.1294E-09 -0.5927E-10  0.0000E+00  0.0000E+00
     -3.104 -0.3539E-06 -0.1781E-06 -0.7900E-09 -0.3836E-09  0.0000E+00  0.0000E+00
     -3.049 -0.1484E-05 -0.7979E-06 -0.4129E-08 -0.2130E-08  0.0000E+00  0.0000E+00
     -2.994 -0.5348E-05 -0.3073E-05 -0.1845E-07 -0.1014E-07  0.0000E+00  0.0000E+00
     -2.939 -0.1650E-04 -0.1015E-04 -0.7031E-07 -0.4129E-07  0.0000E+00  0.0000E+00
     -2.884 -0.4335E-04 -0.2865E-04 -0.2278E-06 -0.1433E-06  0.0000E+00  0.0000E+00
     -2.829 -0.9561E-04 -0.6834E-04 -0.6229E-06 -0.4217E-06  0.0000E+00  0.0000E+00
     -2.774 -0.1719E-03 -0.1350E-03 -0.1420E-05 -0.1042E-05  0.0000E+00  0.0000E+00
     -2.719 -0.2332E-03 -0.2102E-03 -0.2627E-05 -0.2121E-05  0.0000E+00  0.0000E+00
     -2.664 -0.1710E-03 -0.2196E-03 -0.3701E-05 -0.3411E-05  0.0000E+00  0.0000E+00
     -2.609  0.1947E-03 -0.1288E-04 -0.3149E-05 -0.3837E-05  0.0000E+00  0.0000E+00
     -2.554  0.1046E-02  0.6027E-03  0.1312E-05 -0.1334E-05  0.0000E+00  0.0000E+00
     -2.499  0.2428E-02  0.1749E-02  0.1157E-04  0.6409E-05  0.0000E+00  0.0000E+00
     -2.444  0.4126E-02  0.3330E-02  0.2758E-04  0.2034E-04  0.0000E+00  0.0000E+00
     -2.389  0.5730E-02  0.5003E-02  0.4763E-04  0.3925E-04  0.0000E+00  0.0000E+00
     -2.335  0.6931E-02  0.6371E-02  0.7203E-04  0.6202E-04  0.0000E+00  0.0000E+00
     -2.280  0.7849E-02  0.7334E-02  0.1075E-03  0.9262E-04  0.0000E+00  0.0000E+00
     -2.225  0.9012E-02  0.8260E-02  0.1654E-03  0.1418E-03  0.0000E+00  0.0000E+00
     -2.170  0.1084E-01  0.9683E-02  0.2500E-03  0.2190E-03  0.0000E+00  0.0000E+00
     -2.115  0.1304E-01  0.1167E-01  0.3444E-03  0.3171E-03  0.0000E+00  0.0000E+00
     -2.060  0.1458E-01  0.1348E-01  0.4147E-03  0.4063E-03  0.0000E+00  0.0000E+00
     -2.005  0.1458E-01  0.1409E-01  0.4360E-03  0.4522E-03  0.0000E+00  0.0000E+00
     -1.950  0.1325E-01  0.1320E-01  0.4241E-03  0.4507E-03  0.0000E+00  0.0000E+00
     -1.895  0.1201E-01  0.1174E-01  0.4359E-03  0.4440E-03  0.0000E+00  0.0000E+00
     -1.840  0.1232E-01  0.1131E-01  0.5283E-03  0.4947E-03  0.0000E+00  0.0000E+00
     -1.785  0.1449E-01  0.1279E-01  0.7091E-03  0.6338E-03  0.0000E+00  0.0000E+00
     -1.730  0.1736E-01  0.1566E-01  0.9243E-03  0.8297E-03  0.0000E+00  0.0000E+00
     -1.675  0.1935E-01  0.1838E-01  0.1096E-02  0.1010E-02  0.0000E+00  0.0000E+00
     -1.620  0.1965E-01  0.1966E-01  0.1178E-02  0.1116E-02  0.0000E+00  0.0000E+00
     -1.565  0.1874E-01  0.1932E-01  0.1195E-02  0.1149E-02  0.0000E+00  0.0000E+00
     -1.510  0.1792E-01  0.1834E-01  0.1223E-02  0.1169E-02  0.0000E+00  0.0000E+00
     -1.455  0.1821E-01  0.1803E-01  0.1330E-02  0.1247E-02  0.0000E+00  0.0000E+00
     -1.400  0.1942E-01  0.1890E-01  0.1498E-02  0.1395E-02  0.0000E+00  0.0000E+00
     -1.345  0.2028E-01  0.2020E-01  0.1625E-02  0.1538E-02  0.0000E+00  0.0000E+00
     -1.290  0.1964E-01  0.2049E-01  0.1617E-02  0.1572E-02  0.0000E+00  0.0000E+00
     -1.235  0.1786E-01  0.1925E-01  0.1512E-02  0.1480E-02  0.0000E+00  0.0000E+00
     -1.180  0.1675E-01  0.1767E-01  0.1483E-02  0.1393E-02  0.0000E+00  0.0000E+00
     -1.125  0.1795E-01  0.1773E-01  0.1693E-02  0.1490E-02  0.0000E+00  0.0000E+00
     -1.070  0.2130E-01  0.2035E-01  0.2133E-02  0.1834E-02  0.0000E+00  0.0000E+00
     -1.015  0.2498E-01  0.2445E-01  0.2620E-02  0.2301E-02  0.0000E+00  0.0000E+00
     -0.960  0.2724E-01  0.2798E-01  0.2963E-02  0.2691E-02  0.0000E+00  0.0000E+00
     -0.905  0.2777E-01  0.2966E-01  0.3118E-02  0.2902E-02  0.0000E+00  0.0000E+00
     -0.850  0.2741E-01  0.2968E-01  0.3181E-02  0.2985E-02  0.0000E+00  0.0000E+00
     -0.795  0.2687E-01  0.2894E-01  0.3233E-02  0.3038E-02  0.0000E+00  0.0000E+00
     -0.740  0.2590E-01  0.2787E-01  0.3234E-02  0.3074E-02  0.0000E+00  0.0000E+00
     -0.685  0.2398E-01  0.2622E-01  0.3078E-02  0.3006E-02  0.0000E+00  0.0000E+00
     -0.630  0.2143E-01  0.2390E-01  0.2759E-02  0.2774E-02  0.0000E+00  0.0000E+00
     -0.575  0.1972E-01  0.2176E-01  0.2462E-02  0.2474E-02  0.0000E+00  0.0000E+00
     -0.520  0.2035E-01  0.2129E-01  0.2455E-02  0.2330E-02  0.0000E+00  0.0000E+00
     -0.465  0.2352E-01  0.2341E-01  0.2882E-02  0.2532E-02  0.0000E+00  0.0000E+00
     -0.410  0.2794E-01  0.2768E-01  0.3645E-02  0.3089E-02  0.0000E+00  0.0000E+00
     -0.355  0.3185E-01  0.3257E-01  0.4466E-02  0.3830E-02  0.0000E+00  0.0000E+00
     -0.300  0.3425E-01  0.3648E-01  0.5072E-02  0.4517E-02  0.0000E+00  0.0000E+00
     -0.245  0.3523E-01  0.3859E-01  0.5350E-02  0.4979E-02  0.0000E+00  0.0000E+00
     -0.190  0.3534E-01  0.3895E-01  0.5375E-02  0.5173E-02  0.0000E+00  0.0000E+00
     -0.135  0.3501E-01  0.3812E-01  0.5309E-02  0.5178E-02  0.0000E+00  0.0000E+00
     -0.080  0.3448E-01  0.3686E-01  0.5251E-02  0.5111E-02  0.0000E+00  0.0000E+00
     -0.025  0.3393E-01  0.3578E-01  0.5183E-02  0.5049E-02  0.0000E+00  0.0000E+00
      0.030  0.3360E-01  0.3524E-01  0.5054E-02  0.4982E-02  0.0000E+00  0.0000E+00
      0.085  0.3363E-01  0.3529E-01  0.4914E-02  0.4885E-02  0.0000E+00  0.0000E+00
      0.140  0.3405E-01  0.3584E-01  0.4930E-02  0.4811E-02  0.0000E+00  0.0000E+00
      0.195  0.3475E-01  0.3673E-01  0.5236E-02  0.4899E-02  0.0000E+00  0.0000E+00
      0.250  0.3554E-01  0.3778E-01  0.5771E-02  0.5251E-02  0.0000E+00  0.0000E+00
      0.305  0.3606E-01  0.3862E-01  0.6260E-02  0.5786E-02  0.0000E+00  0.0000E+00
      0.359  0.3579E-01  0.3855E-01  0.6406E-02  0.6237E-02  0.0000E+00  0.0000E+00
      0.414  0.3440E-01  0.3694E-01  0.6144E-02  0.6345E-02  0.0000E+00  0.0000E+00
      0.469  0.3237E-01  0.3395E-01  0.5734E-02  0.6112E-02  0.0000E+00  0.0000E+00
      0.524  0.3102E-01  0.3096E-01  0.5592E-02  0.5850E-02  0.0000E+00  0.0000E+00
      0.579  0.3167E-01  0.2983E-01  0.5968E-02  0.5949E-02  0.0000E+00  0.0000E+00
      0.634  0.3442E-01  0.3138E-01  0.6753E-02  0.6543E-02  0.0000E+00  0.0000E+00
      0.689  0.3800E-01  0.3467E-01  0.7613E-02  0.7413E-02  0.0000E+00  0.0000E+00
      0.744  0.4084E-01  0.3797E-01  0.8293E-02  0.8215E-02  0.0000E+00  0.0000E+00
      0.799  0.4215E-01  0.4009E-01  0.8747E-02  0.8776E-02  0.0000E+00  0.0000E+00
      0.854  0.4197E-01  0.4076E-01  0.9004E-02  0.9124E-02  0.0000E+00  0.0000E+00
      0.909  0.4057E-01  0.4007E-01  0.9012E-02  0.9285E-02  0.0000E+00  0.0000E+00
      0.964  0.3835E-01  0.3807E-01  0.8720E-02  0.9187E-02  0.0000E+00  0.0000E+00
      1.019  0.3616E-01  0.3524E-01  0.8271E-02  0.8820E-02  0.0000E+00  0.0000E+00
      1.074  0.3504E-01  0.3286E-01  0.7970E-02  0.8386E-02  0.0000E+00  0.0000E+00
      1.129  0.3526E-01  0.3216E-01  0.7999E-02  0.8178E-02  0.0000E+00  0.0000E+00
      1.184  0.3595E-01  0.3307E-01  0.8234E-02  0.8272E-02  0.0000E+00  0.0000E+00
      1.239  0.3608E-01  0.3426E-01  0.8429E-02  0.8460E-02  0.0000E+00  0.0000E+00
      1.294  0.3565E-01  0.3452E-01  0.8528E-02  0.8536E-02  0.0000E+00  0.0000E+00
      1.349  0.3538E-01  0.3391E-01  0.8681E-02  0.8553E-02  0.0000E+00  0.0000E+00
      1.404  0.3545E-01  0.3329E-01  0.8960E-02  0.8716E-02  0.0000E+00  0.0000E+00
      1.459  0.3513E-01  0.3288E-01  0.9233E-02  0.9073E-02  0.0000E+00  0.0000E+00
      1.514  0.3392E-01  0.3202E-01  0.9412E-02  0.9457E-02  0.0000E+00  0.0000E+00
      1.569  0.3275E-01  0.3045E-01  0.9748E-02  0.9765E-02  0.0000E+00  0.0000E+00
      1.624  0.3340E-01  0.2934E-01  0.1072E-01  0.1019E-01  0.0000E+00  0.0000E+00
      1.679  0.3666E-01  0.3056E-01  0.1251E-01  0.1108E-01  0.0000E+00  0.0000E+00
      1.734  0.4130E-01  0.3486E-01  0.1471E-01  0.1250E-01  0.0000E+00  0.0000E+00
      1.789  0.4483E-01  0.4077E-01  0.1644E-01  0.1408E-01  0.0000E+00  0.0000E+00
      1.844  0.4547E-01  0.4551E-01  0.1699E-01  0.1512E-01  0.0000E+00  0.0000E+00
      1.899  0.4343E-01  0.4699E-01  0.1633E-01  0.1516E-01  0.0000E+00  0.0000E+00
      1.954  0.4048E-01  0.4523E-01  0.1505E-01  0.1428E-01  0.0000E+00  0.0000E+00
      2.009  0.3855E-01  0.4194E-01  0.1396E-01  0.1304E-01  0.0000E+00  0.0000E+00
      2.064  0.3874E-01  0.3904E-01  0.1362E-01  0.1209E-01  0.0000E+00  0.0000E+00
      2.119  0.4113E-01  0.3759E-01  0.1414E-01  0.1183E-01  0.0000E+00  0.0000E+00
      2.174  0.4495E-01  0.3790E-01  0.1520E-01  0.1229E-01  0.0000E+00  0.0000E+00
      2.229  0.4874E-01  0.3990E-01  0.1617E-01  0.1324E-01  0.0000E+00  0.0000E+00
      2.284  0.5069E-01  0.4312E-01  0.1636E-01  0.1424E-01  0.0000E+00  0.0000E+00
      2.339  0.4953E-01  0.4641E-01  0.1550E-01  0.1474E-01  0.0000E+00  0.0000E+00
      2.394  0.4528E-01  0.4825E-01  0.1397E-01  0.1439E-01  0.0000E+00  0.0000E+00
      2.449  0.3929E-01  0.4754E-01  0.1259E-01  0.1327E-01  0.0000E+00  0.0000E+00
      2.504  0.3354E-01  0.4448E-01  0.1208E-01  0.1198E-01  0.0000E+00  0.0000E+00
      2.559  0.2981E-01  0.4046E-01  0.1271E-01  0.1125E-01  0.0000E+00  0.0000E+00
      2.614  0.2896E-01  0.3725E-01  0.1423E-01  0.1155E-01  0.0000E+00  0.0000E+00
      2.669  0.3067E-01  0.3590E-01  0.1613E-01  0.1284E-01  0.0000E+00  0.0000E+00
      2.724  0.3360E-01  0.3623E-01  0.1793E-01  0.1470E-01  0.0000E+00  0.0000E+00
      2.779  0.3614E-01  0.3719E-01  0.1930E-01  0.1660E-01  0.0000E+00  0.0000E+00
      2.834  0.3718E-01  0.3763E-01  0.2011E-01  0.1823E-01  0.0000E+00  0.0000E+00
      2.889  0.3642E-01  0.3691E-01  0.2046E-01  0.1948E-01  0.0000E+00  0.0000E+00
      2.944  0.3432E-01  0.3498E-01  0.2074E-01  0.2030E-01  0.0000E+00  0.0000E+00
      2.999  0.3186E-01  0.3230E-01  0.2144E-01  0.2062E-01  0.0000E+00  0.0000E+00