   36   36    1    2
  0.1314651E+02  0.8250148E-09  0.8250148E-09  0.6953274E-09  0.2000000E-15
  1.000000000000000E-004
  CAR 
 AlMn_pv                                 
    180     52    116
 
  0.0000000E+00  0.0000000E+00  0.0000000E+00  0.6666667E-02
    1       -2.533679     -2.509582   1.000000   1.000000
    2       -0.371739     -0.353141   1.000000   1.000000
    3       -0.362560     -0.341451   1.000000   1.000000
    4       -0.348430     -0.306073   1.000000   1.000000
    5       -0.323531     -0.300579   1.000000   1.000000
    6       -0.122530     -0.130381   1.000000   1.000000
    7        1.340411      1.381223   1.000000   1.000000
    8        1.344258      1.391004   1.000000   1.000000
    9        1.354306      1.423961   1.000000   1.000000
   10        1.392678      1.434444   1.000000   1.000000
   11        1.400190      1.447443   1.000000   1.000000
   12        1.539858      1.582848   1.000000   1.000000
   13        1.545018      1.606823   1.000000   1.000000
   14        1.587936      1.622427   1.000000   1.000000
   15        1.593754      1.644015   1.000000   1.000000
   16        2.697735      2.789182   1.000000   1.000000
   17        2.713411      2.806116   1.000000   1.000000
   18        2.751080      2.854495   1.000000   1.000000
   19        2.764891      2.878155   1.000000   1.000000
   20        3.450219      3.521342   1.000000   1.000000
   21        3.489605      3.573967   1.000000   1.000000
   22        3.522969      3.641547   1.000000   1.000000
   23        3.577450      3.656091   1.000000   1.000000
   24        4.027529      4.152589   1.000000   1.000000
   25        4.144058      4.337078   1.000000   1.000000
   26        4.171661      4.369176   1.000000   1.000000
   27        4.381853      4.582404   1.000000   1.000000
   28        4.486346      4.617778   1.000000   1.000000
   29        4.514137      4.674974   1.000000   1.000000
   30        4.573943      4.700034   1.000000   1.000000
   31        4.603818      4.742262   1.000000   1.000000
   32        4.640393      4.839836   1.000000   1.000000
   33        4.646280      4.906004   1.000000   1.000000
   34        4.659774      4.912018   1.000000   1.000000
   35        4.769781      4.985060   1.000000   1.000000
   36        4.779956      4.990942   1.000000   1.000000
   37        4.804676      5.072819   1.000000   1.000000
   38        4.878348      5.185920   1.000000   1.000000
   39        4.949999      5.291684   1.000000   1.000000
   40        5.086737      5.293911   1.000000   1.000000
   41        5.150416      5.315518   1.000000   1.000000
   42        5.173558      5.358077   1.000000   1.000000
   43        5.207923      5.401790   1.000000   1.000000
   44        5.302907      5.538629   1.000000   1.000000
   45        5.311783      5.570071   1.000000   1.000000
   46        5.318293      5.580750   1.000000   1.000000
   47        5.382744      5.645644   1.000000   1.000000
   48        5.398262      5.693138   1.000000   1.000000
   49        5.461027      5.721808   1.000000   1.000000
   50        5.478882      5.747934   1.000000   1.000000
   51        5.546194      5.919606   1.000000   1.000000
   52        5.611025      5.962205   1.000000   1.000000
   53        5.645007      6.142942   1.000000   1.000000
   54        5.732433      6.219560   1.000000   1.000000
   55        5.752882      6.293861   1.000000   1.000000
   56        5.775534      6.303439   1.000000   1.000000
   57        5.829291      6.310667   1.000000   1.000000
   58        5.870462      6.315338   1.000000   1.000000
   59        6.131550      6.353282   1.000000   1.000000
   60        6.154286      6.400666   1.000000   1.000000
   61        6.158037      6.438642   1.000000   1.000000
   62        6.255812      6.462577   1.000000   1.000000
   63        6.262634      6.466081   1.000000   1.000000
   64        6.312507      6.478603   1.000000   1.000000
   65        6.377451      6.542184   1.000000   1.000000
   66        6.387716      6.621303   1.000000   1.000000
   67        6.401271      6.628704   1.000000   1.000000
   68        6.430417      6.685071   1.000000   1.000000
   69        6.458138      6.704950   1.000000   1.000000
   70        6.464781      6.704999   1.000000   1.000000
   71        6.474768      6.768741   1.000000   1.000000
   72        6.525142      6.820679   1.000000   1.000000
   73        6.549755      6.821262   1.000000   1.000000
   74        6.553673      6.912973   1.000000   1.000000
   75        6.564833      6.925594   1.000000   1.000000
   76        6.605936      7.060687   1.000000   1.000013
   77        6.631597      7.110429   1.000000   1.000060
   78        6.718756      7.293257   1.000000   1.004538
   79        6.727616      7.360485   1.000000   1.013369
   80        6.751772      7.367003   1.000000   1.014597
   81        6.786703      7.437147   1.000000   1.030017
   82        6.794629      7.586007   1.000000   0.959887
   83        6.851283      7.588433   1.000000   0.955798
   84        6.953118      7.728133   1.000000   0.491546
   85        6.959282      7.740218   1.000000   0.440782
   86        7.025976      7.807441   1.000004   0.185394
   87        7.083487      7.899668   1.000027  -0.005292
   88        7.185280      8.026387   1.000444  -0.027599
   89        7.343560      8.041580   1.010483  -0.024111
   90        7.357918      8.125004   1.012911  -0.008152
   91        7.477958      8.144050   1.035417  -0.005922
   92        7.495825      8.188853   1.034552  -0.002557
   93        7.524447      8.199292   1.025906  -0.002067
   94        7.619822      8.334469   0.887059  -0.000074
   95        7.688097      8.360234   0.657291  -0.000035
   96        7.856149      8.390027   0.058696  -0.000014
   97        7.934490      8.530333  -0.028916  -0.000000
   98        7.967672      8.587658  -0.035413  -0.000000
   99        8.045069      8.680298  -0.023279  -0.000000
  100        8.071667      8.694591  -0.017363  -0.000000
  101        8.146141      8.717381  -0.005707  -0.000000
  102        8.243834      8.793356  -0.000773  -0.000000
  103        8.311435      8.829763  -0.000140  -0.000000
  104        8.399022      8.832473  -0.000011  -0.000000
  105        8.424698      8.855698  -0.000005  -0.000000
  106        8.525258      8.877329  -0.000000  -0.000000
  107        8.558218      8.909093  -0.000000  -0.000000
  108        8.588618      8.943296  -0.000000  -0.000000
  109        8.639270      8.966659  -0.000000  -0.000000
  110        8.757504      9.016698  -0.000000  -0.000000
  111        8.833224      9.050583  -0.000000  -0.000000
  112        8.834222      9.054751  -0.000000  -0.000000
  113        8.886335      9.106547  -0.000000  -0.000000
  114        8.920237      9.115786  -0.000000  -0.000000
  115        8.924795      9.127456  -0.000000  -0.000000
  116        9.078987      9.232308  -0.000000  -0.000000
 
  0.2000000E+00  0.0000000E+00  0.0000000E+00  0.1333333E-01
    1       -2.443135     -2.419080   1.000000   1.000000
    2       -1.117240     -1.092558   1.000000   1.000000
    3       -0.285188     -0.258564   1.000000   1.000000
    4       -0.252627     -0.226253   1.000000   1.000000
    5       -0.057316     -0.063826   1.000000   1.000000
    6        0.550391      0.580326   1.000000   1.000000
    7        0.870457      0.889675   1.000000   1.000000
    8        0.906254      0.943574   1.000000   1.000000
    9        0.923333      0.958115   1.000000   1.000000
   10        1.405133      1.445763   1.000000   1.000000
   11        1.450312      1.504517   1.000000   1.000000
   12        1.457096      1.531465   1.000000   1.000000
   13        1.885134      1.959602   1.000000   1.000000
   14        2.264280      2.330210   1.000000   1.000000
   15        2.275810      2.350095   1.000000   1.000000
   16        2.298273      2.370738   1.000000   1.000000
   17        2.304952      2.381794   1.000000   1.000000
   18        2.792679      2.874496   1.000000   1.000000
   19        3.157025      3.284337   1.000000   1.000000
   20        3.203108      3.346576   1.000000   1.000000
   21        3.535186      3.622865   1.000000   1.000000
   22        3.617495      3.707848   1.000000   1.000000
   23        3.708724      3.775176   1.000000   1.000000
   24        4.009913      4.133899   1.000000   1.000000
   25        4.104375      4.273152   1.000000   1.000000
   26        4.142881      4.325916   1.000000   1.000000
   27        4.265874      4.379784   1.000000   1.000000
   28        4.310230      4.564791   1.000000   1.000000
   29        4.471924      4.651416   1.000000   1.000000
   30        4.493816      4.691596   1.000000   1.000000
   31        4.524572      4.708316   1.000000   1.000000
   32        4.532031      4.737717   1.000000   1.000000
   33        4.634835      4.823071   1.000000   1.000000
   34        4.700481      4.929856   1.000000   1.000000
   35        4.804460      4.967594   1.000000   1.000000
   36        4.830063      5.062766   1.000000   1.000000
   37        4.916384      5.132956   1.000000   1.000000
   38        4.927094      5.149048   1.000000   1.000000
   39        4.954349      5.194000   1.000000   1.000000
   40        4.965065      5.216020   1.000000   1.000000
   41        5.066053      5.262717   1.000000   1.000000
   42        5.167677      5.338322   1.000000   1.000000
   43        5.193319      5.371115   1.000000   1.000000
   44        5.265096      5.523695   1.000000   1.000000
   45        5.311839      5.573539   1.000000   1.000000
   46        5.312104      5.601419   1.000000   1.000000
   47        5.401558      5.617730   1.000000   1.000000
   48        5.406766      5.704868   1.000000   1.000000
   49        5.494904      5.740282   1.000000   1.000000
   50        5.564699      5.802568   1.000000   1.000000
   51        5.574343      5.911036   1.000000   1.000000
   52        5.636255      5.953626   1.000000   1.000000
   53        5.666601      6.122114   1.000000   1.000000
   54        5.700335      6.122983   1.000000   1.000000
   55        5.736973      6.258334   1.000000   1.000000
   56        5.753950      6.305054   1.000000   1.000000
   57        5.856706      6.313618   1.000000   1.000000
   58        5.968984      6.350948   1.000000   1.000000
   59        6.080859      6.358742   1.000000   1.000000
   60        6.102948      6.381235   1.000000   1.000000
   61        6.143862      6.438636   1.000000   1.000000
   62        6.240489      6.448690   1.000000   1.000000
   63        6.258416      6.494243   1.000000   1.000000
   64        6.284769      6.534591   1.000000   1.000000
   65        6.311286      6.571402   1.000000   1.000000
   66        6.348634      6.609222   1.000000   1.000000
   67        6.373974      6.682729   1.000000   1.000000
   68        6.395233      6.720463   1.000000   1.000000
   69        6.404640      6.722416   1.000000   1.000000
   70        6.441565      6.758638   1.000000   1.000000
   71        6.482052      6.762682   1.000000   1.000000
   72        6.504782      6.800134   1.000000   1.000000
   73        6.551149      6.827714   1.000000   1.000000
   74        6.565565      6.884400   1.000000   1.000000
   75        6.579228      6.951515   1.000000   1.000000
   76        6.608758      7.014013   1.000000   1.000003
   77        6.665523      7.079306   1.000000   1.000024
   78        6.687832      7.276193   1.000000   1.003291
   79        6.735799      7.293239   1.000000   1.004533
   80        6.737885      7.381768   1.000000   1.017609
   81        6.784544      7.424410   1.000000   1.027268
   82        6.815466      7.578312   1.000000   0.972780
   83        6.875530      7.616246   1.000000   0.895702
   84        6.892164      7.691127   1.000000   0.645653
   85        6.922386      7.733260   1.000000   0.469877
   86        6.996416      7.790696   1.000002   0.242033
   87        7.013677      7.912101   1.000003  -0.016146
   88        7.120465      7.978309   1.000080  -0.035270
   89        7.312848      8.030648   1.006413  -0.026625
   90        7.359050      8.067153   1.013108  -0.018337
   91        7.515080      8.155068   1.029931  -0.004873
   92        7.515151      8.192465   1.029916  -0.002376
   93        7.585319      8.285910   0.961368  -0.000275
   94        7.589788      8.314450   0.953319  -0.000129
   95        7.699867      8.373298   0.609456  -0.000024
   96        7.895893      8.398438  -0.001501  -0.000011
   97        7.933655      8.471638  -0.028592  -0.000001
   98        7.955193      8.557241  -0.034393  -0.000000
   99        8.010441      8.609650  -0.030958  -0.000000
  100        8.092698      8.673845  -0.013208  -0.000000
  101        8.204984      8.712535  -0.001831  -0.000000
  102        8.234228      8.736126  -0.000964  -0.000000
  103        8.368227      8.834665  -0.000027  -0.000000
  104        8.396515      8.899115  -0.000011  -0.000000
  105        8.430557      8.936938  -0.000004  -0.000000
  106        8.490634      8.954176  -0.000000  -0.000000
  107        8.555631      8.962989  -0.000000  -0.000000
  108        8.688594      9.013804  -0.000000  -0.000000
  109        8.730066      9.028800  -0.000000  -0.000000
  110        8.775937      9.030507  -0.000000  -0.000000
  111        8.855709      9.060307  -0.000000  -0.000000
  112        8.906611      9.064665  -0.000000  -0.000000
  113        8.907592      9.116464  -0.000000  -0.000000
  114        8.983633      9.236215  -0.000000  -0.000000
  115        9.108227      9.249993  -0.000000  -0.000000
  116        9.188750      9.360761  -0.000000  -0.000000
 
  0.4000000E+00  0.0000000E+00  0.0000000E+00  0.1333333E-01
    1       -2.173233     -2.149354   1.000000   1.000000
    2       -1.728033     -1.703617   1.000000   1.000000
    3       -0.039075     -0.011724   1.000000   1.000000
    4       -0.008732      0.018534   1.000000   1.000000
    5        0.135864      0.133664   1.000000   1.000000
    6        0.363870      0.395662   1.000000   1.000000
    7        0.388642      0.418772   1.000000   1.000000
    8        0.450703      0.456336   1.000000   1.000000
    9        1.559545      1.599421   1.000000   1.000000
   10        1.587058      1.632856   1.000000   1.000000
   11        1.636424      1.689016   1.000000   1.000000
   12        1.730063      1.809763   1.000000   1.000000
   13        1.887642      1.945350   1.000000   1.000000
   14        1.929390      1.990350   1.000000   1.000000
   15        2.189976      2.271309   1.000000   1.000000
   16        2.272918      2.391279   1.000000   1.000000
   17        2.658929      2.698057   1.000000   1.000000
   18        2.862744      2.960371   1.000000   1.000000
   19        2.974423      3.100902   1.000000   1.000000
   20        3.468885      3.623980   1.000000   1.000000
   21        3.607091      3.813297   1.000000   1.000000
   22        3.723669      3.817263   1.000000   1.000000
   23        3.772295      3.862050   1.000000   1.000000
   24        3.935736      4.054617   1.000000   1.000000
   25        3.965930      4.101912   1.000000   1.000000
   26        4.048228      4.194417   1.000000   1.000000
   27        4.082583      4.216707   1.000000   1.000000
   28        4.213095      4.416107   1.000000   1.000000
   29        4.225896      4.460866   1.000000   1.000000
   30        4.362730      4.551017   1.000000   1.000000
   31        4.494020      4.574894   1.000000   1.000000
   32        4.524849      4.701842   1.000000   1.000000
   33        4.631007      4.820733   1.000000   1.000000
   34        4.701163      4.852599   1.000000   1.000000
   35        4.788051      4.955920   1.000000   1.000000
   36        4.819812      5.014597   1.000000   1.000000
   37        4.877876      5.058677   1.000000   1.000000
   38        4.929518      5.150453   1.000000   1.000000
   39        5.015472      5.196062   1.000000   1.000000
   40        5.053919      5.295064   1.000000   1.000000
   41        5.130031      5.333022   1.000000   1.000000
   42        5.160817      5.369024   1.000000   1.000000
   43        5.192159      5.384328   1.000000   1.000000
   44        5.199278      5.459354   1.000000   1.000000
   45        5.278513      5.598588   1.000000   1.000000
   46        5.322084      5.599882   1.000000   1.000000
   47        5.387615      5.617827   1.000000   1.000000
   48        5.463387      5.687691   1.000000   1.000000
   49        5.510352      5.746917   1.000000   1.000000
   50        5.615023      5.842160   1.000000   1.000000
   51        5.627985      5.898285   1.000000   1.000000
   52        5.659119      5.972298   1.000000   1.000000
   53        5.664146      6.047922   1.000000   1.000000
   54        5.688113      6.082509   1.000000   1.000000
   55        5.710697      6.170165   1.000000   1.000000
   56        5.748973      6.259980   1.000000   1.000000
   57        5.892705      6.266044   1.000000   1.000000
   58        5.990427      6.303498   1.000000   1.000000
   59        6.057106      6.328751   1.000000   1.000000
   60        6.061752      6.363902   1.000000   1.000000
   61        6.129487      6.370256   1.000000   1.000000
   62        6.187586      6.490050   1.000000   1.000000
   63        6.202852      6.528099   1.000000   1.000000
   64        6.235143      6.566730   1.000000   1.000000
   65        6.261713      6.585806   1.000000   1.000000
   66        6.286940      6.651771   1.000000   1.000000
   67        6.307335      6.677772   1.000000   1.000000
   68        6.349552      6.720391   1.000000   1.000000
   69        6.363492      6.727374   1.000000   1.000000
   70        6.395751      6.754348   1.000000   1.000000
   71        6.431945      6.758396   1.000000   1.000000
   72        6.438153      6.787907   1.000000   1.000000
   73        6.492049      6.830231   1.000000   1.000000
   74        6.528141      6.905829   1.000000   1.000000
   75        6.605817      6.931096   1.000000   1.000000
   76        6.628623      7.142185   1.000000   1.000145
   77        6.666563      7.164316   1.000000   1.000261
   78        6.738789      7.239795   1.000000   1.001564
   79        6.743586      7.264011   1.000000   1.002588
   80        6.757557      7.378462   1.000000   1.016915
   81        6.778448      7.469472   1.000000   1.034969
   82        6.826838      7.536213   1.000000   1.019062
   83        6.858543      7.634542   1.000000   0.845787
   84        6.887716      7.721322   1.000000   0.520437
   85        6.934935      7.754577   1.000000   0.381034
   86        6.965858      7.793495   1.000001   0.232160
   87        6.987268      7.796841   1.000001   0.220545
   88        7.169372      7.917978   1.000297  -0.020287
   89        7.259793      8.015811   1.002378  -0.029871
   90        7.285089      8.052833   1.003903  -0.021538
   91        7.487895      8.164665   1.035273  -0.004086
   92        7.529781      8.175591   1.023135  -0.003320
   93        7.561229      8.259529   0.996158  -0.000532
   94        7.746351      8.262550   0.414267  -0.000495
   95        7.769808      8.313988   0.319996  -0.000130
   96        7.787211      8.332805   0.253884  -0.000077
   97        7.888983      8.434365   0.006391  -0.000003
   98        7.923314      8.608845  -0.023589  -0.000000
   99        8.017676      8.621844  -0.029499  -0.000000
  100        8.094399      8.647395  -0.012901  -0.000000
  101        8.183266      8.659272  -0.002857  -0.000000
  102        8.186858      8.690046  -0.002659  -0.000000
  103        8.300368      8.723442  -0.000188  -0.000000
  104        8.377435      8.830285  -0.000021  -0.000000
  105        8.396746      8.832268  -0.000011  -0.000000
  106        8.503132      8.871466  -0.000000  -0.000000
  107        8.573408      8.951814  -0.000000  -0.000000
  108        8.610197      9.020839  -0.000000  -0.000000
  109        8.756131      9.085958  -0.000000  -0.000000
  110        8.839990      9.113007  -0.000000  -0.000000
  111        8.909567      9.141113  -0.000000  -0.000000
  112        9.061962      9.194449  -0.000000  -0.000000
  113        9.095228      9.235163  -0.000000  -0.000000
  114        9.106391      9.365569  -0.000000  -0.000000
  115        9.130364      9.407961  -0.000000  -0.000000
  116        9.411923      9.689706  -0.000000  -0.000000
 
  0.0000000E+00  0.2000000E+00  0.0000000E+00  0.1333333E-01
    1       -2.443131     -2.419091   1.000000   1.000000
    2       -1.117345     -1.092521   1.000000   1.000000
    3       -0.278729     -0.259812   1.000000   1.000000
    4       -0.259219     -0.224976   1.000000   1.000000
    5       -0.057370     -0.063816   1.000000   1.000000
    6        0.551059      0.580251   1.000000   1.000000
    7        0.870383      0.890277   1.000000   1.000000
    8        0.910606      0.939978   1.000000   1.000000
    9        0.918500      0.961752   1.000000   1.000000
   10        1.409599      1.454349   1.000000   1.000000
   11        1.450226      1.492323   1.000000   1.000000
   12        1.452867      1.531285   1.000000   1.000000
   13        1.884959      1.963388   1.000000   1.000000
   14        2.266436      2.337779   1.000000   1.000000
   15        2.279887      2.357561   1.000000   1.000000
   16        2.295961      2.363289   1.000000   1.000000
   17        2.301089      2.372896   1.000000   1.000000
   18        2.793360      2.875307   1.000000   1.000000
   19        3.161500      3.282791   1.000000   1.000000
   20        3.197882      3.350404   1.000000   1.000000
   21        3.546813      3.626353   1.000000   1.000000
   22        3.602869      3.701347   1.000000   1.000000
   23        3.707441      3.775868   1.000000   1.000000
   24        4.009767      4.130856   1.000000   1.000000
   25        4.111829      4.278403   1.000000   1.000000
   26        4.136904      4.322195   1.000000   1.000000
   27        4.264851      4.377417   1.000000   1.000000
   28        4.317777      4.579437   1.000000   1.000000
   29        4.474178      4.658318   1.000000   1.000000
   30        4.480644      4.688336   1.000000   1.000000
   31        4.509526      4.716593   1.000000   1.000000
   32        4.546052      4.737581   1.000000   1.000000
   33        4.649799      4.783409   1.000000   1.000000
   34        4.703778      4.955586   1.000000   1.000000
   35        4.790475      4.976798   1.000000   1.000000
   36        4.829960      5.036625   1.000000   1.000000
   37        4.909533      5.139434   1.000000   1.000000
   38        4.917804      5.157995   1.000000   1.000000
   39        4.962983      5.180143   1.000000   1.000000
   40        4.972394      5.219178   1.000000   1.000000
   41        5.063348      5.256999   1.000000   1.000000
   42        5.173222      5.342371   1.000000   1.000000
   43        5.183316      5.349447   1.000000   1.000000
   44        5.291096      5.549864   1.000000   1.000000
   45        5.304077      5.564616   1.000000   1.000000
   46        5.314143      5.579812   1.000000   1.000000
   47        5.394087      5.631372   1.000000   1.000000
   48        5.409826      5.696771   1.000000   1.000000
   49        5.519789      5.728929   1.000000   1.000000
   50        5.548572      5.873025   1.000000   1.000000
   51        5.563694      5.917953   1.000000   1.000000
   52        5.630457      5.952148   1.000000   1.000000
   53        5.641380      6.120321   1.000000   1.000000
   54        5.731751      6.144504   1.000000   1.000000
   55        5.765211      6.220905   1.000000   1.000000
   56        5.767717      6.288149   1.000000   1.000000
   57        5.880743      6.300450   1.000000   1.000000
   58        5.945052      6.350953   1.000000   1.000000
   59        6.010915      6.379960   1.000000   1.000000
   60        6.110595      6.381021   1.000000   1.000000
   61        6.144829      6.411842   1.000000   1.000000
   62        6.248420      6.468821   1.000000   1.000000
   63        6.256486      6.484922   1.000000   1.000000
   64        6.289460      6.547253   1.000000   1.000000
   65        6.300881      6.558639   1.000000   1.000000
   66        6.340668      6.627727   1.000000   1.000000
   67        6.364935      6.656446   1.000000   1.000000
   68        6.388889      6.692379   1.000000   1.000000
   69        6.445388      6.705715   1.000000   1.000000
   70        6.454706      6.735065   1.000000   1.000000
   71        6.482068      6.774872   1.000000   1.000000
   72        6.492247      6.814351   1.000000   1.000000
   73        6.526583      6.869511   1.000000   1.000000
   74        6.528561      6.880509   1.000000   1.000000
   75        6.583298      6.934699   1.000000   1.000000
   76        6.616757      7.003486   1.000000   1.000002
   77        6.666546      7.160398   1.000000   1.000236
   78        6.690313      7.253406   1.000000   1.002084
   79        6.737879      7.277182   1.000000   1.003356
   80        6.756025      7.379120   1.000000   1.017047
   81        6.783048      7.448255   1.000000   1.032153
   82        6.813313      7.566184   1.000000   0.990001
   83        6.868564      7.607858   1.000000   0.915946
   84        6.918082      7.670757   1.000000   0.724782
   85        6.919623      7.742673   1.000000   0.430200
   86        6.978503      7.816377   1.000001   0.157878
   87        7.044232      7.906928   1.000008  -0.012020
   88        7.181003      8.022729   1.000399  -0.028399
   89        7.297830      8.048112   1.004927  -0.022595
   90        7.303782      8.089328   1.005484  -0.013828
   91        7.513031      8.136863   1.030671  -0.006700
   92        7.521624      8.151531   1.027267  -0.005201
   93        7.585849      8.238936   0.960332  -0.000867
   94        7.643067      8.255544   0.820144  -0.000586
   95        7.696732      8.378713   0.622464  -0.000020
   96        7.837321      8.442572   0.100697  -0.000003
   97        7.944529      8.522103  -0.032212  -0.000000
   98        7.994172      8.530573  -0.033689  -0.000000
   99        8.032044      8.620349  -0.026318  -0.000000
  100        8.066600      8.655160  -0.018455  -0.000000
  101        8.188841      8.672599  -0.002557  -0.000000
  102        8.219122      8.750340  -0.001350  -0.000000
  103        8.306340      8.865653  -0.000160  -0.000000
  104        8.386890      8.890285  -0.000015  -0.000000
  105        8.446416      8.928679  -0.000002  -0.000000
  106        8.487631      8.951270  -0.000001  -0.000000
  107        8.572885      8.964237  -0.000000  -0.000000
  108        8.693765      8.984872  -0.000000  -0.000000
  109        8.749275      9.030182  -0.000000  -0.000000
  110        8.789557      9.038713  -0.000000  -0.000000
  111        8.847701      9.061484  -0.000000  -0.000000
  112        8.865114      9.085276  -0.000000  -0.000000
  113        8.935449      9.122372  -0.000000  -0.000000
  114        9.014913      9.224707  -0.000000  -0.000000
  115        9.097695      9.267983  -0.000000  -0.000000
  116        9.159980      9.338649  -0.000000  -0.000000
 
  0.2000000E+00  0.2000000E+00  0.0000000E+00  0.1333333E-01
    1       -2.352860     -2.328865   1.000000   1.000000
    2       -1.036818     -1.011315   1.000000   1.000000
    3       -1.026187     -1.001795   1.000000   1.000000
    4        0.007695      0.002647   1.000000   1.000000
    5        0.210504      0.240959   1.000000   1.000000
    6        0.624983      0.655777   1.000000   1.000000
    7        0.635247      0.664099   1.000000   1.000000
    8        0.929466      0.948176   1.000000   1.000000
    9        0.938064      0.961093   1.000000   1.000000
   10        1.544116      1.624492   1.000000   1.000000
   11        1.702044      1.762885   1.000000   1.000000
   12        1.743546      1.778009   1.000000   1.000000
   13        1.818607      1.869757   1.000000   1.000000
   14        1.942288      2.023005   1.000000   1.000000
   15        1.953265      2.029382   1.000000   1.000000
   16        2.758386      2.864891   1.000000   1.000000
   17        2.790375      2.905844   1.000000   1.000000
   18        2.812750      2.923117   1.000000   1.000000
   19        2.859815      2.937846   1.000000   1.000000
   20        2.887411      2.976735   1.000000   1.000000
   21        3.570326      3.739762   1.000000   1.000000
   22        3.745320      3.820427   1.000000   1.000000
   23        3.764660      3.834913   1.000000   1.000000
   24        3.798952      3.911616   1.000000   1.000000
   25        4.076703      4.245615   1.000000   1.000000
   26        4.142750      4.352666   1.000000   1.000000
   27        4.280098      4.405246   1.000000   1.000000
   28        4.308448      4.433874   1.000000   1.000000
   29        4.335765      4.483298   1.000000   1.000000
   30        4.368758      4.582672   1.000000   1.000000
   31        4.464609      4.647876   1.000000   1.000000
   32        4.512413      4.798165   1.000000   1.000000
   33        4.567733      4.837126   1.000000   1.000000
   34        4.681907      4.848235   1.000000   1.000000
   35        4.743660      4.918121   1.000000   1.000000
   36        4.812117      4.981674   1.000000   1.000000
   37        4.841379      5.030434   1.000000   1.000000
   38        4.853210      5.067043   1.000000   1.000000
   39        5.030362      5.173195   1.000000   1.000000
   40        5.077226      5.277833   1.000000   1.000000
   41        5.173450      5.349350   1.000000   1.000000
   42        5.189617      5.404144   1.000000   1.000000
   43        5.190210      5.420984   1.000000   1.000000
   44        5.257353      5.549102   1.000000   1.000000