       N       E                     dE             d eps       ncg     rms          ort
DAV:   1     0.134023125686E+04    0.13402E+04   -0.59224E+04  6032   0.139E+03
DAV:   2    -0.712731780733E+02   -0.14115E+04   -0.13718E+04  6032   0.423E+02
DAV:   3    -0.240553685132E+03   -0.16928E+03   -0.14949E+03  6032   0.160E+02
DAV:   4    -0.266548404835E+03   -0.25995E+02   -0.22848E+02  6032   0.692E+01
DAV:   5    -0.269122958345E+03   -0.25746E+01   -0.24485E+01  6032   0.203E+01
DAV:   6    -0.269325154948E+03   -0.20220E+00   -0.19811E+00  6032   0.531E+00
DAV:   7    -0.269346297676E+03   -0.21143E-01   -0.20957E-01  6032   0.149E+00
DAV:   8    -0.269347888670E+03   -0.15910E-02   -0.15823E-02  6032   0.392E-01
SDA:   9    -0.668364531042E+02    0.20251E+03   -0.15823E-02  6032   0.225E+04 0.000E+00
CGA:  10    -0.210752349739E+03   -0.14392E+03   -0.14475E+03  6032   0.103E+03 0.326E+03
CGA:  11    -0.219892922852E+03   -0.91406E+01   -0.92227E+01  6032   0.580E+02 0.396E+00
CGA:  12    -0.229475443874E+03   -0.95825E+01   -0.95620E+01  6032   0.842E+02-0.301E+00
CGA:  13    -0.234006836737E+03   -0.45314E+01   -0.46461E+01  6032   0.135E+02-0.161E+00
CGA:  14    -0.234831405434E+03   -0.82457E+00   -0.83142E+00  6032   0.611E+01-0.624E-01
CGA:  15    -0.235475300389E+03   -0.64389E+00   -0.64677E+00  6032   0.629E+01-0.298E-02
CGA:  16    -0.236116157634E+03   -0.64086E+00   -0.64146E+00  6032   0.266E+01 0.452E-02
CGA:  17    -0.236299418183E+03   -0.18326E+00   -0.18225E+00  6032   0.110E+01 0.117E-01
CGA:  18    -0.236460364247E+03   -0.16095E+00   -0.16097E+00  6032   0.124E+01 0.134E-04
CGA:  19    -0.236582241508E+03   -0.12188E+00   -0.12229E+00  6032   0.588E+00-0.182E-02
CGA:  20    -0.236623834891E+03   -0.41593E-01   -0.41644E-01  6032   0.319E+00-0.801E-03
CGA:  21    -0.236657658592E+03   -0.33824E-01   -0.33896E-01  6032   0.350E+00-0.333E-05
CGA:  22    -0.236706535912E+03   -0.48877E-01   -0.48872E-01  6032   0.180E+00-0.287E-03
CGA:  23    -0.236721858339E+03   -0.15322E-01   -0.15329E-01  6032   0.917E-01-0.152E-03
CGA:  24    -0.236731034058E+03   -0.91757E-02   -0.91662E-02  6032   0.874E-01-0.123E-03
CGA:  25    -0.236741880981E+03   -0.10847E-01   -0.10847E-01  6032   0.815E-01-0.184E-03
CGA:  26    -0.236749016515E+03   -0.71355E-02   -0.71207E-02  6032   0.509E-01-0.194E-03
CGA:  27    -0.236755364382E+03   -0.63479E-02   -0.63467E-02  6032   0.516E-01-0.119E-03
CGA:  28    -0.236761076993E+03   -0.57126E-02   -0.57052E-02  6032   0.284E-01-0.105E-03
CGA:  29    -0.236763569788E+03   -0.24928E-02   -0.24913E-02  6032   0.168E-01 0.121E-04
CGA:  30    -0.236765214145E+03   -0.16444E-02   -0.16435E-02  6032   0.150E-01 0.114E-04
CGA:  31    -0.236767132998E+03   -0.19189E-02   -0.19188E-02  6032   0.139E-01 0.213E-05
CGA:  32    -0.236768428676E+03   -0.12957E-02   -0.12952E-02  6032   0.795E-02 0.634E-05
CGA:  33    -0.236769535842E+03   -0.11072E-02   -0.11072E-02  6032   0.828E-02 0.572E-05
CGA:  34    -0.236770393276E+03   -0.85743E-03   -0.85768E-03  6032   0.662E-02 0.282E-04
CGA:  35    -0.236770977587E+03   -0.58431E-03   -0.58553E-03  6032   0.359E-02 0.438E-04
CGA:  36    -0.236771336488E+03   -0.35890E-03   -0.35979E-03  6032   0.257E-02 0.340E-04
CGA:  37    -0.236771687368E+03   -0.35088E-03   -0.35066E-03  6032   0.205E-02 0.308E-04
CGA:  38    -0.236771905191E+03   -0.21782E-03   -0.21819E-03  6032   0.192E-02 0.161E-04
CGA:  39    -0.236772120571E+03   -0.21538E-03   -0.21561E-03  6032   0.176E-02 0.156E-04
SDA:  40    -0.236772311531E+03   -0.19096E-03   -0.19131E-03  6032   0.114E-02 0.179E-04
CGA:  41    -0.236772382642E+03   -0.71111E-04   -0.71214E-04  6032   0.708E-03 0.146E-05
CGA:  42    -0.236772461178E+03   -0.78536E-04   -0.78569E-04  6032   0.442E-03 0.295E-05
CGA:  43    -0.236772506856E+03   -0.45677E-04   -0.45614E-04  6032   0.467E-03-0.345E-05
CGA:  44    -0.236772575755E+03   -0.68900E-04   -0.69262E-04  6032   0.337E-03-0.125E-04
CGA:  45    -0.236772606053E+03   -0.30298E-04   -0.30155E-04  6032   0.269E-03-0.483E-05
CGA:  46    -0.236772670021E+03   -0.63968E-04   -0.64763E-04  6032   0.277E-03-0.654E-05
CGA:  47    -0.236772692661E+03   -0.22640E-04   -0.22581E-04  6032   0.141E-03-0.137E-05
CGA:  48    -0.236772731648E+03   -0.38987E-04   -0.39350E-04  6032   0.279E-03-0.228E-05
CGA:  49    -0.236772750303E+03   -0.18655E-04   -0.18651E-04  6032   0.119E-03 0.561E-07
CGA:  50    -0.236772762008E+03   -0.11705E-04   -0.11743E-04  6032   0.147E-03 0.144E-05
CGA:  51    -0.236772793328E+03   -0.31319E-04   -0.30819E-04  6032   0.619E-04 0.645E-05
CGA:  52    -0.236772800341E+03   -0.70129E-05   -0.70297E-05  6032   0.658E-04 0.850E-06
CGA:  53    -0.236772813208E+03   -0.12868E-04   -0.12754E-04  6032   0.942E-04 0.193E-05
CGA:  54    -0.236772820616E+03   -0.74072E-05   -0.75158E-05  6032   0.498E-04 0.193E-05
CGA:  55    -0.236772826759E+03   -0.61433E-05   -0.61660E-05  6032   0.610E-04 0.247E-05
CGA:  56    -0.236772832339E+03   -0.55803E-05   -0.56682E-05  6032   0.328E-04 0.205E-05
CGA:  57    -0.236772838046E+03   -0.57067E-05   -0.57121E-05  6032   0.421E-04-0.109E-06
CGA:  58    -0.236772841836E+03   -0.37900E-05   -0.37751E-05  6032   0.187E-04-0.437E-06
CGA:  59    -0.236772845283E+03   -0.34466E-05   -0.34403E-05  6032   0.386E-04 0.911E-07
CGA:  60    -0.236772852160E+03   -0.68775E-05   -0.68337E-05  6032   0.127E-04 0.939E-06
CGA:  61    -0.236772854596E+03   -0.24363E-05   -0.24203E-05  6032   0.264E-04 0.298E-06
CGA:  62    -0.236772857284E+03   -0.26871E-05   -0.27020E-05  6032   0.166E-04 0.376E-06
CGA:  63    -0.236772858405E+03   -0.11219E-05   -0.11417E-05  6032   0.853E-05 0.315E-06
CGA:  64    -0.236772859912E+03   -0.15067E-05   -0.14709E-05  6032   0.901E-05 0.914E-06
CGA:  65    -0.236772860841E+03   -0.92925E-06   -0.94373E-06  6032   0.581E-05 0.382E-06
CGA:  66    -0.236772862054E+03   -0.12122E-05   -0.12033E-05  6032   0.103E-04 0.141E-06
CGA:  67    -0.236772862976E+03   -0.92232E-06   -0.93020E-06  6032   0.329E-05 0.190E-06
CGA:  68    -0.236772863387E+03   -0.41049E-06   -0.41490E-06  6032   0.370E-05 0.468E-06
CGA:  69    -0.236772863854E+03   -0.46739E-06   -0.47671E-06  6032   0.343E-05 0.522E-06
CGA:  70    -0.236772864249E+03   -0.39470E-06   -0.40088E-06  6032   0.426E-05 0.213E-06
SDA:  71    -0.236772864810E+03   -0.56187E-06   -0.56271E-06  6032   0.163E-05 0.223E-06
CGA:  72    -0.236772864998E+03   -0.18764E-06   -0.18769E-06  6032   0.195E-05 0.428E-08
CGA:  73    -0.236772865219E+03   -0.22098E-06   -0.22169E-06  6032   0.150E-05 0.100E-07
CGA:  74    -0.236772865318E+03   -0.99082E-07   -0.94574E-07  6032   0.612E-06-0.749E-07
CGA:  75    -0.236772865316E+03    0.18426E-08   -0.30186E-06  6032   0.865E-05-0.765E-06
CGA:  76    -0.236772865667E+03   -0.35099E-06   -0.35926E-06  6032   0.925E-06 0.897E-07
CGA:  77    -0.236772865719E+03   -0.51856E-07   -0.59675E-07  6032   0.457E-06 0.937E-07
   1 F= -.23677287E+03 E0= -.23677462E+03  d E =0.525961E-02  mag=     9.6153
