 vasp.5.4.4.18Apr17-6-g9f103f2a35 (build Dec 20 2018 12:05:58) complex          
  
 executed on             LinuxIFC date 2019.06.20  17:20:59
 running on   32 total cores
 distrk:  each k-point on    8 cores,    4 groups
 distr:  one band on NCORES_PER_BAND=   4 cores,    2 groups


--------------------------------------------------------------------------------------------------------


 INCAR:
 POTCAR:    PAW_PBE Al 04Jan2001                  
 POTCAR:    PAW_PBE Mn 06Sep2000                  

 ----------------------------------------------------------------------------- 
|                                                                             |
|           W    W    AA    RRRRR   N    N  II  N    N   GGGG   !!!           |
|           W    W   A  A   R    R  NN   N  II  NN   N  G    G  !!!           |
|           W    W  A    A  R    R  N N  N  II  N N  N  G       !!!           |
|           W WW W  AAAAAA  RRRRR   N  N N  II  N  N N  G  GGG   !            |
|           WW  WW  A    A  R   R   N   NN  II  N   NN  G    G                |
|           W    W  A    A  R    R  N    N  II  N    N   GGGG   !!!           |
|                                                                             |
|      You have enabled k-point parallelism (KPAR>1).                         |
|      This developmental code was originally  written by Paul Kent at ORNL,  |
|      and carefully double checked in Vienna.                                |
|      GW as well as linear response parallelism added by Martijn Marsman     |
|      and Georg Kresse.                                                      |
|      Carefully verify results versus KPAR=1.                                |
|      Report problems to Paul Kent and Vienna.                               |
|                                                                             |
 ----------------------------------------------------------------------------- 

 POTCAR:    PAW_PBE Al 04Jan2001                  
   VRHFIN =Al: s2p1                                                             
   LEXCH  = PE                                                                  
   EATOM  =    53.5387 eV,    3.9350 Ry                                         
                                                                                
   TITEL  = PAW_PBE Al 04Jan2001                                                
   LULTRA =        F    use ultrasoft PP ?                                      
   IUNSCR =        1    unscreen: 0-lin 1-nonlin 2-no                           
   RPACOR =    1.500    partial core radius                                     
   POMASS =   26.981; ZVAL   =    3.000    mass and valenz                      
   RCORE  =    1.900    outmost cutoff radius                                   
   RWIGS  =    2.650; RWIGS  =    1.402    wigner-seitz radius (au A)           
   ENMAX  =  240.300; ENMIN  =  180.225 eV                                      
   ICORE  =        2    local potential                                         
   LCOR   =        T    correct aug charges                                     
   LPAW   =        T    paw PP                                                  
   EAUG   =  291.052                                                            
   DEXC   =    0.000                                                            
   RMAX   =    1.939    core radius for proj-oper                               
   RAUG   =    1.300    factor for augmentation sphere                          
   RDEP   =    1.966    radius for radial grids                                 
   RDEPT  =    1.856    core radius for aug-charge                              
                                                                                
   Atomic configuration                                                         
    6 entries                                                                   
     n  l   j            E        occ.                                          
     1  0  0.50     -1511.1048   2.0000                                         
     2  0  0.50      -108.1629   2.0000                                         
     2  1  1.50       -69.6402   6.0000                                         
     3  0  0.50        -7.7528   2.0000                                         
     3  1  1.50        -2.7121   1.0000                                         
     3  2  2.50        -2.7212   0.0000                                         
   Description                                                                  
     l       E           TYP  RCUT    TYP  RCUT                                 
     0     -7.7528455     23  1.900                                             
     0     -3.3096929     23  1.900                                             
     1     -2.7120682     23  1.900                                             
     1     13.6058260     23  1.900                                             
     2     -2.7211652      7  1.900                                             
  local pseudopotential read in
  partial core-charges read in
  partial kinetic energy density read in
  atomic valenz-charges read in
  non local Contribution for L=           0  read in
    real space projection operators read in
  non local Contribution for L=           0  read in
    real space projection operators read in
  non local Contribution for L=           1  read in
    real space projection operators read in
  non local Contribution for L=           1  read in
    real space projection operators read in
    PAW grid and wavefunctions read in
 
   number of l-projection  operators is LMAX  =           4
   number of lm-projection operators is LMMAX =           8
 
 POTCAR:    PAW_PBE Mn 06Sep2000                  
   VRHFIN =Mn: d6 s1                                                            
   LEXCH  = PE                                                                  
   EATOM  =   416.7541 eV,   30.6306 Ry                                         
                                                                                
   TITEL  = PAW_PBE Mn 06Sep2000                                                
   LULTRA =        F    use ultrasoft PP ?                                      
   IUNSCR =        1    unscreen: 0-lin 1-nonlin 2-no                           
   RPACOR =    2.000    partial core radius                                     
   POMASS =   54.938; ZVAL   =    7.000    mass and valenz                      
   RCORE  =    2.300    outmost cutoff radius                                   
   RWIGS  =    2.500; RWIGS  =    1.323    wigner-seitz radius (au A)           
   ENMAX  =  269.864; ENMIN  =  202.398 eV                                      
   RCLOC  =    1.725    cutoff for local pot                                    
   LCOR   =        T    correct aug charges                                     
   LPAW   =        T    paw PP                                                  
   EAUG   =  500.711                                                            
   DEXC   =    0.000                                                            
   RMAX   =    2.343    core radius for proj-oper                               
   RAUG   =    1.300    factor for augmentation sphere                          
   RDEP   =    2.338    radius for radial grids                                 
   RDEPT  =    1.911    core radius for aug-charge                              
                                                                                
   Atomic configuration                                                         
    9 entries                                                                   
     n  l   j            E        occ.                                          
     1  0  0.50     -6424.8288   2.0000                                         
     2  0  0.50      -739.1154   2.0000                                         
     2  1  1.50      -625.3949   6.0000                                         
     3  0  0.50       -81.6100   2.0000                                         
     3  1  1.50       -50.4667   6.0000                                         
     3  2  2.50        -3.3745   6.0000                                         
     4  0  0.50        -4.1331   1.0000                                         
     4  1  0.50        -4.0817   0.0000                                         
     4  3  2.50        -1.3606   0.0000                                         
   Description                                                                  
     l       E           TYP  RCUT    TYP  RCUT                                 
     2     -3.3744664     23  2.300                                             
     2     -4.7350490     23  2.300                                             
     0     -4.1331408     23  2.300                                             
     0      7.6656614     23  2.300                                             
     1     -2.7211652     23  2.300                                             
     1     20.4087390     23  2.300                                             
  local pseudopotential read in
  partial core-charges read in
  partial kinetic energy density read in
  atomic valenz-charges read in
  non local Contribution for L=           2  read in
    real space projection operators read in
  non local Contribution for L=           2  read in
    real space projection operators read in
  non local Contribution for L=           0  read in
    real space projection operators read in
  non local Contribution for L=           0  read in
    real space projection operators read in
  non local Contribution for L=           1  read in
    real space projection operators read in
  non local Contribution for L=           1  read in
    real space projection operators read in
    PAW grid and wavefunctions read in
 
   number of l-projection  operators is LMAX  =           6
   number of lm-projection operators is LMMAX =          18
 

 ----------------------------------------------------------------------------- 
|                                                                             |
|  ADVICE TO THIS USER RUNNING 'VASP/VAMP'   (HEAR YOUR MASTER'S VOICE ...):  |
|                                                                             |
|      You have a (more or less) 'large supercell' and for larger cells       |
|      it might be more efficient to use real space projection opertators     |
|      So try LREAL= Auto  in the INCAR   file.                               |
|      Mind:          For very  accurate calculation you might also keep the  |
|      reciprocal projection scheme          (i.e. LREAL=.FALSE.)             |
|                                                                             |
 ----------------------------------------------------------------------------- 

  PAW_PBE Al 04Jan2001                  :
 energy of atom  1       EATOM=  -53.5387
 kinetic energy error for atom=    0.0005 (will be added to EATOM!!)
  PAW_PBE Mn 06Sep2000                  :
 energy of atom  2       EATOM= -416.7541
 kinetic energy error for atom=    0.0080 (will be added to EATOM!!)
 
 
 POSCAR: NewRef: 18, @ ['Mn', array([1.37502469, 
  positions in cartesian coordinates
  velocities in cartesian coordinates
  No initial velocities read in
 exchange correlation table for  LEXCH =        8
   RHO(1)=    0.500       N(1)  =     2000
   RHO(2)=  100.500       N(2)  =     4000
 


--------------------------------------------------------------------------------------------------------


 ion  position               nearest neighbor table
   1  0.000  0.000  0.000-  20 2.61  24 2.61  32 2.61  36 2.61  31 2.61  23 2.61  35 2.61  19 2.61
                             3 2.75   7 2.75   5 2.75  13 2.75
   2  0.000  0.000  0.500-  19 2.61  23 2.61  31 2.61  35 2.61  20 2.61  32 2.61  24 2.61  36 2.61
                             4 2.75   8 2.75   6 2.75  14 2.75
   3  0.000  0.333  0.000-  20 2.61  32 2.61  22 2.61  34 2.61  19 2.61  31 2.61  33 2.61  21 2.61
                             9 2.75   1 2.75   5 2.75  15 2.75
   4  0.000  0.333  0.500-  19 2.61  31 2.61  21 2.61  33 2.61  32 2.61  20 2.61  22 2.61  34 2.61
                            10 2.75   2 2.75   6 2.75  16 2.75
   5  0.000  0.667  0.000-  22 2.61  34 2.61  24 2.61  36 2.61  21 2.61  33 2.61  35 2.61  23 2.61
                             3 2.75  11 2.75   1 2.75  17 2.75
   6  0.000  0.667  0.500-  21 2.61  33 2.61  23 2.61  35 2.61  34 2.61  22 2.61  24 2.61  36 2.61
                             4 2.75  12 2.75   2 2.75  18 2.75
   7  0.333  0.000  0.000-  20 2.61  24 2.61  26 2.61  30 2.61  23 2.61  19 2.61  29 2.61  25 2.61
                            13 2.75   1 2.75   9 2.75  11 2.75
   8  0.333  0.000  0.500-  19 2.61  23 2.61  25 2.61  29 2.61  20 2.61  24 2.61  26 2.61  30 2.61
                            14 2.75   2 2.75  10 2.75  12 2.75
   9  0.333  0.333  0.000-  20 2.61  22 2.61  26 2.61  19 2.61  28 2.61  21 2.61  25 2.61  27 2.61
                             3 2.75   7 2.75  11 2.75  15 2.75
  10  0.333  0.333  0.500-  19 2.61  21 2.61  25 2.61  20 2.61  27 2.61  26 2.61  22 2.61  28 2.61
                             4 2.75   8 2.75  12 2.75  16 2.75
  11  0.333  0.667  0.000-  22 2.61  24 2.61  28 2.61  21 2.61  30 2.61  23 2.61  27 2.61  29 2.61
                            17 2.75   5 2.75   9 2.75   7 2.75
  12  0.333  0.667  0.500-  21 2.61  23 2.61  27 2.61  22 2.61  29 2.61  28 2.61  24 2.61  30 2.61
                            18 2.75   6 2.75  10 2.75   8 2.75
  13  0.667  0.000  0.000-  26 2.61  30 2.61  32 2.61  36 2.61  29 2.61  25 2.61  35 2.61  31 2.61
                             7 2.75  15 2.75   1 2.75  17 2.75
  14  0.667  0.000  0.500-  25 2.61  29 2.61  31 2.61  35 2.61  26 2.61  30 2.61  32 2.61  36 2.61
                             8 2.75  16 2.75   2 2.75  18 2.75
  15  0.667  0.333  0.000-  26 2.61  28 2.61  32 2.61  25 2.61  34 2.61  27 2.61  31 2.61  33 2.61
                            17 2.75   9 2.75  13 2.75   3 2.75
  16  0.667  0.333  0.500-  25 2.61  27 2.61  31 2.61  26 2.61  33 2.61  32 2.61  28 2.61  34 2.61
                            18 2.75  10 2.75  14 2.75   4 2.75
  17  0.667  0.667  0.000-  28 2.61  30 2.61  34 2.61  27 2.61  36 2.61  29 2.61  33 2.61  35 2.61
                            11 2.75  15 2.75  13 2.75   5 2.75
  18  0.667  0.667  0.500-  27 2.61  29 2.61  33 2.61  28 2.61  35 2.61  34 2.61  30 2.61  36 2.61
                            12 2.75  16 2.75  14 2.75   6 2.75
  19  0.167  0.167  0.250-  10 2.61   8 2.61   4 2.61   9 2.61   2 2.61   7 2.61   3 2.61   1 2.61
                            21 2.75  25 2.75  23 2.75  31 2.75
  20  0.167  0.167  0.750-   9 2.61   7 2.61   3 2.61  10 2.61   1 2.61   4 2.61   8 2.61   2 2.61
                            22 2.75  26 2.75  24 2.75  32 2.75
  21  0.167  0.500  0.250-  12 2.61  10 2.61   6 2.61  11 2.61   4 2.61   9 2.61   5 2.61   3 2.61
                            19 2.75  23 2.75  27 2.75  33 2.75
  22  0.167  0.500  0.750-  11 2.61   9 2.61   5 2.61  12 2.61   3 2.61   6 2.61  10 2.61   4 2.61
                            20 2.75  24 2.75  28 2.75  34 2.75
  23  0.167  0.833  0.250-   8 2.61  12 2.61   2 2.61   6 2.61  11 2.61   7 2.61   5 2.61   1 2.61
                            21 2.75  29 2.75  19 2.75  35 2.75
  24  0.167  0.833  0.750-   7 2.61  11 2.61   1 2.61   5 2.61   8 2.61  12 2.61   2 2.61   6 2.61
                            22 2.75  30 2.75  20 2.75  36 2.75
  25  0.500  0.167  0.250-  16 2.61  14 2.61  10 2.61  15 2.61   8 2.61  13 2.61   9 2.61   7 2.61
                            19 2.75  27 2.75  31 2.75  29 2.75
  26  0.500  0.167  0.750-  15 2.61  13 2.61   9 2.61  16 2.61   7 2.61  10 2.61  14 2.61   8 2.61
                            20 2.75  28 2.75  32 2.75  30 2.75
  27  0.500  0.500  0.250-  18 2.61  16 2.61  12 2.61  17 2.61  10 2.61  15 2.61  11 2.61   9 2.61
                            21 2.75  25 2.75  29 2.75  33 2.75
  28  0.500  0.500  0.750-  17 2.61  15 2.61  11 2.61  18 2.61   9 2.61  12 2.61  16 2.61  10 2.61
                            22 2.75  26 2.75  30 2.75  34 2.75
  29  0.500  0.833  0.250-  14 2.61  18 2.61   8 2.61  12 2.61  17 2.61  13 2.61  11 2.61   7 2.61
                            23 2.75  27 2.75  35 2.75  25 2.75
  30  0.500  0.833  0.750-  13 2.61  17 2.61   7 2.61  11 2.61  14 2.61  18 2.61   8 2.61  12 2.61
                            24 2.75  28 2.75  36 2.75  26 2.75
  31  0.833  0.167  0.250-   4 2.61  16 2.61  14 2.61   2 2.61  15 2.61   3 2.61  13 2.61   1 2.61
                            25 2.75  33 2.75  19 2.75  35 2.75
  32  0.833  0.167  0.750-   3 2.61  15 2.61  13 2.61   1 2.61   4 2.61  16 2.61   2 2.61  14 2.61
                            26 2.75  34 2.75  20 2.75  36 2.75
  33  0.833  0.500  0.250-   6 2.61  18 2.61  16 2.61   4 2.61  17 2.61   5 2.61  15 2.61   3 2.61
                            27 2.75  31 2.75  35 2.75  21 2.75
  34  0.833  0.500  0.750-   5 2.61  17 2.61  15 2.61   3 2.61   6 2.61  18 2.61   4 2.61  16 2.61
                            28 2.75  32 2.75  36 2.75  22 2.75
  35  0.833  0.833  0.250-   2 2.61   6 2.61  14 2.61  18 2.61  13 2.61   5 2.61  17 2.61   1 2.61
                            29 2.75  33 2.75  31 2.75  23 2.75
  36  0.833  0.833  0.750-   1 2.61   5 2.61  13 2.61  17 2.61   2 2.61  14 2.61   6 2.61  18 2.61
                            30 2.75  34 2.75  32 2.75  24 2.75
 
  LATTYP: Found a simple tetragonal cell.
 ALAT       =     8.2501481662
 C/A-ratio  =     0.8428059861
  
  Lattice vectors:
  
 A1 = (   8.2501481662,   0.0000000000,   0.0000000000)
 A2 = (   0.0000000000,   8.2501481662,   0.0000000000)
 A3 = (   0.0000000000,   0.0000000000,   6.9532742610)


Analysis of symmetry for initial positions (statically):
=====================================================================
 Subroutine PRICEL returns following result:
 
  LATTYP: Found a simple tetragonal cell.
 ALAT       =     2.7500493888
 C/A-ratio  =     1.2642089792
  
  Lattice vectors:
  
 A1 = (   2.7500493888,   0.0000000000,   0.0000000000)
 A2 = (   0.0000000000,   2.7500493888,   0.0000000000)
 A3 = (   0.0000000000,   0.0000000000,   3.4766371305)
 
  18 primitive cells build up your supercell.
 

 Routine SETGRP: Setting up the symmetry group for a 
 simple tetragonal supercell.


 Subroutine GETGRP returns: Found 16 space group operations
 (whereof 16 operations were pure point group operations)
 out of a pool of 16 trial point group operations.


The static configuration has the point symmetry D_4h.


Analysis of symmetry for dynamics (positions and initial velocities):
=====================================================================
 Subroutine PRICEL returns following result:
 
  LATTYP: Found a simple tetragonal cell.
 ALAT       =     2.7500493888
 C/A-ratio  =     1.2642089792
  
  Lattice vectors:
  
 A1 = (   2.7500493888,   0.0000000000,   0.0000000000)
 A2 = (   0.0000000000,   2.7500493888,   0.0000000000)
 A3 = (   0.0000000000,   0.0000000000,   3.4766371305)
 
  18 primitive cells build up your supercell.
 

 Routine SETGRP: Setting up the symmetry group for a 
 simple tetragonal supercell.


 Subroutine GETGRP returns: Found 16 space group operations
 (whereof 16 operations were pure point group operations)
 out of a pool of 16 trial point group operations.


The dynamic configuration has the point symmetry D_4h.


Analysis of structural, dynamic, and magnetic symmetry:
=====================================================================
 Subroutine PRICEL returns:
 Original cell was already a primitive cell.
 

 Routine SETGRP: Setting up the symmetry group for a 
 simple tetragonal supercell.


 Subroutine GETGRP returns: Found  2 space group operations
 (whereof  1 operations were pure point group operations)
 out of a pool of 16 trial point group operations.


The magnetic configuration has the point symmetry C_1 .
 The point group associated with its full space group is C_1h.


 Subroutine INISYM returns: Found  2 space group operations
 (whereof  1 operations are pure point group operations),
 and found     1 'primitive' translations

 
 
 KPOINTS: automatic KPOINTS                       

Automatic generation of k-mesh.
 generate k-points for:    5    5    6
Space group operators:
 irot       det(A)        alpha          n_x          n_y          n_z        tau_x        tau_y        tau_z
    1     1.000000     0.000001     1.000000     0.000000     0.000000     0.000000     0.000000     0.000000
    2    -1.000000   179.999999     0.000000     0.000000     1.000000     0.000000     0.000000     0.500000
 
 Subroutine IBZKPT returns following result:
 ===========================================
 
 Found     52 irreducible k-points:
 
 Following reciprocal coordinates:
            Coordinates               Weight
  0.000000  0.000000  0.000000      1.000000
  0.200000  0.000000  0.000000      2.000000
  0.400000  0.000000  0.000000      2.000000
  0.000000  0.200000  0.000000      2.000000
  0.200000  0.200000  0.000000      2.000000
  0.400000  0.200000  0.000000      2.000000
 -0.400000  0.200000  0.000000      2.000000
 -0.200000  0.200000  0.000000      2.000000
  0.000000  0.400000  0.000000      2.000000
  0.200000  0.400000  0.000000      2.000000
  0.400000  0.400000  0.000000      2.000000
 -0.400000  0.400000  0.000000      2.000000
 -0.200000  0.400000  0.000000      2.000000
  0.000000  0.000000  0.166667      2.000000
  0.200000  0.000000  0.166667      4.000000
  0.400000  0.000000  0.166667      4.000000
  0.000000  0.200000  0.166667      4.000000
  0.200000  0.200000  0.166667      4.000000
  0.400000  0.200000  0.166667      4.000000
 -0.400000  0.200000  0.166667      4.000000
 -0.200000  0.200000  0.166667      4.000000
  0.000000  0.400000  0.166667      4.000000
  0.200000  0.400000  0.166667      4.000000
  0.400000  0.400000  0.166667      4.000000
 -0.400000  0.400000  0.166667      4.000000
 -0.200000  0.400000  0.166667      4.000000
  0.000000  0.000000  0.333333      2.000000
  0.200000  0.000000  0.333333      4.000000
  0.400000  0.000000  0.333333      4.000000
  0.000000  0.200000  0.333333      4.000000
  0.200000  0.200000  0.333333      4.000000
  0.400000  0.200000  0.333333      4.000000
 -0.400000  0.200000  0.333333      4.000000
 -0.200000  0.200000  0.333333      4.000000
  0.000000  0.400000  0.333333      4.000000
  0.200000  0.400000  0.333333      4.000000
  0.400000  0.400000  0.333333      4.000000
 -0.400000  0.400000  0.333333      4.000000
 -0.200000  0.400000  0.333333      4.000000
  0.000000  0.000000  0.500000      1.000000
  0.200000  0.000000  0.500000      2.000000
  0.400000  0.000000  0.500000      2.000000
  0.000000  0.200000  0.500000      2.000000
  0.200000  0.200000  0.500000      2.000000
  0.400000  0.200000  0.500000      2.000000
 -0.400000  0.200000  0.500000      2.000000
 -0.200000  0.200000  0.500000      2.000000
  0.000000  0.400000  0.500000      2.000000
  0.200000  0.400000  0.500000      2.000000
  0.400000  0.400000  0.500000      2.000000
 -0.400000  0.400000  0.500000      2.000000
 -0.200000  0.400000  0.500000      2.000000
 
 Following cartesian coordinates:
            Coordinates               Weight
  0.000000  0.000000  0.000000      1.000000
  0.024242  0.000000  0.000000      2.000000
  0.048484  0.000000  0.000000      2.000000
  0.000000  0.024242  0.000000      2.000000
  0.024242  0.024242  0.000000      2.000000
  0.048484  0.024242  0.000000      2.000000
 -0.048484  0.024242  0.000000      2.000000
 -0.024242  0.024242  0.000000      2.000000
  0.000000  0.048484  0.000000      2.000000
  0.024242  0.048484  0.000000      2.000000
  0.048484  0.048484  0.000000      2.000000
 -0.048484  0.048484  0.000000      2.000000
 -0.024242  0.048484  0.000000      2.000000
  0.000000  0.000000  0.023970      2.000000
  0.024242  0.000000  0.023970      4.000000
  0.048484  0.000000  0.023970      4.000000
  0.000000  0.024242  0.023970      4.000000
  0.024242  0.024242  0.023970      4.000000
  0.048484  0.024242  0.023970      4.000000
 -0.048484  0.024242  0.023970      4.000000
 -0.024242  0.024242  0.023970      4.000000
  0.000000  0.048484  0.023970      4.000000
  0.024242  0.048484  0.023970      4.000000
  0.048484  0.048484  0.023970      4.000000
 -0.048484  0.048484  0.023970      4.000000
 -0.024242  0.048484  0.023970      4.000000
  0.000000  0.000000  0.047939      2.000000
  0.024242  0.000000  0.047939      4.000000
  0.048484  0.000000  0.047939      4.000000
  0.000000  0.024242  0.047939      4.000000
  0.024242  0.024242  0.047939      4.000000
  0.048484  0.024242  0.047939      4.000000
 -0.048484  0.024242  0.047939      4.000000
 -0.024242  0.024242  0.047939      4.000000
  0.000000  0.048484  0.047939      4.000000
  0.024242  0.048484  0.047939      4.000000
  0.048484  0.048484  0.047939      4.000000
 -0.048484  0.048484  0.047939      4.000000
 -0.024242  0.048484  0.047939      4.000000
  0.000000  0.000000  0.071909      1.000000
  0.024242  0.000000  0.071909      2.000000
  0.048484  0.000000  0.071909      2.000000
  0.000000  0.024242  0.071909      2.000000
  0.024242  0.024242  0.071909      2.000000
  0.048484  0.024242  0.071909      2.000000
 -0.048484  0.024242  0.071909      2.000000
 -0.024242  0.024242  0.071909      2.000000
  0.000000  0.048484  0.071909      2.000000
  0.024242  0.048484  0.071909      2.000000
  0.048484  0.048484  0.071909      2.000000
 -0.048484  0.048484  0.071909      2.000000
 -0.024242  0.048484  0.071909      2.000000
 


--------------------------------------------------------------------------------------------------------




 Dimension of arrays:
   k-points           NKPTS =     52   k-points in BZ     NKDIM =     52   number of bands    NBANDS=    116
   number of dos      NEDOS =    301   number of ions     NIONS =     36
   non local maximal  LDIM  =      6   non local SUM 2l+1 LMDIM =     18
   total plane-waves  NPLWV = 139968
   max r-space proj   IRMAX =      1   max aug-charges    IRDMAX=  92271
   dimension x,y,z NGX =    54 NGY =   54 NGZ =   48
   dimension x,y,z NGXF=   108 NGYF=  108 NGZF=   96
   support grid    NGXF=   216 NGYF=  216 NGZF=  192
   ions per type =              18  18
   NGX,Y,Z   is equivalent  to a cutoff of  10.88, 10.88, 11.48 a.u.
   NGXF,Y,Z  is equivalent  to a cutoff of  21.76, 21.76, 22.95 a.u.

 SYSTEM =  AlMn_pv                                 
 POSCAR =  NewRef: 18, @ ['Mn', array([1.37502469, 

 Startparameter for this run:
   NWRITE =      2    write-flag & timer
   PREC   = accura    normal or accurate (medium, high low for compatibility)
   ISTART =      0    job   : 0-new  1-cont  2-samecut
   ICHARG =      2    charge: 1-file 2-atom 10-const
   ISPIN  =      2    spin polarized calculation?
   LNONCOLLINEAR =      F non collinear calculations
   LSORBIT =      F    spin-orbit coupling
   INIWAV =      1    electr: 0-lowe 1-rand  2-diag
   LASPH  =      F    aspherical Exc in radial PAW
   METAGGA=      F    non-selfconsistent MetaGGA calc.

 Electronic Relaxation 1
   ENCUT  =  404.8 eV  29.75 Ry    5.45 a.u.  13.53 13.53 11.41*2*pi/ulx,y,z
   ENINI  =  404.8     initial cutoff
   ENAUG  =  500.7 eV  augmentation charge cutoff
   NELM   =    100;   NELMIN=  4; NELMDL= -8     # of ELM steps 
   EDIFF  = 0.1E-06   stopping-criterion for ELM
   LREAL  =      F    real-space projection
   NLSPLINE    = F    spline interpolate recip. space projectors
   LCOMPAT=      F    compatible to vasp.4.4
   GGA_COMPAT  = T    GGA compatible to vasp.4.4-vasp.4.6
   LMAXPAW     = -100 max onsite density
   LMAXMIX     =    2 max onsite mixed and CHGCAR
   VOSKOWN=      0    Vosko Wilk Nusair interpolation
   ROPT   =    0.00000   0.00000
 Ionic relaxation
   EDIFFG = 0.1E-05   stopping-criterion for IOM
   NSW    =      0    number of steps for IOM
   NBLOCK =      1;   KBLOCK =      1    inner block; outer block 
   IBRION =     -1    ionic relax: 0-MD 1-quasi-New 2-CG
   NFREE  =      0    steps in history (QN), initial steepest desc. (CG)
   ISIF   =      2    stress and relaxation
   IWAVPR =     10    prediction:  0-non 1-charg 2-wave 3-comb
   ISYM   =      2    0-nonsym 1-usesym 2-fastsym
   LCORR  =      T    Harris-Foulkes like correction to forces

   POTIM  = 0.2000    time-step for ionic-motion
   TEIN   =    0.0    initial temperature
   TEBEG  =    0.0;   TEEND  =   0.0 temperature during run
   SMASS  =  -3.00    Nose mass-parameter (am)
   estimated Nose-frequenzy (Omega)   =  0.10E-29 period in steps =****** mass=  -0.156E-26a.u.
   SCALEE = 1.0000    scale energy and forces
   NPACO  =    256;   APACO  = 16.0  distance and # of slots for P.C.
   PSTRESS=    0.0 pullay stress

  Mass of Ions in am
   POMASS =  26.98 54.94
  Ionic Valenz
   ZVAL   =   3.00  7.00
  Atomic Wigner-Seitz radii
   RWIGS  =  -1.00 -1.00
  virtual crystal weights 
   VCA    =   1.00  1.00
   NELECT =     180.0000    total number of electrons
   NUPDOWN=      -1.0000    fix difference up-down

 DOS related values:
   EMIN   =  10.00;   EMAX   =-10.00  energy-range for DOS
   EFERMI =   0.00
   ISMEAR =     1;   SIGMA  =   0.20  broadening in eV -4-tet -1-fermi 0-gaus

 Electronic relaxation 2 (details)
   IALGO  =     58    algorithm
   LDIAG  =      T    sub-space diagonalisation (order eigenvalues)
   LSUBROT=      F    optimize rotation matrix (better conditioning)
   TURBO    =      0    0=normal 1=particle mesh
   IRESTART =      0    0=no restart 2=restart with 2 vectors
   NREBOOT  =      0    no. of reboots
   NMIN     =      0    reboot dimension
   EREF     =   0.00    reference energy to select bands
   IMIX   =      4    mixing-type and parameters
     AMIX     =   0.40;   BMIX     =  1.00
     AMIX_MAG =   1.60;   BMIX_MAG =  1.00
     AMIN     =   0.10
     WC   =   100.;   INIMIX=   1;  MIXPRE=   1;  MAXMIX= -45

 Intra band minimization:
   WEIMIN = 0.0000     energy-eigenvalue tresh-hold
   EBREAK =  0.22E-09  absolut break condition
   DEPER  =   0.30     relativ break condition  

   TIME   =   0.40     timestep for ELM

  volume/ion in A,a.u.               =      13.15        88.72
  Fermi-wavevector in a.u.,A,eV,Ry     =   1.186118  2.241439 19.141722  1.406877
  Thomas-Fermi vector in A             =   2.322298
 
 Write flags
   LWAVE        =      F    write WAVECAR
   LDOWNSAMPLE  =      F    k-point downsampling of WAVECAR
   LCHARG       =      F    write CHGCAR
   LVTOT        =      F    write LOCPOT, total local potential
   LVHAR        =      F    write LOCPOT, Hartree potential only
   LELF         =      F    write electronic localiz. function (ELF)
   LORBIT       =     10    0 simple, 1 ext, 2 COOP (PROOUT), +10 PAW based schemes


 Dipole corrections
   LMONO  =      F    monopole corrections only (constant potential shift)
   LDIPOL =      F    correct potential (dipole corrections)
   IDIPOL =      0    1-x, 2-y, 3-z, 4-all directions 
   EPSILON=  1.0000000 bulk dielectric constant

 Exchange correlation treatment:
   GGA     =    --    GGA type
   LEXCH   =     8    internal setting for exchange type
   VOSKOWN=      0    Vosko Wilk Nusair interpolation
   LHFCALC =     F    Hartree Fock is set to
   LHFONE  =     F    Hartree Fock one center treatment
   AEXX    =    0.0000 exact exchange contribution

 Linear response parameters
   LEPSILON=     F    determine dielectric tensor
   LRPA    =     F    only Hartree local field effects (RPA)
   LNABLA  =     F    use nabla operator in PAW spheres
   LVEL    =     F    velocity operator in full k-point grid
   LINTERFAST=   F  fast interpolation
   KINTER  =     0    interpolate to denser k-point grid
   CSHIFT  =0.1000    complex shift for real part using Kramers Kronig
   OMEGAMAX=  -1.0    maximum frequency
   DEG_THRESHOLD= 0.2000000E-02 threshold for treating states as degnerate
   RTIME   =   -0.100 relaxation time in fs
  (WPLASMAI=    0.000 imaginary part of plasma frequency in eV, 0.658/RTIME)
   DFIELD  = 0.0000000 0.0000000 0.0000000 field for delta impulse in time
 
 Orbital magnetization related:
   ORBITALMAG=     F  switch on orbital magnetization
   LCHIMAG   =     F  perturbation theory with respect to B field
   DQ        =  0.001000  dq finite difference perturbation B field
   LLRAUG    =     F  two centre corrections for induced B field



--------------------------------------------------------------------------------------------------------


 Static calculation
 charge density and potential will be updated during run
 spin polarized calculation
 Conjugate gradient for all bands (Freysoldt, et al. PRB 79, 241103 (2009))
 preconditioned conjugated gradient                                        
 perform sub-space diagonalisation
    before iterative eigenvector-optimisation
 modified Broyden-mixing scheme, WC =      100.0
 initial mixing is a Kerker type mixing with AMIX =  0.4000 and BMIX =      1.0000
 Hartree-type preconditioning will be used
 using additional bands           26
 reciprocal scheme for non local part
 use partial core corrections
 no Harris-corrections to forces 
 use gradient corrections 
 use of overlap-Matrix (Vanderbilt PP)
 Methfessel and Paxton  Order N= 1 SIGMA  =   0.20


--------------------------------------------------------------------------------------------------------


  energy-cutoff  :      404.80
  volume of cell :      473.27
      direct lattice vectors                 reciprocal lattice vectors
     8.250148166  0.000000000  0.000000000     0.121209944  0.000000000  0.000000000
     0.000000000  8.250148166  0.000000000     0.000000000  0.121209944  0.000000000
     0.000000000  0.000000000  6.953274261     0.000000000  0.000000000  0.143817137

  length of vectors
     8.250148166  8.250148166  6.953274261     0.121209944  0.121209944  0.143817137


 
 k-points in units of 2pi/SCALE and weight: automatic KPOINTS                       
   0.00000000  0.00000000  0.00000000       0.007
   0.02424199  0.00000000  0.00000000       0.013
   0.04848398  0.00000000  0.00000000       0.013
   0.00000000  0.02424199  0.00000000       0.013
   0.02424199  0.02424199  0.00000000       0.013
   0.04848398  0.02424199  0.00000000       0.013
  -0.04848398  0.02424199  0.00000000       0.013
  -0.02424199  0.02424199  0.00000000       0.013
   0.00000000  0.04848398  0.00000000       0.013
   0.02424199  0.04848398  0.00000000       0.013
   0.04848398  0.04848398  0.00000000       0.013
  -0.04848398  0.04848398  0.00000000       0.013
  -0.02424199  0.04848398  0.00000000       0.013
   0.00000000  0.00000000  0.02396952       0.013
   0.02424199  0.00000000  0.02396952       0.027
   0.04848398  0.00000000  0.02396952       0.027
   0.00000000  0.02424199  0.02396952       0.027
   0.02424199  0.02424199  0.02396952       0.027
   0.04848398  0.02424199  0.02396952       0.027
  -0.04848398  0.02424199  0.02396952       0.027
  -0.02424199  0.02424199  0.02396952       0.027
   0.00000000  0.04848398  0.02396952       0.027
   0.02424199  0.04848398  0.02396952       0.027
   0.04848398  0.04848398  0.02396952       0.027
  -0.04848398  0.04848398  0.02396952       0.027
  -0.02424199  0.04848398  0.02396952       0.027
   0.00000000  0.00000000  0.04793905       0.013
   0.02424199  0.00000000  0.04793905       0.027
   0.04848398  0.00000000  0.04793905       0.027
   0.00000000  0.02424199  0.04793905       0.027
   0.02424199  0.02424199  0.04793905       0.027
   0.04848398  0.02424199  0.04793905       0.027
  -0.04848398  0.02424199  0.04793905       0.027
  -0.02424199  0.02424199  0.04793905       0.027
   0.00000000  0.04848398  0.04793905       0.027
   0.02424199  0.04848398  0.04793905       0.027
   0.04848398  0.04848398  0.04793905       0.027
  -0.04848398  0.04848398  0.04793905       0.027
  -0.02424199  0.04848398  0.04793905       0.027
   0.00000000  0.00000000  0.07190857       0.007
   0.02424199  0.00000000  0.07190857       0.013
   0.04848398  0.00000000  0.07190857       0.013
   0.00000000  0.02424199  0.07190857       0.013
   0.02424199  0.02424199  0.07190857       0.013
   0.04848398  0.02424199  0.07190857       0.013
  -0.04848398  0.02424199  0.07190857       0.013
  -0.02424199  0.02424199  0.07190857       0.013
   0.00000000  0.04848398  0.07190857       0.013
   0.02424199  0.04848398  0.07190857       0.013
   0.04848398  0.04848398  0.07190857       0.013
  -0.04848398  0.04848398  0.07190857       0.013
  -0.02424199  0.04848398  0.07190857       0.013
 
 k-points in reciprocal lattice and weights: automatic KPOINTS                       
   0.00000000  0.00000000  0.00000000       0.007
   0.20000000  0.00000000  0.00000000       0.013
   0.40000000  0.00000000  0.00000000       0.013
   0.00000000  0.20000000  0.00000000       0.013
   0.20000000  0.20000000  0.00000000       0.013
   0.40000000  0.20000000  0.00000000       0.013
  -0.40000000  0.20000000  0.00000000       0.013
  -0.20000000  0.20000000  0.00000000       0.013
   0.00000000  0.40000000  0.00000000       0.013
   0.20000000  0.40000000  0.00000000       0.013
   0.40000000  0.40000000  0.00000000       0.013
  -0.40000000  0.40000000  0.00000000       0.013
  -0.20000000  0.40000000  0.00000000       0.013
   0.00000000  0.00000000  0.16666667       0.013
   0.20000000  0.00000000  0.16666667       0.027
   0.40000000  0.00000000  0.16666667       0.027
   0.00000000  0.20000000  0.16666667       0.027
   0.20000000  0.20000000  0.16666667       0.027
   0.40000000  0.20000000  0.16666667       0.027
  -0.40000000  0.20000000  0.16666667       0.027
  -0.20000000  0.20000000  0.16666667       0.027
   0.00000000  0.40000000  0.16666667       0.027
   0.20000000  0.40000000  0.16666667       0.027
   0.40000000  0.40000000  0.16666667       0.027
  -0.40000000  0.40000000  0.16666667       0.027
  -0.20000000  0.40000000  0.16666667       0.027
   0.00000000  0.00000000  0.33333333       0.013
   0.20000000  0.00000000  0.33333333       0.027
   0.40000000  0.00000000  0.33333333       0.027
   0.00000000  0.20000000  0.33333333       0.027
   0.20000000  0.20000000  0.33333333       0.027
   0.40000000  0.20000000  0.33333333       0.027
  -0.40000000  0.20000000  0.33333333       0.027
  -0.20000000  0.20000000  0.33333333       0.027
   0.00000000  0.40000000  0.33333333       0.027
   0.20000000  0.40000000  0.33333333       0.027
   0.40000000  0.40000000  0.33333333       0.027
  -0.40000000  0.40000000  0.33333333       0.027
  -0.20000000  0.40000000  0.33333333       0.027
   0.00000000  0.00000000  0.50000000       0.007
   0.20000000  0.00000000  0.50000000       0.013
   0.40000000  0.00000000  0.50000000       0.013
   0.00000000  0.20000000  0.50000000       0.013
   0.20000000  0.20000000  0.50000000       0.013
   0.40000000  0.20000000  0.50000000       0.013
  -0.40000000  0.20000000  0.50000000       0.013
  -0.20000000  0.20000000  0.50000000       0.013
   0.00000000  0.40000000  0.50000000       0.013
   0.20000000  0.40000000  0.50000000       0.013
   0.40000000  0.40000000  0.50000000       0.013
  -0.40000000  0.40000000  0.50000000       0.013
  -0.20000000  0.40000000  0.50000000       0.013
 
 position of ions in fractional coordinates (direct lattice) 
   0.00000000  0.00000000  0.00000000
   0.00000000  0.00000000  0.50000000
   0.00000000  0.33333333  0.00000000
   0.00000000  0.33333333  0.50000000
   0.00000000  0.66666667  0.00000000
   0.00000000  0.66666667  0.50000000
   0.33333333  0.00000000  0.00000000
   0.33333333  0.00000000  0.50000000
   0.33333333  0.33333333  0.00000000
   0.33333333  0.33333333  0.50000000
   0.33333333  0.66666667  0.00000000
   0.33333333  0.66666667  0.50000000
   0.66666667  0.00000000  0.00000000
   0.66666667  0.00000000  0.50000000
   0.66666667  0.33333333  0.00000000
   0.66666667  0.33333333  0.50000000
   0.66666667  0.66666667  0.00000000
   0.66666667  0.66666667  0.50000000
   0.16666667  0.16666667  0.25000000
   0.16666667  0.16666667  0.75000000
   0.16666667  0.50000000  0.25000000
   0.16666667  0.50000000  0.75000000
   0.16666667  0.83333333  0.25000000
   0.16666667  0.83333333  0.75000000
   0.50000000  0.16666667  0.25000000
   0.50000000  0.16666667  0.75000000
   0.50000000  0.50000000  0.25000000
   0.50000000  0.50000000  0.75000000
   0.50000000  0.83333333  0.25000000
   0.50000000  0.83333333  0.75000000
   0.83333333  0.16666667  0.25000000
   0.83333333  0.16666667  0.75000000
   0.83333333  0.50000000  0.25000000
   0.83333333  0.50000000  0.75000000
   0.83333333  0.83333333  0.25000000
   0.83333333  0.83333333  0.75000000
 
 position of ions in cartesian coordinates  (Angst):
   0.00000000  0.00000000  0.00000000
   0.00000000  0.00000000  3.47663713
   0.00000000  2.75004939  0.00000000
   0.00000000  2.75004939  3.47663713
   0.00000000  5.50009878  0.00000000
   0.00000000  5.50009878  3.47663713
   2.75004939  0.00000000  0.00000000
   2.75004939  0.00000000  3.47663713
   2.75004939  2.75004939  0.00000000
   2.75004939  2.75004939  3.47663713
   2.75004939  5.50009878  0.00000000
   2.75004939  5.50009878  3.47663713
   5.50009878  0.00000000  0.00000000
   5.50009878  0.00000000  3.47663713
   5.50009878  2.75004939  0.00000000
   5.50009878  2.75004939  3.47663713
   5.50009878  5.50009878  0.00000000
   5.50009878  5.50009878  3.47663713
   1.37502469  1.37502469  1.73831857
   1.37502469  1.37502469  5.21495570
   1.37502469  4.12507408  1.73831857
   1.37502469  4.12507408  5.21495570
   1.37502469  6.87512347  1.73831857
   1.37502469  6.87512347  5.21495570
   4.12507408  1.37502469  1.73831857
   4.12507408  1.37502469  5.21495570
   4.12507408  4.12507408  1.73831857
   4.12507408  4.12507408  5.21495570
   4.12507408  6.87512347  1.73831857
   4.12507408  6.87512347  5.21495570
   6.87512347  1.37502469  1.73831857
   6.87512347  1.37502469  5.21495570
   6.87512347  4.12507408  1.73831857
   6.87512347  4.12507408  5.21495570
   6.87512347  6.87512347  1.73831857
   6.87512347  6.87512347  5.21495570
 


--------------------------------------------------------------------------------------------------------


 k-point  1 :   0.0000 0.0000 0.0000  plane waves:    8799
 k-point  2 :   0.2000 0.0000 0.0000  plane waves:    8753
 k-point  3 :   0.4000 0.0000 0.0000  plane waves:    8757
 k-point  4 :   0.0000 0.2000 0.0000  plane waves:    8753
 k-point  5 :   0.2000 0.2000 0.0000  plane waves:    8767
 k-point  6 :   0.4000 0.2000 0.0000  plane waves:    8761
 k-point  7 :  -0.4000 0.2000 0.0000  plane waves:    8761
 k-point  8 :  -0.2000 0.2000 0.0000  plane waves:    8767
 k-point  9 :   0.0000 0.4000 0.0000  plane waves:    8757
 k-point 10 :   0.2000 0.4000 0.0000  plane waves:    8761
 k-point 11 :   0.4000 0.4000 0.0000  plane waves:    8731
 k-point 12 :  -0.4000 0.4000 0.0000  plane waves:    8731
 k-point 13 :  -0.2000 0.4000 0.0000  plane waves:    8761
 k-point 14 :   0.0000 0.0000 0.1667  plane waves:    8763
 k-point 15 :   0.2000 0.0000 0.1667  plane waves:    8771
 k-point 16 :   0.4000 0.0000 0.1667  plane waves:    8747
 k-point 17 :   0.0000 0.2000 0.1667  plane waves:    8771
 k-point 18 :   0.2000 0.2000 0.1667  plane waves:    8764
 k-point 19 :   0.4000 0.2000 0.1667  plane waves:    8768
 k-point 20 :  -0.4000 0.2000 0.1667  plane waves:    8768
 k-point 21 :  -0.2000 0.2000 0.1667  plane waves:    8764
 k-point 22 :   0.0000 0.4000 0.1667  plane waves:    8747
 k-point 23 :   0.2000 0.4000 0.1667  plane waves:    8768
 k-point 24 :   0.4000 0.4000 0.1667  plane waves:    8740
 k-point 25 :  -0.4000 0.4000 0.1667  plane waves:    8740
 k-point 26 :  -0.2000 0.4000 0.1667  plane waves:    8768
 k-point 27 :   0.0000 0.0000 0.3333  plane waves:    8743
 k-point 28 :   0.2000 0.0000 0.3333  plane waves:    8736
 k-point 29 :   0.4000 0.0000 0.3333  plane waves:    8753
 k-point 30 :   0.0000 0.2000 0.3333  plane waves:    8736
 k-point 31 :   0.2000 0.2000 0.3333  plane waves:    8753
 k-point 32 :   0.4000 0.2000 0.3333  plane waves:    8743
 k-point 33 :  -0.4000 0.2000 0.3333  plane waves:    8743
 k-point 34 :  -0.2000 0.2000 0.3333  plane waves:    8753
 k-point 35 :   0.0000 0.4000 0.3333  plane waves:    8753
 k-point 36 :   0.2000 0.4000 0.3333  plane waves:    8743
 k-point 37 :   0.4000 0.4000 0.3333  plane waves:    8755
 k-point 38 :  -0.4000 0.4000 0.3333  plane waves:    8755
 k-point 39 :  -0.2000 0.4000 0.3333  plane waves:    8743
 k-point 40 :   0.0000 0.0000 0.5000  plane waves:    8742
 k-point 41 :   0.2000 0.0000 0.5000  plane waves:    8756
 k-point 42 :   0.4000 0.0000 0.5000  plane waves:    8744
 k-point 43 :   0.0000 0.2000 0.5000  plane waves:    8756
 k-point 44 :   0.2000 0.2000 0.5000  plane waves:    8762
 k-point 45 :   0.4000 0.2000 0.5000  plane waves:    8732
 k-point 46 :  -0.4000 0.2000 0.5000  plane waves:    8732
 k-point 47 :  -0.2000 0.2000 0.5000  plane waves:    8762
 k-point 48 :   0.0000 0.4000 0.5000  plane waves:    8744
 k-point 49 :   0.2000 0.4000 0.5000  plane waves:    8732
 k-point 50 :   0.4000 0.4000 0.5000  plane waves:    8736
 k-point 51 :  -0.4000 0.4000 0.5000  plane waves:    8736
 k-point 52 :  -0.2000 0.4000 0.5000  plane waves:    8732

 maximum and minimum number of plane-waves per node :      2210     2164

 maximum number of plane-waves:      8799
 maximum index in each direction: 
   IXMAX=   13   IYMAX=   13   IZMAX=   11
   IXMIN=  -13   IYMIN=  -13   IZMIN=  -11


 parallel 3D FFT for wavefunctions:
    minimum data exchange during FFTs selected (reduces bandwidth)
 parallel 3D FFT for charge:
    minimum data exchange during FFTs selected (reduces bandwidth)


 total amount of memory used by VASP MPI-rank0   775081. kBytes
=======================================================================

   base      :      30000. kBytes
   nonl-proj :      34307. kBytes
   fftplans  :      21726. kBytes
   grid      :      14732. kBytes
   one-center:        279. kBytes
   wavefun   :     674037. kBytes
 
     INWAV:  cpu time    0.0000: real time    0.0000
 Broyden mixing: mesh for mixing (old mesh)
   NGX = 27   NGY = 27   NGZ = 23
  (NGX  =108   NGY  =108   NGZ  = 96)
  gives a total of  16767 points

 initial charge density was supplied:
 charge density of overlapping atoms calculated
 number of electron     180.0000000 magnetization      12.0000000
 keeping initial charge density in first step


--------------------------------------------------------------------------------------------------------


 Maximum index for augmentation-charges        11261 (set IRDMAX)


--------------------------------------------------------------------------------------------------------


 First call to EWALD:  gamma=   0.227
 Maximum number of real-space cells 3x 3x 3
 Maximum number of reciprocal cells 3x 3x 3

    FEWALD:  cpu time    0.0022: real time    0.0022


--------------------------------------- Iteration      1(   1)  ---------------------------------------


    POTLOK:  cpu time    0.2530: real time    0.2529
    SETDIJ:  cpu time    0.3186: real time    0.3186
    TRIAL :  cpu time   19.9521: real time   20.1386
    CORREC:  cpu time    0.0071: real time    0.0079
    --------------------------------------------
      LOOP:  cpu time   20.7597: real time   20.9528

 eigenvalue-minimisations  : 24128
 total energy-change (2. order) : 0.1340231E+04  (-0.5922390E+04)
 number of electron     180.0000000 magnetization      12.0000000
 augmentation part      180.0000000 magnetization      12.0000000

 Free energy of the ion-electron system (eV)
  ---------------------------------------------------
  alpha Z        PSCENC =       532.25742704
  Ewald energy   TEWEN  =     -8601.05107233
  -Hartree energ DENC   =     -1903.73857242
  -exchange      EXHF   =         0.00000000
  -V(xc)+E(xc)   XCENC  =      -664.37400757
  PAW double counting   =      8494.55058411    -7650.81563588
  entropy T*S    EENTRO =        -0.00019006
  eigenvalues    EBANDS =      2668.28671551
  atomic energy  EATOM  =      8465.11600846
  ---------------------------------------------------
  free energy    TOTEN  =      1340.23125686 eV

  energy without entropy =     1340.23144692  energy(sigma->0) =     1340.23132021


--------------------------------------------------------------------------------------------------------




--------------------------------------- Iteration      1(   2)  ---------------------------------------


    TRIAL :  cpu time   19.3641: real time   20.1705
    CORREC:  cpu time    0.0089: real time    0.0089
    --------------------------------------------
      LOOP:  cpu time   19.3741: real time   20.1823

 eigenvalue-minimisations  : 24128
 total energy-change (2. order) :-0.1411504E+04  (-0.1371807E+04)
 number of electron     180.0000000 magnetization      12.0000000
 augmentation part      180.0000000 magnetization      12.0000000

 Free energy of the ion-electron system (eV)
  ---------------------------------------------------
  alpha Z        PSCENC =       532.25742704
  Ewald energy   TEWEN  =     -8601.05107233
  -Hartree energ DENC   =     -1903.73857242
  -exchange      EXHF   =         0.00000000
  -V(xc)+E(xc)   XCENC  =      -664.37400757
  PAW double counting   =      8494.55058411    -7650.81563588
  entropy T*S    EENTRO =        -0.00031331
  eigenvalues    EBANDS =      1256.78240383
  atomic energy  EATOM  =      8465.11600846
  ---------------------------------------------------
  free energy    TOTEN  =       -71.27317807 eV

  energy without entropy =      -71.27286476  energy(sigma->0) =      -71.27307364


--------------------------------------------------------------------------------------------------------




--------------------------------------- Iteration      1(   3)  ---------------------------------------


    TRIAL :  cpu time   26.7770: real time   27.7143
    CORREC:  cpu time    0.0103: real time    0.0112
    --------------------------------------------
      LOOP:  cpu time   26.7892: real time   27.7286

 eigenvalue-minimisations  : 36532
 total energy-change (2. order) :-0.1692805E+03  (-0.1494886E+03)
 number of electron     180.0000000 magnetization      12.0000000
 augmentation part      180.0000000 magnetization      12.0000000

 Free energy of the ion-electron system (eV)
  ---------------------------------------------------
  alpha Z        PSCENC =       532.25742704
  Ewald energy   TEWEN  =     -8601.05107233
  -Hartree energ DENC   =     -1903.73857242
  -exchange      EXHF   =         0.00000000
  -V(xc)+E(xc)   XCENC  =      -664.37400757
  PAW double counting   =      8494.55058411    -7650.81563588
  entropy T*S    EENTRO =         0.01042609
  eigenvalues    EBANDS =      1087.49115737
  atomic energy  EATOM  =      8465.11600846
  ---------------------------------------------------
  free energy    TOTEN  =      -240.55368513 eV

  energy without entropy =     -240.56411122  energy(sigma->0) =     -240.55716049


--------------------------------------------------------------------------------------------------------




--------------------------------------- Iteration      1(   4)  ---------------------------------------


    TRIAL :  cpu time   28.4934: real time   29.4190
    CORREC:  cpu time    0.0109: real time    0.0110
    --------------------------------------------
      LOOP:  cpu time   28.5067: real time   29.4325

 eigenvalue-minimisations  : 39136
 total energy-change (2. order) :-0.2599472E+02  (-0.2284804E+02)
 number of electron     180.0000000 magnetization      12.0000000
 augmentation part      180.0000000 magnetization      12.0000000

 Free energy of the ion-electron system (eV)
  ---------------------------------------------------
  alpha Z        PSCENC =       532.25742704
  Ewald energy   TEWEN  =     -8601.05107233
  -Hartree energ DENC   =     -1903.73857242
  -exchange      EXHF   =         0.00000000
  -V(xc)+E(xc)   XCENC  =      -664.37400757
  PAW double counting   =      8494.55058411    -7650.81563588
  entropy T*S    EENTRO =        -0.00202432
  eigenvalues    EBANDS =      1061.50888808
  atomic energy  EATOM  =      8465.11600846
  ---------------------------------------------------
  free energy    TOTEN  =      -266.54840484 eV

  energy without entropy =     -266.54638052  energy(sigma->0) =     -266.54773006


--------------------------------------------------------------------------------------------------------




--------------------------------------- Iteration      1(   5)  ---------------------------------------


    TRIAL :  cpu time   29.5151: real time   29.7124
    CORREC:  cpu time    0.0109: real time    0.0118
    --------------------------------------------
      LOOP:  cpu time   29.5271: real time   29.7277

 eigenvalue-minimisations  : 39840
 total energy-change (2. order) :-0.2574554E+01  (-0.2448541E+01)
 number of electron     180.0000000 magnetization      12.0000000
 augmentation part      180.0000000 magnetization      12.0000000

 Free energy of the ion-electron system (eV)
  ---------------------------------------------------
  alpha Z        PSCENC =       532.25742704
  Ewald energy   TEWEN  =     -8601.05107233
  -Hartree energ DENC   =     -1903.73857242
  -exchange      EXHF   =         0.00000000
  -V(xc)+E(xc)   XCENC  =      -664.37400757
  PAW double counting   =      8494.55058411    -7650.81563588
  entropy T*S    EENTRO =        -0.00318304
  eigenvalues    EBANDS =      1058.93549329
  atomic energy  EATOM  =      8465.11600846
  ---------------------------------------------------
  free energy    TOTEN  =      -269.12295835 eV

  energy without entropy =     -269.11977530  energy(sigma->0) =     -269.12189733


--------------------------------------------------------------------------------------------------------




--------------------------------------- Iteration      1(   6)  ---------------------------------------


    TRIAL :  cpu time   28.6124: real time   29.6109
    CORREC:  cpu time    0.0109: real time    0.0110
    --------------------------------------------
      LOOP:  cpu time   28.6241: real time   29.6258

 eigenvalue-minimisations  : 39592
 total energy-change (2. order) :-0.2021966E+00  (-0.1981111E+00)
 number of electron     180.0000000 magnetization      12.0000000
 augmentation part      180.0000000 magnetization      12.0000000

 Free energy of the ion-electron system (eV)
  ---------------------------------------------------
  alpha Z        PSCENC =       532.25742704
  Ewald energy   TEWEN  =     -8601.05107233
  -Hartree energ DENC   =     -1903.73857242
  -exchange      EXHF   =         0.00000000
  -V(xc)+E(xc)   XCENC  =      -664.37400757
  PAW double counting   =      8494.55058411    -7650.81563588
  entropy T*S    EENTRO =        -0.00290389
  eigenvalues    EBANDS =      1058.73301754
  atomic energy  EATOM  =      8465.11600846
  ---------------------------------------------------
  free energy    TOTEN  =      -269.32515495 eV

  energy without entropy =     -269.32225106  energy(sigma->0) =     -269.32418698


--------------------------------------------------------------------------------------------------------




--------------------------------------- Iteration      1(   7)  ---------------------------------------


    TRIAL :  cpu time   30.0109: real time   30.2109
    CORREC:  cpu time    0.0112: real time    0.0120
    --------------------------------------------
      LOOP:  cpu time   30.0229: real time   30.2260

 eigenvalue-minimisations  : 40568
 total energy-change (2. order) :-0.2114273E-01  (-0.2095716E-01)
 number of electron     180.0000000 magnetization      12.0000000
 augmentation part      180.0000000 magnetization      12.0000000

 Free energy of the ion-electron system (eV)
  ---------------------------------------------------
  alpha Z        PSCENC =       532.25742704
  Ewald energy   TEWEN  =     -8601.05107233
  -Hartree energ DENC   =     -1903.73857242
  -exchange      EXHF   =         0.00000000
  -V(xc)+E(xc)   XCENC  =      -664.37400757
  PAW double counting   =      8494.55058411    -7650.81563588
  entropy T*S    EENTRO =        -0.00282665
  eigenvalues    EBANDS =      1058.71179757
  atomic energy  EATOM  =      8465.11600846
  ---------------------------------------------------
  free energy    TOTEN  =      -269.34629768 eV

  energy without entropy =     -269.34347103  energy(sigma->0) =     -269.34535546


--------------------------------------------------------------------------------------------------------




--------------------------------------- Iteration      1(   8)  ---------------------------------------


    TRIAL :  cpu time   28.0535: real time   28.9965
    CORREC:  cpu time    0.0113: real time    0.0121
    CHARGE:  cpu time    1.1150: real time    1.1152
    --------------------------------------------
      LOOP:  cpu time   29.1831: real time   30.1271

 eigenvalue-minimisations  : 38752
 total energy-change (2. order) :-0.1590994E-02  (-0.1582285E-02)
 number of electron     179.9999997 magnetization       8.5555062
 augmentation part       42.7456065 magnetization       4.9837424

 Free energy of the ion-electron system (eV)
  ---------------------------------------------------
  alpha Z        PSCENC =       532.25742704
  Ewald energy   TEWEN  =     -8601.05107233
  -Hartree energ DENC   =     -1903.73857242
  -exchange      EXHF   =         0.00000000
  -V(xc)+E(xc)   XCENC  =      -664.37400757
  PAW double counting   =      8494.55058411    -7650.81563588
  entropy T*S    EENTRO =        -0.00279501
  eigenvalues    EBANDS =      1058.71017493
  atomic energy  EATOM  =      8465.11600846
  ---------------------------------------------------
  free energy    TOTEN  =      -269.34788867 eV

  energy without entropy =     -269.34509366  energy(sigma->0) =     -269.34695700


--------------------------------------------------------------------------------------------------------




--------------------------------------- Iteration      1(   9)  ---------------------------------------


    POTLOK:  cpu time    0.2531: real time    0.2533
    SETDIJ:  cpu time    0.3394: real time    0.3395
    TRIAL :  cpu time   10.3604: real time   10.5104
    CORREC:  cpu time    3.5685: real time    3.5703
    CHARGE:  cpu time    1.1170: real time    1.1171
    --------------------------------------------
      LOOP:  cpu time   15.6429: real time   15.7956

 eigenvalue-minimisations  :     0
 total energy-change (2. order) : 0.2025114E+03  (-0.1447489E+03)
 number of electron     179.9999997 magnetization       9.0660006
 augmentation part       54.7777465 magnetization       5.9370087

 Free energy of the ion-electron system (eV)
  ---------------------------------------------------
  alpha Z        PSCENC =       532.25742704
  Ewald energy   TEWEN  =     -8601.05107233
  -Hartree energ DENC   =      -848.39259317
  -exchange      EXHF   =         0.00000000
  -V(xc)+E(xc)   XCENC  =      -694.47525583
  PAW double counting   =     12773.04142490   -11826.81052360
  entropy T*S    EENTRO =        -0.00165281
  eigenvalues    EBANDS =       133.48092644
  atomic energy  EATOM  =      8465.11600846
  ---------------------------------------------------
  free energy    TOTEN  =       -66.83645310 eV

  energy without entropy =      -66.83480030  energy(sigma->0) =      -66.83590217


--------------------------------------------------------------------------------------------------------




--------------------------------------- Iteration      1(  10)  ---------------------------------------


    POTLOK:  cpu time    0.2478: real time    0.2478
    SETDIJ:  cpu time    0.3192: real time    0.3194
    TRIAL :  cpu time    9.7828: real time    9.8458
    CORREC:  cpu time    3.5544: real time    3.5555
    CHARGE:  cpu time    1.0967: real time    1.0970
    --------------------------------------------
      LOOP:  cpu time   15.0076: real time   15.0722

 eigenvalue-minimisations  :     0
 total energy-change (2. order) :-0.1439159E+03  (-0.9222686E+01)
 number of electron     179.9999996 magnetization       9.1903368
 augmentation part       58.0360246 magnetization       6.2429985

 Free energy of the ion-electron system (eV)
  ---------------------------------------------------
  alpha Z        PSCENC =       532.25742704
  Ewald energy   TEWEN  =     -8601.05107233
  -Hartree energ DENC   =     -1393.80876009
  -exchange      EXHF   =         0.00000000
  -V(xc)+E(xc)   XCENC  =      -675.54291242
  PAW double counting   =     13722.46928469   -12895.00129000
  entropy T*S    EENTRO =         0.00154839
  eigenvalues    EBANDS =       634.81061772
  atomic energy  EATOM  =      8465.11600846
  ---------------------------------------------------
  free energy    TOTEN  =      -210.75234974 eV

  energy without entropy =     -210.75389813  energy(sigma->0) =     -210.75286587


--------------------------------------------------------------------------------------------------------




--------------------------------------- Iteration      1(  11)  ---------------------------------------


    POTLOK:  cpu time    0.2563: real time    0.3255
    SETDIJ:  cpu time    0.3448: real time    0.3447
    TRIAL :  cpu time   10.4423: real time   10.4646
    CORREC:  cpu time    3.5272: real time    3.5380
    CHARGE:  cpu time    1.1331: real time    1.1332
    --------------------------------------------
      LOOP:  cpu time   15.7110: real time   15.8139

 eigenvalue-minimisations  :     0
 total energy-change (2. order) :-0.9140573E+01  (-0.9562034E+01)
 number of electron     179.9999996 magnetization       9.5300567
 augmentation part       59.1095670 magnetization       6.5525659

 Free energy of the ion-electron system (eV)
  ---------------------------------------------------
  alpha Z        PSCENC =       532.25742704
  Ewald energy   TEWEN  =     -8601.05107233
  -Hartree energ DENC   =     -1585.27363568
  -exchange      EXHF   =         0.00000000
  -V(xc)+E(xc)   XCENC  =      -668.71563451
  PAW double counting   =     14480.53207302   -13685.76831479
  entropy T*S    EENTRO =        -0.00700163
  eigenvalues    EBANDS =       843.00867756
  atomic energy  EATOM  =      8465.11600846
  ---------------------------------------------------
  free energy    TOTEN  =      -219.89292285 eV

  energy without entropy =     -219.88592122  energy(sigma->0) =     -219.89058897


--------------------------------------------------------------------------------------------------------




--------------------------------------- Iteration      1(  12)  ---------------------------------------


    POTLOK:  cpu time    0.2473: real time    0.2474
    SETDIJ:  cpu time    0.3210: real time    0.3209
    TRIAL :  cpu time   10.1833: real time   10.2211
    CORREC:  cpu time    3.5126: real time    3.5169
    CHARGE:  cpu time    1.1303: real time    1.1307
    --------------------------------------------
      LOOP:  cpu time   15.3994: real time   15.4436

 eigenvalue-minimisations  :     0
 total energy-change (2. order) :-0.9582521E+01  (-0.4646084E+01)
 number of electron     179.9999996 magnetization       9.4432513
 augmentation part       58.2051443 magnetization       6.5501471

 Free energy of the ion-electron system (eV)
  ---------------------------------------------------
  alpha Z        PSCENC =       532.25742704
  Ewald energy   TEWEN  =     -8601.05107233
  -Hartree energ DENC   =     -1713.28020722
  -exchange      EXHF   =         0.00000000
  -V(xc)+E(xc)   XCENC  =      -664.74111914
  PAW double counting   =     14395.68214540   -13595.47949420
  entropy T*S    EENTRO =        -0.00226603
  eigenvalues    EBANDS =       952.02786976
  atomic energy  EATOM  =      8465.11600846
  ---------------------------------------------------
  free energy    TOTEN  =      -229.47544387 eV

  energy without entropy =     -229.47317785  energy(sigma->0) =     -229.47468853


--------------------------------------------------------------------------------------------------------




--------------------------------------- Iteration      1(  13)  ---------------------------------------


    POTLOK:  cpu time    0.2488: real time    0.2488
    SETDIJ:  cpu time    0.3182: real time    0.3183
    TRIAL :  cpu time   10.2730: real time   10.4007
    CORREC:  cpu time    3.5646: real time    3.5654
    CHARGE:  cpu time    1.0934: real time    1.1211
    --------------------------------------------
      LOOP:  cpu time   15.5001: real time   15.6575

 eigenvalue-minimisations  :     0
 total energy-change (2. order) :-0.4531393E+01  (-0.8314191E+00)
 number of electron     179.9999997 magnetization       9.4745665
 augmentation part       57.5271484 magnetization       6.5281072

 Free energy of the ion-electron system (eV)
  ---------------------------------------------------
  alpha Z        PSCENC =       532.25742704
  Ewald energy   TEWEN  =     -8601.05107233
  -Hartree energ DENC   =     -1700.60376835
  -exchange      EXHF   =         0.00000000
  -V(xc)+E(xc)   XCENC  =      -665.46817468
  PAW double counting   =     14174.83483813   -13353.39903845
  entropy T*S    EENTRO =        -0.00538716
  eigenvalues    EBANDS =       914.30920948
  atomic energy  EATOM  =      8465.11600846
  ---------------------------------------------------
  free energy    TOTEN  =      -234.00683674 eV

  energy without entropy =     -234.00144958  energy(sigma->0) =     -234.00504102


--------------------------------------------------------------------------------------------------------




--------------------------------------- Iteration      1(  14)  ---------------------------------------


    POTLOK:  cpu time    0.2514: real time    0.2609
    SETDIJ:  cpu time    0.3473: real time    0.3481
    TRIAL :  cpu time    9.6821: real time    9.7063
    CORREC:  cpu time    3.5547: real time    3.6152
    CHARGE:  cpu time    1.1258: real time    1.1337
    --------------------------------------------
      LOOP:  cpu time   14.9677: real time   15.0719

 eigenvalue-minimisations  :     0
 total energy-change (2. order) :-0.8245687E+00  (-0.6467721E+00)
 number of electron     179.9999996 magnetization       9.3801622
 augmentation part       57.2152640 magnetization       6.4199360

 Free energy of the ion-electron system (eV)
  ---------------------------------------------------
  alpha Z        PSCENC =       532.25742704
  Ewald energy   TEWEN  =     -8601.05107233
  -Hartree energ DENC   =     -1666.30331415
  -exchange      EXHF   =         0.00000000
  -V(xc)+E(xc)   XCENC  =      -666.74926613
  PAW double counting   =     13932.01696140   -13100.26244780
  entropy T*S    EENTRO =        -0.00284509
  eigenvalues    EBANDS =       870.14968523
  atomic energy  EATOM  =      8465.11600846
  ---------------------------------------------------
  free energy    TOTEN  =      -234.83140543 eV

  energy without entropy =     -234.82856034  energy(sigma->0) =     -234.83045707


--------------------------------------------------------------------------------------------------------




--------------------------------------- Iteration      1(  15)  ---------------------------------------


    POTLOK:  cpu time    0.2487: real time    0.2487
    SETDIJ:  cpu time    0.3229: real time    0.3230
    TRIAL :  cpu time   10.2105: real time   10.2932
    CORREC:  cpu time    3.5202: real time    3.5210
    CHARGE:  cpu time    1.1443: real time    1.1725
    --------------------------------------------
      LOOP:  cpu time   15.4533: real time   15.5659

 eigenvalue-minimisations  :     0
 total energy-change (2. order) :-0.6438950E+00  (-0.6414646E+00)
 number of electron     179.9999996 magnetization       9.4456052
 augmentation part       57.6557897 magnetization       6.4221798

 Free energy of the ion-electron system (eV)
  ---------------------------------------------------
  alpha Z        PSCENC =       532.25742704
  Ewald energy   TEWEN  =     -8601.05107233
  -Hartree energ DENC   =     -1643.11798986
  -exchange      EXHF   =         0.00000000
  -V(xc)+E(xc)   XCENC  =      -667.51545319
  PAW double counting   =     13530.97800126   -12693.13871407
  entropy T*S    EENTRO =        -0.00277502
  eigenvalues    EBANDS =       840.99933739
  atomic energy  EATOM  =      8465.11600846
  ---------------------------------------------------
  free energy    TOTEN  =      -235.47530039 eV

  energy without entropy =     -235.47252537  energy(sigma->0) =     -235.47437538


--------------------------------------------------------------------------------------------------------




--------------------------------------- Iteration      1(  16)  ---------------------------------------


    POTLOK:  cpu time    0.2765: real time    0.2765
    SETDIJ:  cpu time    0.3150: real time    0.3149
    TRIAL :  cpu time   10.1979: real time   10.2306
    CORREC:  cpu time    3.5054: real time    3.5067
    CHARGE:  cpu time    1.1143: real time    1.1142
    --------------------------------------------
      LOOP:  cpu time   15.4109: real time   15.4457

 eigenvalue-minimisations  :     0
 total energy-change (2. order) :-0.6408572E+00  (-0.1822499E+00)
 number of electron     179.9999996 magnetization       9.3614082
 augmentation part       58.0114915 magnetization       6.4134843

 Free energy of the ion-electron system (eV)
  ---------------------------------------------------
  alpha Z        PSCENC =       532.25742704
  Ewald energy   TEWEN  =     -8601.05107233
  -Hartree energ DENC   =     -1654.85430453
  -exchange      EXHF   =         0.00000000
  -V(xc)+E(xc)   XCENC  =      -666.95401781
  PAW double counting   =     13136.69632953   -12301.27779745
  entropy T*S    EENTRO =        -0.00256320
  eigenvalues    EBANDS =       853.95404448
  atomic energy  EATOM  =      8465.11600846
  ---------------------------------------------------
  free energy    TOTEN  =      -236.11615763 eV

  energy without entropy =     -236.11359443  energy(sigma->0) =     -236.11530323


--------------------------------------------------------------------------------------------------------




--------------------------------------- Iteration      1(  17)  ---------------------------------------


    POTLOK:  cpu time    0.2477: real time    0.2478
    SETDIJ:  cpu time    0.3207: real time    0.3207
    TRIAL :  cpu time   10.3233: real time   10.4793
    CORREC:  cpu time    3.5009: real time    3.5889
    CHARGE:  cpu time    1.1183: real time    1.1183
    --------------------------------------------
      LOOP:  cpu time   15.5137: real time   15.7604

 eigenvalue-minimisations  :     0
 total energy-change (2. order) :-0.1832605E+00  (-0.1609665E+00)
 number of electron     179.9999996 magnetization       9.3925729
 augmentation part       58.2531072 magnetization       6.4895811

 Free energy of the ion-electron system (eV)
  ---------------------------------------------------
  alpha Z        PSCENC =       532.25742704
  Ewald energy   TEWEN  =     -8601.05107233
  -Hartree energ DENC   =     -1669.82170328
  -exchange      EXHF   =         0.00000000
  -V(xc)+E(xc)   XCENC  =      -666.32126292
  PAW double counting   =     13054.95049475   -12223.02501228
  entropy T*S    EENTRO =        -0.00091126
  eigenvalues    EBANDS =       871.59826559
  atomic energy  EATOM  =      8465.11600846
  ---------------------------------------------------
  free energy    TOTEN  =      -236.29941818 eV

  energy without entropy =     -236.29850692  energy(sigma->0) =     -236.29911443


--------------------------------------------------------------------------------------------------------




--------------------------------------- Iteration      1(  18)  ---------------------------------------


    POTLOK:  cpu time    0.2474: real time    0.2473
    SETDIJ:  cpu time    0.3225: real time    0.3226
    TRIAL :  cpu time    9.7381: real time    9.7609
    CORREC:  cpu time    3.5092: real time    3.5877
    CHARGE:  cpu time    1.0677: real time    1.1507
    --------------------------------------------
      LOOP:  cpu time   14.8897: real time   15.0764

 eigenvalue-minimisations  :     0
 total energy-change (2. order) :-0.1609461E+00  (-0.1222854E+00)
 number of electron     179.9999996 magnetization       9.3721157
 augmentation part       58.1359279 magnetization       6.5238593

 Free energy of the ion-electron system (eV)
  ---------------------------------------------------
  alpha Z        PSCENC =       532.25742704
  Ewald energy   TEWEN  =     -8601.05107233
  -Hartree energ DENC   =     -1679.58921688
  -exchange      EXHF   =         0.00000000
  -V(xc)+E(xc)   XCENC  =      -665.79184941
  PAW double counting   =     13012.05145491   -12182.84850748
  entropy T*S    EENTRO =         0.00060744
  eigenvalues    EBANDS =       883.39630271
  atomic energy  EATOM  =      8465.11600846
  ---------------------------------------------------
  free energy    TOTEN  =      -236.46036425 eV

  energy without entropy =     -236.46097169  energy(sigma->0) =     -236.46056673


--------------------------------------------------------------------------------------------------------




--------------------------------------- Iteration      1(  19)  ---------------------------------------


    POTLOK:  cpu time    0.2475: real time    0.2475
    SETDIJ:  cpu time    0.3339: real time    0.3339
    TRIAL :  cpu time   10.2718: real time   10.2903
    CORREC:  cpu time    3.5334: real time    3.5533
    CHARGE:  cpu time    1.1126: real time    1.1282
    --------------------------------------------
      LOOP:  cpu time   15.5022: real time   15.5573

 eigenvalue-minimisations  :     0
 total energy-change (2. order) :-0.1218773E+00  (-0.4164358E-01)
 number of electron     179.9999996 magnetization       9.3863104
 augmentation part       57.9800819 magnetization       6.5438992

 Free energy of the ion-electron system (eV)
  ---------------------------------------------------
  alpha Z        PSCENC =       532.25742704
  Ewald energy   TEWEN  =     -8601.05107233
  -Hartree energ DENC   =     -1671.88128507
  -exchange      EXHF   =         0.00000000
  -V(xc)+E(xc)   XCENC  =      -665.89707459
  PAW double counting   =     12981.99688016   -12151.69560810
  entropy T*S    EENTRO =         0.00045693
  eigenvalues    EBANDS =       874.57187548
  atomic energy  EATOM  =      8465.11600846
  ---------------------------------------------------
  free energy    TOTEN  =      -236.58224151 eV

  energy without entropy =     -236.58269844  energy(sigma->0) =     -236.58239382


--------------------------------------------------------------------------------------------------------




--------------------------------------- Iteration      1(  20)  ---------------------------------------


    POTLOK:  cpu time    0.2480: real time    0.2480
    SETDIJ:  cpu time    0.3251: real time    0.3251
    TRIAL :  cpu time   10.2070: real time   10.2305
    CORREC:  cpu time    3.5269: real time    3.5277
    CHARGE:  cpu time    1.1390: real time    1.1573
    --------------------------------------------
      LOOP:  cpu time   15.4492: real time   15.4943

 eigenvalue-minimisations  :     0
 total energy-change (2. order) :-0.4159338E-01  (-0.3389573E-01)
 number of electron     179.9999996 magnetization       9.3481447
 augmentation part       57.8579874 magnetization       6.5379874

 Free energy of the ion-electron system (eV)
  ---------------------------------------------------
  alpha Z        PSCENC =       532.25742704
  Ewald energy   TEWEN  =     -8601.05107233
  -Hartree energ DENC   =     -1663.88282541
  -exchange      EXHF   =         0.00000000
  -V(xc)+E(xc)   XCENC  =      -666.12899319
  PAW double counting   =     12970.31261270   -12138.43174004
  entropy T*S    EENTRO =         0.00141279
  eigenvalues    EBANDS =       865.18429095
  atomic energy  EATOM  =      8465.11600846
  ---------------------------------------------------
  free energy    TOTEN  =      -236.62383489 eV

  energy without entropy =     -236.62524768  energy(sigma->0) =     -236.62430582


--------------------------------------------------------------------------------------------------------




--------------------------------------- Iteration      1(  21)  ---------------------------------------


    POTLOK:  cpu time    0.2474: real time    0.2475
    SETDIJ:  cpu time    0.2971: real time    0.3538
    TRIAL :  cpu time   10.2673: real time   10.3379
    CORREC:  cpu time    3.5458: real time    3.5991
    CHARGE:  cpu time    1.1137: real time    1.1137
    --------------------------------------------
      LOOP:  cpu time   15.4935: real time   15.6744

 eigenvalue-minimisations  :     0
 total energy-change (2. order) :-0.3382370E-01  (-0.4887197E-01)
 number of electron     179.9999996 magnetization       9.3640277
 augmentation part       57.8614802 magnetization       6.5654242

 Free energy of the ion-electron system (eV)
  ---------------------------------------------------
  alpha Z        PSCENC =       532.25742704
  Ewald energy   TEWEN  =     -8601.05107233
  -Hartree energ DENC   =     -1658.65984230
  -exchange      EXHF   =         0.00000000
  -V(xc)+E(xc)   XCENC  =      -666.25616759
  PAW double counting   =     12967.25483044   -12134.26306744
  entropy T*S    EENTRO =         0.00189090
  eigenvalues    EBANDS =       858.94281235
  atomic energy  EATOM  =      8465.11600846
  ---------------------------------------------------
  free energy    TOTEN  =      -236.65765859 eV

  energy without entropy =     -236.65954949  energy(sigma->0) =     -236.65828889


--------------------------------------------------------------------------------------------------------




--------------------------------------- Iteration      1(  22)  ---------------------------------------


    POTLOK:  cpu time    0.2485: real time    0.2486
    SETDIJ:  cpu time    0.3407: real time    0.3406
    TRIAL :  cpu time    9.6676: real time    9.7617
    CORREC:  cpu time    3.5507: real time    3.6161
    CHARGE:  cpu time    1.1169: real time    1.1170
    --------------------------------------------
      LOOP:  cpu time   14.9289: real time   15.0885

 eigenvalue-minimisations  :     0
 total energy-change (2. order) :-0.4887732E-01  (-0.1532875E-01)
 number of electron     179.9999996 magnetization       9.3537245
 augmentation part       57.9447651 magnetization       6.5727852

 Free energy of the ion-electron system (eV)
  ---------------------------------------------------
  alpha Z        PSCENC =       532.25742704
  Ewald energy   TEWEN  =     -8601.05107233
  -Hartree energ DENC   =     -1661.54934383
  -exchange      EXHF   =         0.00000000
  -V(xc)+E(xc)   XCENC  =      -666.07663203
  PAW double counting   =     12985.34159389   -12152.82253933
  entropy T*S    EENTRO =         0.00246049
  eigenvalues    EBANDS =       862.07613133
  atomic energy  EATOM  =      8465.11600846
  ---------------------------------------------------
  free energy    TOTEN  =      -236.70653591 eV

  energy without entropy =     -236.70899641  energy(sigma->0) =     -236.70735608


--------------------------------------------------------------------------------------------------------




--------------------------------------- Iteration      1(  23)  ---------------------------------------


    POTLOK:  cpu time    0.2481: real time    0.2482
    SETDIJ:  cpu time    0.3247: real time    0.3247
    TRIAL :  cpu time   10.2719: real time   10.2845
    CORREC:  cpu time    3.5168: real time    3.5682
    CHARGE:  cpu time    1.7968: real time    1.8456
    --------------------------------------------
[...]
  8.441  14.385   0.000   0.000  -0.000   0.000   0.000  -0.000
 14.385  24.514   0.000   0.000  -0.000   0.000   0.000  -0.000
  0.000   0.000   1.996   0.000   0.000   5.750   0.000   0.000
  0.000   0.000   0.000   1.996   0.000   0.000   5.749   0.000
 -0.000  -0.000   0.000   0.000   1.996   0.000   0.000   5.750
  0.000   0.000   5.750   0.000   0.000  16.479   0.000   0.000
  0.000   0.000   0.000   5.749   0.000   0.000  16.475   0.000
 -0.000  -0.000   0.000   0.000   5.750   0.000   0.000  16.479
 total augmentation occupancy for first ion, spin component:           1
  4.362  -1.243  -0.005  -0.002  -0.005   0.000   0.000   0.000
 -1.243   0.373   0.001   0.001   0.002  -0.000  -0.000  -0.000
 -0.005   0.001   1.395  -0.010  -0.003  -0.100   0.000   0.000
 -0.002   0.001  -0.010   1.507  -0.011   0.000  -0.102   0.001
 -0.005   0.002  -0.003  -0.011   1.403   0.000   0.001  -0.100
  0.000  -0.000  -0.100   0.000   0.000   0.007  -0.000   0.000
  0.000  -0.000   0.000  -0.102   0.001  -0.000   0.007  -0.000
  0.000  -0.000   0.000   0.001  -0.100   0.000  -0.000   0.007
 total augmentation occupancy for first ion, spin component:           2
 -0.178   0.057  -0.019  -0.016  -0.019   0.001  -0.000   0.001
  0.057  -0.018  -0.003  -0.007  -0.003   0.000   0.001   0.000
 -0.019  -0.003  -0.059   0.024   0.019   0.004  -0.000  -0.000
 -0.016  -0.007   0.024  -0.131   0.020  -0.000   0.006  -0.000
 -0.019  -0.003   0.019   0.020  -0.068  -0.000  -0.000   0.004
  0.001   0.000   0.004  -0.000  -0.000  -0.000  -0.000  -0.000
 -0.000   0.001  -0.000   0.006  -0.000  -0.000  -0.000  -0.000
  0.001   0.000  -0.000  -0.000   0.004  -0.000  -0.000  -0.000


------------------------ aborting loop because EDIFF is reached ----------------------------------------


 


 total charge     
 
# of ion       s       p       d       tot
------------------------------------------
    1        0.406   0.426   0.000   0.832
    2        0.406   0.425   0.000   0.831
    3        0.405   0.427   0.000   0.833
    4        0.405   0.427   0.000   0.832
    5        0.406   0.427   0.000   0.833
    6        0.406   0.427   0.000   0.833
    7        0.405   0.428   0.000   0.832
    8        0.404   0.428   0.000   0.832
    9        0.405   0.428   0.000   0.832
   10        0.405   0.428   0.000   0.833
   11        0.405   0.427   0.000   0.832
   12        0.405   0.428   0.000   0.832
   13        0.405   0.427   0.000   0.832
   14        0.405   0.427   0.000   0.832
   15        0.405   0.429   0.000   0.834
   16        0.405   0.429   0.000   0.834
   17        0.405   0.427   0.000   0.832
   18        0.405   0.426   0.000   0.831
   19        0.333   0.350   5.144   5.827
   20        0.336   0.353   5.128   5.817
   21        0.334   0.358   5.120   5.812
   22        0.330   0.353   5.145   5.828
   23        0.333   0.346   5.151   5.830
   24        0.335   0.353   5.132   5.821
   25        0.334   0.356   5.125   5.815
   26        0.332   0.353   5.141   5.826
   27        0.336   0.351   5.132   5.819
   28        0.330   0.357   5.132   5.819
   29        0.333   0.353   5.135   5.821
   30        0.334   0.353   5.131   5.818
   31        0.335   0.351   5.133   5.819
   32        0.335   0.352   5.134   5.822
   33        0.337   0.354   5.130   5.821
   34        0.334   0.350   5.137   5.822
   35        0.331   0.358   5.126   5.816
   36        0.333   0.354   5.129   5.817
--------------------------------------------------
tot         13.297  14.047  92.407 119.750
 


 magnetization (x)
 
# of ion       s       p       d       tot
------------------------------------------
    1       -0.013  -0.027   0.000  -0.040
    2       -0.013  -0.028   0.000  -0.041
    3       -0.006  -0.011   0.000  -0.016
    4       -0.005  -0.010   0.000  -0.015
    5       -0.002  -0.002   0.000  -0.003
    6       -0.002  -0.002   0.000  -0.004
    7       -0.010  -0.019   0.000  -0.029
    8       -0.011  -0.018   0.000  -0.029
    9       -0.005  -0.007   0.000  -0.012
   10       -0.005  -0.007   0.000  -0.011
   11       -0.003  -0.007   0.000  -0.010
   12       -0.004  -0.007   0.000  -0.011
   13       -0.005  -0.009   0.000  -0.014
   14       -0.005  -0.010   0.000  -0.015
   15       -0.000   0.000   0.000  -0.000
   16       -0.000   0.000   0.000  -0.000
   17        0.003   0.008   0.000   0.011
   18        0.003   0.008   0.000   0.011
   19        0.014   0.015   2.241   2.270
   20        0.017   0.015   2.404   2.436
   21        0.020   0.033   2.371   2.424
   22       -0.021  -0.031  -2.072  -2.123
   23        0.017   0.006   2.279   2.302
   24        0.026   0.025   2.238   2.289
   25        0.010   0.022   2.310   2.342
   26       -0.025  -0.022  -2.209  -2.256
   27        0.024   0.017   2.391   2.432
   28       -0.002  -0.008  -2.252  -2.262
   29        0.011   0.013   2.264   2.288
   30       -0.017  -0.012  -2.384  -2.413
   31        0.028   0.019   2.430   2.477
   32        0.030   0.018   2.333   2.381
   33       -0.031  -0.027  -2.234  -2.293
   34       -0.023  -0.007  -2.435  -2.465
   35        0.018   0.032   2.270   2.320
   36       -0.024  -0.031  -2.389  -2.443
--------------------------------------------------
tot         -0.008  -0.069   9.555   9.477
 
    FORLOC:  cpu time    0.0285: real time    0.0285
    FORNL :  cpu time   13.4233: real time   14.4358
    STRESS:  cpu time   18.6555: real time   18.7429
    FORCOR:  cpu time    0.2702: real time    0.2701
    OFIELD:  cpu time    0.0014: real time    0.0014

  FORCE on cell =-STRESS in cart. coord.  units (eV):
  Direction    XX          YY          ZZ          XY          YZ          ZX
  --------------------------------------------------------------------------------------
  Alpha Z   532.25743   532.25743   532.25743
  Ewald   -2702.40749 -2702.40749 -3196.26924    -0.00000    -0.00000    -0.00000
  Hartree   721.83537   722.13027   223.35335     0.15843    -0.00000    -0.00000
  E(xc)    -760.50259  -760.47943  -759.87670    -0.06373    -0.00000    -0.00000
  Local     247.28563   247.28627  1266.82528    -0.48824     0.00000     0.00000
  n-local  -112.39982  -112.00077  -119.72034    -0.02512    -0.20257    -0.18134
  augment   522.02197   522.01568   513.01105     0.18358     0.00001     0.00001
  Kinetic  1556.63517  1557.12968  1540.29163     0.47162     1.34753     0.47601
  Fock        0.00000     0.00000     0.00000     0.00000     0.00000     0.00000
  -------------------------------------------------------------------------------------
  Total       4.72568     5.93163    -0.12754     0.23653     0.00000     0.00000
  in kB      15.99785    20.08038    -0.43177     0.80074     0.00000     0.00000
  external pressure =       11.88 kB  Pullay stress =        0.00 kB


 VOLUME and BASIS-vectors are now :
 -----------------------------------------------------------------------------
  energy-cutoff  :      404.80
  volume of cell :      473.27
      direct lattice vectors                 reciprocal lattice vectors
     8.250148166  0.000000000  0.000000000     0.121209944  0.000000000  0.000000000
     0.000000000  8.250148166  0.000000000     0.000000000  0.121209944  0.000000000
     0.000000000  0.000000000  6.953274261     0.000000000  0.000000000  0.143817137

  length of vectors
     8.250148166  8.250148166  6.953274261     0.121209944  0.121209944  0.143817137


 FORCES acting on ions:
    Electron-Ion                     Ewald-Force                    Non-Local-Force
 -----------------------------------------------------------------------------------------------
   0.628E-01 -.299E-02 0.331E-02   -.239E-08 -.239E-08 0.411E-08   0.550E-01 0.876E-01 0.478E-01
   0.628E-01 -.299E-02 -.331E-02   -.239E-08 -.239E-08 0.411E-08   0.550E-01 0.876E-01 -.478E-01
   -.561E-01 -.291E-01 -.571E-01   -.239E-08 -.802E-09 0.411E-08   0.202E-01 -.601E-01 0.307E-01
   -.561E-01 -.291E-01 0.571E-01   -.239E-08 -.802E-09 0.411E-08   0.202E-01 -.601E-01 -.307E-01
   0.473E-01 0.239E-01 -.768E-02   -.239E-08 0.631E-08 0.411E-08   -.986E-02 -.185E-01 0.467E-02
   0.473E-01 0.239E-01 0.768E-02   -.239E-08 0.631E-08 0.411E-08   -.986E-02 -.185E-01 -.467E-02
   0.599E-01 -.197E-02 -.291E-01   -.802E-09 -.239E-08 0.411E-08   -.139E+00 -.601E-02 0.920E-01
   0.599E-01 -.197E-02 0.291E-01   -.802E-09 -.239E-08 0.411E-08   -.139E+00 -.601E-02 -.920E-01
   0.100E+00 0.146E+00 0.568E-02   -.802E-09 -.802E-09 0.411E-08   -.709E-01 -.763E-01 0.166E-01
   0.100E+00 0.146E+00 -.568E-02   -.802E-09 -.802E-09 0.411E-08   -.709E-01 -.763E-01 -.166E-01
   0.750E-01 -.126E+00 0.267E-01   -.802E-09 0.631E-08 0.411E-08   -.659E-01 0.595E-01 -.157E-01
   0.750E-01 -.126E+00 -.267E-01   -.802E-09 0.631E-08 0.411E-08   -.659E-01 0.595E-01 0.157E-01
   -.110E+00 -.104E+00 0.584E-01   0.631E-08 -.239E-08 0.411E-08   0.526E-01 0.675E-01 0.215E-01
   -.110E+00 -.104E+00 -.584E-01   0.631E-08 -.239E-08 0.411E-08   0.526E-01 0.675E-01 -.215E-01
   -.256E-01 -.299E-01 -.925E-03   0.631E-08 -.802E-09 0.411E-08   0.416E-01 0.353E-01 -.234E-01
   -.256E-01 -.299E-01 0.925E-03   0.631E-08 -.802E-09 0.411E-08   0.416E-01 0.353E-01 0.234E-01
   -.122E+00 0.140E+00 -.563E-01   0.631E-08 0.631E-08 0.411E-08   0.103E+00 -.882E-01 -.472E-01
   -.122E+00 0.140E+00 0.563E-01   0.631E-08 0.631E-08 0.411E-08   0.103E+00 -.882E-01 0.472E-01
   -.782E-01 0.117E+00 -.275E-08   -.169E-07 -.169E-07 -.411E-08   0.153E+00 -.609E-01 0.000E+00
   -.502E+00 -.463E+00 -.300E-08   -.169E-07 -.169E-07 -.411E-08   0.249E+00 0.209E+00 0.000E+00
   0.300E+00 -.525E-01 -.195E-08   -.169E-07 0.802E-09 -.411E-08   -.179E+00 0.591E-01 0.000E+00
   0.156E+00 -.745E-01 -.264E-08   -.169E-07 0.802E-09 -.411E-08   -.129E+00 0.125E+00 0.000E+00
   -.630E-01 -.630E-01 -.231E-08   -.169E-07 0.130E-07 -.411E-08   0.618E-01 0.452E-01 0.000E+00
   0.832E-01 0.612E+00 -.135E-08   -.169E-07 0.130E-07 -.411E-08   -.108E+00 -.305E+00 0.000E+00
   0.644E-01 0.673E-01 -.273E-08   0.802E-09 -.169E-07 -.411E-08   -.991E-01 -.101E+00 0.000E+00
   0.743E-01 0.134E+00 -.303E-08   0.802E-09 -.169E-07 -.411E-08   -.726E-02 -.154E+00 0.000E+00
   -.301E+00 -.434E-01 -.170E-08   0.802E-09 0.802E-09 -.411E-08   0.167E+00 0.544E-01 0.000E+00
   -.127E+00 -.818E-01 -.269E-08   0.802E-09 0.802E-09 -.411E-08   0.135E+00 0.117E+00 0.000E+00
   0.137E+00 -.452E-01 -.224E-08   0.802E-09 0.130E-07 -.411E-08   -.114E+00 0.910E-01 0.000E+00
   0.433E+00 -.398E-01 -.152E-08   0.802E-09 0.130E-07 -.411E-08   -.323E+00 -.822E-02 0.000E+00
   0.254E-01 -.287E+00 0.176E-09   0.130E-07 -.169E-07 -.411E-08   -.566E-01 0.136E+00 0.000E+00
   0.568E+00 0.197E+00 -.424E-08   0.130E-07 -.169E-07 -.411E-08   -.242E+00 -.145E+00 0.000E+00
   -.132E+00 -.197E+00 0.126E-08   0.130E-07 0.802E-09 -.411E-08   0.167E+00 0.183E+00 0.000E+00
   -.660E-01 0.362E+00 -.387E-08   0.130E-07 0.802E-09 -.411E-08   -.355E-02 -.293E+00 0.000E+00
   -.904E-01 0.241E+00 0.450E-09   0.130E-07 0.130E-07 -.411E-08   0.348E-01 -.159E+00 0.000E+00
   -.586E+00 -.485E+00 -.290E-08   0.130E-07 0.130E-07 -.411E-08   0.363E+00 0.276E+00 0.000E+00
 -----------------------------------------------------------------------------------------------
   -.418E-01 -.721E-01 -.730E-07   -.197E-14 0.275E-13 0.265E-14   0.418E-01 0.720E-01 0.000E+00
 
 
 POSITION                                       TOTAL-FORCE (eV/Angst)
 -----------------------------------------------------------------------------------
      0.00000      0.00000      0.00000         0.112611      0.076610      0.045497
      0.00000      0.00000      3.47664         0.112611      0.076610     -0.045497
      0.00000      2.75005      0.00000        -0.037353     -0.083879     -0.029406
      0.00000      2.75005      3.47664        -0.037353     -0.083879      0.029406
      0.00000      5.50010      0.00000         0.038481      0.007184     -0.003634
      0.00000      5.50010      3.47664         0.038481      0.007184      0.003634
      2.75005      0.00000      0.00000        -0.067306     -0.007249      0.053548
      2.75005      0.00000      3.47664        -0.067306     -0.007249     -0.053548
      2.75005      2.75005      0.00000         0.035435      0.077390      0.020053
      2.75005      2.75005      3.47664         0.035435      0.077390     -0.020053
      2.75005      5.50010      0.00000         0.014680     -0.072338      0.011111
      2.75005      5.50010      3.47664         0.014680     -0.072338     -0.011111
      5.50010      0.00000      0.00000        -0.061821     -0.042528      0.077498
      5.50010      0.00000      3.47664        -0.061821     -0.042528     -0.077498
      5.50010      2.75005      0.00000         0.012477      0.002318     -0.022231
      5.50010      2.75005      3.47664         0.012477      0.002318      0.022231
      5.50010      5.50010      0.00000        -0.027554      0.060536     -0.099079
      5.50010      5.50010      3.47664        -0.027554      0.060536      0.099079
      1.37502      1.37502      1.73832         0.068824      0.054465      0.000000
      1.37502      1.37502      5.21496        -0.264553     -0.267030      0.000000
      1.37502      4.12507      1.73832         0.119491      0.006459      0.000000
      1.37502      4.12507      5.21496         0.027842      0.050755      0.000000
      1.37502      6.87512      1.73832        -0.004083     -0.017164      0.000000
      1.37502      6.87512      5.21496        -0.026482      0.325016      0.000000
      4.12507      1.37502      1.73832        -0.032308     -0.031571      0.000000
      4.12507      1.37502      5.21496         0.069286     -0.016783      0.000000
      4.12507      4.12507      1.73832        -0.134911      0.010134      0.000000
      4.12507      4.12507      5.21496         0.007866      0.035703      0.000000
      4.12507      6.87512      1.73832         0.025418      0.044242      0.000000
      4.12507      6.87512      5.21496         0.114346     -0.050728      0.000000
      6.87512      1.37502      1.73832        -0.027364     -0.158216      0.000000
      6.87512      1.37502      5.21496         0.342688      0.053378      0.000000
      6.87512      4.12507      1.73832         0.031104     -0.016617      0.000000
      6.87512      4.12507      5.21496        -0.070917      0.077206      0.000000
      6.87512      6.87512      1.73832        -0.055508      0.080354      0.000000
      6.87512      6.87512      5.21496        -0.230039     -0.215687      0.000000
 -----------------------------------------------------------------------------------
    total drift:                                0.000018     -0.000014     -0.000000


--------------------------------------------------------------------------------------------------------



  FREE ENERGIE OF THE ION-ELECTRON SYSTEM (eV)
  ---------------------------------------------------
  free  energy   TOTEN  =      -236.77286572 eV

  energy  without entropy=     -236.77812533  energy(sigma->0) =     -236.77461892
 


--------------------------------------------------------------------------------------------------------


    POTLOK:  cpu time    0.6377: real time    0.6379


--------------------------------------------------------------------------------------------------------


     LOOP+:  cpu time 1309.0514: real time 1327.5991
    4ORBIT:  cpu time    0.0000: real time    0.0000
 


 total charge     
 
# of ion       s       p       d       tot
------------------------------------------
    1        0.406   0.426   0.000   0.832
    2        0.406   0.425   0.000   0.831
    3        0.405   0.427   0.000   0.833
    4        0.405   0.427   0.000   0.832
    5        0.406   0.427   0.000   0.833
    6        0.406   0.427   0.000   0.833
    7        0.405   0.428   0.000   0.832
    8        0.404   0.428   0.000   0.832
    9        0.405   0.428   0.000   0.832
   10        0.405   0.428   0.000   0.833
   11        0.405   0.427   0.000   0.832
   12        0.405   0.428   0.000   0.832
   13        0.405   0.427   0.000   0.832
   14        0.405   0.427   0.000   0.832
   15        0.405   0.429   0.000   0.834
   16        0.405   0.429   0.000   0.834
   17        0.405   0.427   0.000   0.832
   18        0.405   0.426   0.000   0.831
   19        0.333   0.350   5.144   5.827
   20        0.336   0.353   5.128   5.817
   21        0.334   0.358   5.120   5.812
   22        0.330   0.353   5.145   5.828
   23        0.333   0.346   5.151   5.830
   24        0.335   0.353   5.132   5.821
   25        0.334   0.356   5.125   5.815
   26        0.332   0.353   5.141   5.826
   27        0.336   0.351   5.132   5.819
   28        0.330   0.357   5.132   5.819
   29        0.333   0.353   5.135   5.821
   30        0.334   0.353   5.131   5.818
   31        0.335   0.351   5.133   5.819
   32        0.335   0.352   5.134   5.822
   33        0.337   0.354   5.130   5.821
   34        0.334   0.350   5.137   5.822
   35        0.331   0.358   5.126   5.816
   36        0.333   0.354   5.129   5.817
--------------------------------------------------
tot         13.297  14.047  92.407 119.750
 


 magnetization (x)
 
# of ion       s       p       d       tot
------------------------------------------
    1       -0.013  -0.027   0.000  -0.040
    2       -0.013  -0.028   0.000  -0.041
    3       -0.006  -0.011   0.000  -0.016
    4       -0.005  -0.010   0.000  -0.015
    5       -0.002  -0.002   0.000  -0.003
    6       -0.002  -0.002   0.000  -0.004
    7       -0.010  -0.019   0.000  -0.029
    8       -0.011  -0.018   0.000  -0.029
    9       -0.005  -0.007   0.000  -0.012
   10       -0.005  -0.007   0.000  -0.011
   11       -0.003  -0.007   0.000  -0.010
   12       -0.004  -0.007   0.000  -0.011
   13       -0.005  -0.009   0.000  -0.014
   14       -0.005  -0.010   0.000  -0.015
   15       -0.000   0.000   0.000  -0.000
   16       -0.000   0.000   0.000  -0.000
   17        0.003   0.008   0.000   0.011
   18        0.003   0.008   0.000   0.011
   19        0.014   0.015   2.241   2.270
   20        0.017   0.015   2.404   2.436
   21        0.020   0.033   2.371   2.424
   22       -0.021  -0.031  -2.072  -2.123
   23        0.017   0.006   2.279   2.302
   24        0.026   0.025   2.238   2.289
   25        0.010   0.022   2.310   2.342
   26       -0.025  -0.022  -2.209  -2.256
   27        0.024   0.017   2.391   2.432
   28       -0.002  -0.008  -2.252  -2.262
   29        0.011   0.013   2.264   2.288
   30       -0.017  -0.012  -2.384  -2.413
   31        0.028   0.019   2.430   2.477
   32        0.030   0.018   2.333   2.381
   33       -0.031  -0.027  -2.234  -2.293
   34       -0.023  -0.007  -2.435  -2.465
   35        0.018   0.032   2.270   2.320
   36       -0.024  -0.031  -2.389  -2.443
--------------------------------------------------
tot         -0.008  -0.069   9.555   9.477
 

 total amount of memory used by VASP MPI-rank0   775081. kBytes
=======================================================================

   base      :      30000. kBytes
   nonl-proj :      34307. kBytes
   fftplans  :      21726. kBytes
   grid      :      14732. kBytes
   one-center:        279. kBytes
   wavefun   :     674037. kBytes
 
  
  
 General timing and accounting informations for this job:
 ========================================================
  
                  Total CPU time used (sec):     1336.286
                            User time (sec):     1313.165
                          System time (sec):       23.121
                         Elapsed time (sec):     1357.188
  
                   Maximum memory used (kb):      916908.
                   Average memory used (kb):           0.
  
                          Minor page faults:       445644
                          Major page faults:           19
                 Voluntary context switches:         3179
