   36   36    1    2
  0.1314651E+02  0.8250148E-09  0.8250148E-09  0.6953274E-09  0.2000000E-15
  1.000000000000000E-004
  CAR 
 AlMn_pv                                 
    180     52    112
 
  0.0000000E+00  0.0000000E+00  0.0000000E+00  0.6666667E-02
    1       -2.523208     -2.515691   1.000000   1.000000
    2       -0.374873     -0.355051   1.000000   1.000000
    3       -0.342958     -0.335881   1.000000   1.000000
    4       -0.332204     -0.334399   1.000000   1.000000
    5       -0.312533     -0.303618   1.000000   1.000000
    6       -0.118120     -0.123030   1.000000   1.000000
    7        1.367384      1.362968   1.000000   1.000000
    8        1.374225      1.392189   1.000000   1.000000
    9        1.381210      1.405095   1.000000   1.000000
   10        1.387196      1.417049   1.000000   1.000000
   11        1.420556      1.434690   1.000000   1.000000
   12        1.545049      1.565737   1.000000   1.000000
   13        1.568088      1.574711   1.000000   1.000000
   14        1.607338      1.621724   1.000000   1.000000
   15        1.614288      1.640181   1.000000   1.000000
   16        2.728079      2.756012   1.000000   1.000000
   17        2.738939      2.766885   1.000000   1.000000
   18        2.798429      2.846010   1.000000   1.000000
   19        2.819975      2.853029   1.000000   1.000000
   20        3.471434      3.498187   1.000000   1.000000
   21        3.507150      3.559006   1.000000   1.000000
   22        3.558269      3.584686   1.000000   1.000000
   23        3.601711      3.623751   1.000000   1.000000
   24        4.080477      4.161737   1.000000   1.000000
   25        4.257792      4.240266   1.000000   1.000000
   26        4.266486      4.303719   1.000000   1.000000
   27        4.415475      4.532623   1.000000   1.000000
   28        4.536775      4.570204   1.000000   1.000000
   29        4.565087      4.624557   1.000000   1.000000
   30        4.617684      4.654935   1.000000   1.000000
   31        4.636893      4.695079   1.000000   1.000000
   32        4.699178      4.718907   1.000000   1.000000
   33        4.723113      4.765617   1.000000   1.000000
   34        4.748173      4.778514   1.000000   1.000000
   35        4.806449      4.828430   1.000000   1.000000
   36        4.840166      4.928704   1.000000   1.000000
   37        4.862279      5.051504   1.000000   1.000000
   38        4.880444      5.090230   1.000000   1.000000
   39        4.973088      5.125813   1.000000   1.000000
   40        5.120818      5.219881   1.000000   1.000000
   41        5.252508      5.280879   1.000000   1.000000
   42        5.270806      5.337232   1.000000   1.000000
   43        5.341115      5.355632   1.000000   1.000000
   44        5.390333      5.468859   1.000000   1.000000
   45        5.418837      5.476633   1.000000   1.000000
   46        5.448715      5.513226   1.000000   1.000000
   47        5.464102      5.524200   1.000000   1.000000
   48        5.492335      5.601694   1.000000   1.000000
   49        5.520685      5.604900   1.000000   1.000000
   50        5.545861      5.644375   1.000000   1.000000
   51        5.571758      5.706366   1.000000   1.000000
   52        5.700965      5.736028   1.000000   1.000000
   53        5.745372      5.823222   1.000000   1.000000
   54        5.762567      5.875779   1.000000   1.000000
   55        5.794270      5.900051   1.000000   1.000000
   56        5.794404      5.963181   1.000000   1.000000
   57        5.892227      5.970111   1.000000   1.000000
   58        5.958644      6.201283   1.000000   1.000000
   59        5.987485      6.208746   1.000000   1.000000
   60        6.137045      6.305823   1.000000   1.000000
   61        6.181067      6.325639   1.000000   1.000000
   62        6.199857      6.341414   1.000000   1.000000
   63        6.280338      6.347369   1.000000   1.000000
   64        6.377384      6.396427   1.000000   1.000000
   65        6.382180      6.442590   1.000000   1.000000
   66        6.405024      6.506181   1.000000   1.000000
   67        6.427066      6.540994   1.000000   1.000000
   68        6.460034      6.556867   1.000000   1.000000
   69        6.498445      6.604680   1.000000   1.000000
   70        6.501628      6.614718   1.000000   1.000000
   71        6.536177      6.706986   1.000000   1.000000
   72        6.549471      6.708619   1.000000   1.000000
   73        6.640783      6.771280   1.000000   1.000000
   74        6.692131      6.964779   1.000000   1.000000
   75        6.704786      6.989003   1.000000   1.000000
   76        6.712507      7.073777   1.000000   1.000005
   77        6.815708      7.223478   1.000000   1.000378
   78        6.830722      7.238659   1.000000   1.000547
   79        6.962196      7.268820   1.000000   1.001108
   80        6.971378      7.302081   1.000000   1.002264
   81        7.130847      7.411478   1.000029   1.014570
   82        7.143605      7.502902   1.000043   1.033745
   83        7.188053      7.538724   1.000150   1.034750
   84        7.209920      7.570732   1.000268   1.025138
   85        7.317168      7.574299   1.003064   1.023234
   86        7.320580      7.597426   1.003282   1.005166
   87        7.464784      7.638691   1.026340   0.945191
   88        7.499229      7.755874   1.033232   0.563432
   89        7.530843      7.773756   1.035355   0.488032
   90        7.547676      7.989984   1.033333  -0.032451
   91        7.623896      8.023409   0.971141  -0.035239
   92        7.877755      8.094733   0.111445  -0.022163
   93        7.931030      8.139229   0.009546  -0.012845
   94        7.976470      8.176212  -0.027895  -0.007312
   95        8.033108      8.182829  -0.034412  -0.006536
   96        8.097876      8.219084  -0.021418  -0.003390
   97        8.151603      8.251348  -0.010767  -0.001765
   98        8.154226      8.355300  -0.010325  -0.000143
   99        8.223809      8.411682  -0.003088  -0.000028
  100        8.230776      8.501679  -0.002693  -0.000002
  101        8.247294      8.575327  -0.001926  -0.000000
  102        8.269869      8.617002  -0.001176  -0.000000
  103        8.387725      8.655270  -0.000057  -0.000000
  104        8.408838      8.676917  -0.000031  -0.000000
  105        8.423669      8.686824  -0.000020  -0.000000
  106        8.529361      8.742590  -0.000001  -0.000000
  107        8.670560      8.834303  -0.000000  -0.000000
  108        8.679062      8.844542  -0.000000  -0.000000
  109        8.726222      8.856610  -0.000000  -0.000000
  110        8.808273      8.866332  -0.000000  -0.000000
  111        8.832958      8.953521  -0.000000  -0.000000
  112        8.867517      9.003153  -0.000000  -0.000000
 
  0.2000000E+00  0.0000000E+00  0.0000000E+00  0.1333333E-01
    1       -2.432694     -2.425230   1.000000   1.000000
    2       -1.106715     -1.098657   1.000000   1.000000
    3       -0.278164     -0.264398   1.000000   1.000000
    4       -0.237984     -0.234664   1.000000   1.000000
    5       -0.052631     -0.056947   1.000000   1.000000
    6        0.562718      0.570848   1.000000   1.000000
    7        0.884402      0.888646   1.000000   1.000000
    8        0.912456      0.931879   1.000000   1.000000
    9        0.942926      0.950828   1.000000   1.000000
   10        1.431067      1.435492   1.000000   1.000000
   11        1.470887      1.492692   1.000000   1.000000
   12        1.473808      1.503469   1.000000   1.000000
   13        1.914514      1.940568   1.000000   1.000000
   14        2.294834      2.309274   1.000000   1.000000
   15        2.314046      2.326919   1.000000   1.000000
   16        2.314605      2.350249   1.000000   1.000000
   17        2.328399      2.365772   1.000000   1.000000
   18        2.814738      2.844622   1.000000   1.000000
   19        3.194864      3.246139   1.000000   1.000000
   20        3.271657      3.312940   1.000000   1.000000
   21        3.557480      3.603498   1.000000   1.000000
   22        3.642498      3.664139   1.000000   1.000000
   23        3.732132      3.754494   1.000000   1.000000
   24        4.064602      4.136979   1.000000   1.000000
   25        4.189314      4.192498   1.000000   1.000000
   26        4.231379      4.261946   1.000000   1.000000
   27        4.291457      4.337677   1.000000   1.000000
   28        4.405296      4.511834   1.000000   1.000000
   29        4.553742      4.580985   1.000000   1.000000
   30        4.558048      4.614558   1.000000   1.000000
   31        4.571721      4.621610   1.000000   1.000000
   32        4.596140      4.629589   1.000000   1.000000
   33        4.633926      4.711319   1.000000   1.000000
   34        4.685492      4.796549   1.000000   1.000000
   35        4.820833      4.939386   1.000000   1.000000
   36        4.896052      4.977985   1.000000   1.000000
   37        4.963813      5.038638   1.000000   1.000000
   38        4.994189      5.069739   1.000000   1.000000
   39        5.028082      5.106209   1.000000   1.000000
   40        5.035681      5.121989   1.000000   1.000000
   41        5.110715      5.154863   1.000000   1.000000
   42        5.242064      5.296819   1.000000   1.000000
   43        5.293105      5.326465   1.000000   1.000000
   44        5.349478      5.387412   1.000000   1.000000
   45        5.402603      5.467361   1.000000   1.000000
   46        5.433254      5.530072   1.000000   1.000000
   47        5.448181      5.544957   1.000000   1.000000
   48        5.487323      5.633011   1.000000   1.000000
   49        5.535227      5.646816   1.000000   1.000000
   50        5.618550      5.701204   1.000000   1.000000
   51        5.660688      5.746794   1.000000   1.000000
   52        5.740783      5.837742   1.000000   1.000000
   53        5.755892      5.846947   1.000000   1.000000
   54        5.797207      5.903832   1.000000   1.000000
   55        5.822670      5.952859   1.000000   1.000000
   56        5.873761      5.985111   1.000000   1.000000
   57        5.878013      5.992611   1.000000   1.000000
   58        5.983400      6.195260   1.000000   1.000000
   59        6.005966      6.197172   1.000000   1.000000
   60        6.117673      6.255355   1.000000   1.000000
   61        6.159351      6.272600   1.000000   1.000000
   62        6.217184      6.307274   1.000000   1.000000
   63        6.244393      6.364840   1.000000   1.000000
   64        6.320967      6.379012   1.000000   1.000000
   65        6.348300      6.408604   1.000000   1.000000
   66        6.391598      6.432083   1.000000   1.000000
   67        6.417272      6.482514   1.000000   1.000000
   68        6.417835      6.555535   1.000000   1.000000
   69        6.458035      6.578969   1.000000   1.000000
   70        6.488866      6.584905   1.000000   1.000000
   71        6.527673      6.710787   1.000000   1.000000
   72        6.545890      6.744740   1.000000   1.000000
   73        6.574891      6.795404   1.000000   1.000000
   74        6.629152      6.887577   1.000000   1.000000
   75        6.661125      6.965914   1.000000   1.000000
   76        6.771047      7.042559   1.000000   1.000002
   77        6.771299      7.206870   1.000000   1.000247
   78        6.832402      7.217135   1.000000   1.000321
   79        6.880765      7.286353   1.000000   1.001629
   80        7.006352      7.319840   1.000000   1.003227
   81        7.014328      7.400005   1.000001   1.012456
   82        7.094510      7.400178   1.000009   1.012488
   83        7.180072      7.499457   1.000121   1.033242
   84        7.308208      7.517096   1.002564   1.035183
   85        7.315444      7.588191   1.002967   1.013571
   86        7.401709      7.698599   1.012759   0.784394
   87        7.446975      7.749533   1.022222   0.589942
   88        7.496796      7.776235   1.032833   0.476835
   89        7.516675      7.782654   1.035166   0.450381
   90        7.550335      7.997832   1.032729  -0.034077
   91        7.672055      8.032278   0.866437  -0.034513
   92        7.883944      8.133114   0.095594  -0.013982
   93        7.921850      8.175744   0.022168  -0.007362
   94        7.986777      8.176329  -0.031570  -0.007293
   95        8.068946      8.211533  -0.028036  -0.003916
   96        8.092019      8.226388  -0.022763  -0.002942
   97        8.111508      8.240934  -0.018372  -0.002195
   98        8.174769      8.333189  -0.007495  -0.000257
   99        8.194029      8.352744  -0.005374  -0.000153
  100        8.226828      8.440670  -0.002913  -0.000012
  101        8.278558      8.548645  -0.000970  -0.000000
  102        8.284628      8.552764  -0.000841  -0.000000
  103        8.341995      8.635111  -0.000204  -0.000000
  104        8.422542      8.666545  -0.000020  -0.000000
  105        8.430987      8.688029  -0.000016  -0.000000
  106        8.554468      8.726108  -0.000000  -0.000000
  107        8.556254      8.752177  -0.000000  -0.000000
  108        8.661528      8.838467  -0.000000  -0.000000
  109        8.707109      8.977168  -0.000000  -0.000000
  110        8.819731      9.009841  -0.000000  -0.000000
  111        8.895507      9.037141  -0.000000  -0.000000
  112        8.975122      9.063452  -0.000000  -0.000000
 
  0.4000000E+00  0.0000000E+00  0.0000000E+00  0.1333333E-01
    1       -2.162945     -2.155836   1.000000   1.000000
    2       -1.717416     -1.709213   1.000000   1.000000
    3       -0.032270     -0.018412   1.000000   1.000000
    4        0.005361      0.008497   1.000000   1.000000
    5        0.140792      0.138827   1.000000   1.000000
    6        0.370277      0.385929   1.000000   1.000000
    7        0.407684      0.413685   1.000000   1.000000
    8        0.461429      0.460015   1.000000   1.000000
    9        1.574264      1.588940   1.000000   1.000000
   10        1.615914      1.622998   1.000000   1.000000
   11        1.649781      1.670866   1.000000   1.000000
   12        1.754671      1.782896   1.000000   1.000000
   13        1.915366      1.926788   1.000000   1.000000
   14        1.951467      1.982932   1.000000   1.000000
   15        2.208454      2.239051   1.000000   1.000000
   16        2.319543      2.357592   1.000000   1.000000
   17        2.672155      2.686639   1.000000   1.000000
   18        2.914949      2.941751   1.000000   1.000000
   19        3.003927      3.056507   1.000000   1.000000
   20        3.510359      3.580390   1.000000   1.000000
   21        3.713591      3.762732   1.000000   1.000000
   22        3.745373      3.790777   1.000000   1.000000
   23        3.792772      3.817879   1.000000   1.000000
   24        3.996597      4.039821   1.000000   1.000000
   25        4.009835      4.048775   1.000000   1.000000
   26        4.097354      4.150860   1.000000   1.000000
   27        4.159385      4.210197   1.000000   1.000000
   28        4.262992      4.285477   1.000000   1.000000
   29        4.301195      4.354184   1.000000   1.000000
   30        4.426542      4.486141   1.000000   1.000000
   31        4.430604      4.558651   1.000000   1.000000
   32        4.545836      4.585261   1.000000   1.000000
   33        4.673890      4.695501   1.000000   1.000000
   34        4.727492      4.764078   1.000000   1.000000
   35        4.805329      4.851820   1.000000   1.000000
   36        4.858829      5.035719   1.000000   1.000000
   37        5.016906      5.063907   1.000000   1.000000
   38        5.043381      5.082831   1.000000   1.000000
   39        5.050952      5.109755   1.000000   1.000000
   40        5.120553      5.176463   1.000000   1.000000
   41        5.138528      5.183351   1.000000   1.000000
   42        5.172597      5.231637   1.000000   1.000000
   43        5.308738      5.318246   1.000000   1.000000
   44        5.340475      5.383948   1.000000   1.000000
   45        5.385272      5.465687   1.000000   1.000000
   46        5.441940      5.534357   1.000000   1.000000
   47        5.463198      5.558608   1.000000   1.000000
   48        5.507154      5.669148   1.000000   1.000000
   49        5.560854      5.670486   1.000000   1.000000
   50        5.661060      5.732139   1.000000   1.000000
   51        5.668986      5.771918   1.000000   1.000000
   52        5.700743      5.822782   1.000000   1.000000
   53        5.732418      5.883126   1.000000   1.000000
   54        5.793401      5.916290   1.000000   1.000000
   55        5.869056      5.952820   1.000000   1.000000
   56        5.908661      6.010871   1.000000   1.000000
   57        5.945502      6.082899   1.000000   1.000000
   58        5.952254      6.116891   1.000000   1.000000
   59        6.044314      6.177643   1.000000   1.000000
   60        6.073210      6.187465   1.000000   1.000000
   61        6.156930      6.228757   1.000000   1.000000
   62        6.167786      6.266307   1.000000   1.000000
   63        6.214087      6.279807   1.000000   1.000000
   64        6.270168      6.346720   1.000000   1.000000
   65        6.289803      6.388763   1.000000   1.000000
   66        6.304159      6.440894   1.000000   1.000000
   67        6.335080      6.446659   1.000000   1.000000
   68        6.400159      6.496470   1.000000   1.000000
   69        6.428624      6.546891   1.000000   1.000000
   70        6.482738      6.578774   1.000000   1.000000
   71        6.500931      6.658011   1.000000   1.000000
   72        6.505300      6.734524   1.000000   1.000000
   73        6.535703      6.811854   1.000000   1.000000
   74        6.598019      6.828630   1.000000   1.000000
   75        6.601338      7.023232   1.000000   1.000001
   76        6.735707      7.053875   1.000000   1.000002
   77        6.814021      7.079849   1.000000   1.000006
   78        6.862205      7.186989   1.000000   1.000146
   79        6.869866      7.189210   1.000000   1.000155
   80        6.917438      7.361657   1.000000   1.006878
   81        7.024122      7.365200   1.000001   1.007302
   82        7.093261      7.442661   1.000009   1.021199
   83        7.217059      7.490067   1.000322   1.031645
   84        7.247792      7.606045   1.000683   0.995867
   85        7.318165      7.617460   1.003123   0.980969
   86        7.388641      7.757825   1.010582   0.555265
   87        7.478776      7.807365   1.029394   0.347952
   88        7.507432      7.807464   1.034332   0.347945
   89        7.553841      7.875891   1.031791   0.116124
   90        7.624358      7.968199   0.970523  -0.023761
   91        7.715041      8.046562   0.725448  -0.032509
   92        7.833676      8.079426   0.247688  -0.025675
   93        7.917437      8.083489   0.028957  -0.024762
   94        7.973626      8.169694  -0.026574  -0.008129
   95        8.015063      8.199371  -0.035456  -0.004899
   96        8.068921      8.222040  -0.028045  -0.003200
   97        8.111494      8.251618  -0.018370  -0.001755
   98        8.154439      8.288490  -0.010321  -0.000771
   99        8.180505      8.356627  -0.006793  -0.000138
  100        8.242676      8.369622  -0.002116  -0.000096
  101        8.249881      8.472903  -0.001816  -0.000004
  102        8.275656      8.482278  -0.001038  -0.000003
  103        8.282456      8.557303  -0.000885  -0.000000
  104        8.348646      8.648619  -0.000171  -0.000000
  105        8.447258      8.666032  -0.000009  -0.000000
  106        8.470781      8.718872  -0.000004  -0.000000
  107        8.508769      8.732442  -0.000001  -0.000000
  108        8.569714      8.749114  -0.000000  -0.000000
  109        8.739283      9.037736  -0.000000  -0.000000
  110        8.957990      9.085244  -0.000000  -0.000000
  111        8.968076      9.158133  -0.000000  -0.000000
  112        9.158018      9.188757  -0.000000  -0.000000
 
  0.0000000E+00  0.2000000E+00  0.0000000E+00  0.1333333E-01
    1       -2.432701     -2.425236   1.000000   1.000000
    2       -1.106971     -1.098718   1.000000   1.000000
    3       -0.266070     -0.252473   1.000000   1.000000
    4       -0.249785     -0.246797   1.000000   1.000000
    5       -0.052590     -0.056967   1.000000   1.000000
    6        0.562185      0.571608   1.000000   1.000000
    7        0.883238      0.887231   1.000000   1.000000
    8        0.922158      0.939161   1.000000   1.000000
    9        0.933478      0.942829   1.000000   1.000000
   10        1.447569      1.450558   1.000000   1.000000
   11        1.455007      1.479381   1.000000   1.000000
   12        1.473582      1.503152   1.000000   1.000000
   13        1.915862      1.940396   1.000000   1.000000
   14        2.302870      2.320665   1.000000   1.000000
   15        2.307001      2.337018   1.000000   1.000000
   16        2.320869      2.339409   1.000000   1.000000
   17        2.323621      2.357477   1.000000   1.000000
   18        2.814994      2.847517   1.000000   1.000000
   19        3.221447      3.269033   1.000000   1.000000
   20        3.239886      3.285837   1.000000   1.000000
   21        3.578303      3.624554   1.000000   1.000000
   22        3.620707      3.633339   1.000000   1.000000
   23        3.730116      3.750136   1.000000   1.000000
   24        4.059911      4.134043   1.000000   1.000000
   25        4.168817      4.188793   1.000000   1.000000
   26        4.275031      4.278540   1.000000   1.000000
   27        4.297406      4.336826   1.000000   1.000000
   28        4.373631      4.521052   1.000000   1.000000
   29        4.540102      4.610931   1.000000   1.000000
   30        4.557135      4.611138   1.000000   1.000000
   31        4.580865      4.623882   1.000000   1.000000
   32        4.594663      4.648676   1.000000   1.000000
   33        4.644823      4.700286   1.000000   1.000000
   34        4.677670      4.726563   1.000000   1.000000
   35        4.804511      4.882982   1.000000   1.000000
   36        4.874160      4.939317   1.000000   1.000000
   37        4.960550      5.078397   1.000000   1.000000
   38        4.997257      5.117261   1.000000   1.000000
   39        5.033379      5.124307   1.000000   1.000000
   40        5.067891      5.149133   1.000000   1.000000
   41        5.099153      5.190019   1.000000   1.000000
   42        5.283413      5.294912   1.000000   1.000000
   43        5.322947      5.348237   1.000000   1.000000
   44        5.361555      5.436801   1.000000   1.000000
   45        5.364824      5.495460   1.000000   1.000000
   46        5.440219      5.515502   1.000000   1.000000
   47        5.466577      5.522726   1.000000   1.000000
   48        5.517731      5.595389   1.000000   1.000000
   49        5.548614      5.626099   1.000000   1.000000
   50        5.604121      5.705917   1.000000   1.000000
   51        5.665656      5.716297   1.000000   1.000000
   52        5.706015      5.799007   1.000000   1.000000
   53        5.764357      5.799948   1.000000   1.000000
   54        5.764762      5.861057   1.000000   1.000000
   55        5.800471      5.895255   1.000000   1.000000
   56        5.831640      5.964838   1.000000   1.000000
   57        5.915423      6.000874   1.000000   1.000000
   58        5.976063      6.213077   1.000000   1.000000
   59        5.980293      6.229912   1.000000   1.000000
   60        6.118992      6.292472   1.000000   1.000000
   61        6.132582      6.316216   1.000000   1.000000
   62        6.255971      6.337963   1.000000   1.000000
   63        6.256682      6.378241   1.000000   1.000000
   64        6.331650      6.401318   1.000000   1.000000
   65        6.356140      6.462909   1.000000   1.000000
   66        6.401266      6.468998   1.000000   1.000000
   67        6.415127      6.506180   1.000000   1.000000
   68        6.435247      6.549471   1.000000   1.000000
   69        6.456715      6.573980   1.000000   1.000000
   70        6.501683      6.623714   1.000000   1.000000
   71        6.545581      6.657875   1.000000   1.000000
   72        6.563304      6.738667   1.000000   1.000000
   73        6.575022      6.742296   1.000000   1.000000
   74        6.696711      6.888720   1.000000   1.000000
   75        6.710100      6.972071   1.000000   1.000000
   76        6.739958      7.075231   1.000000   1.000005
   77        6.774357      7.182685   1.000000   1.000130
   78        6.809957      7.251964   1.000000   1.000753
   79        6.846717      7.297202   1.000000   1.002047
   80        6.955420      7.297848   1.000000   1.002072
   81        6.975036      7.386646   1.000000   1.010246
   82        7.073019      7.398198   1.000005   1.012136
   83        7.188567      7.471771   1.000152   1.027865
   84        7.246397      7.528763   1.000661   1.035423
   85        7.280531      7.569383   1.001441   1.025817
   86        7.383893      7.677470   1.009831   0.851009
   87        7.431839      7.738150   1.018812   0.636374
   88        7.486671      7.762324   1.031029   0.536412
   89        7.538961      7.788167   1.034729   0.426568
   90        7.562640      7.976639   1.028832  -0.027922
   91        7.781634      8.007021   0.453836  -0.035151
   92        7.866902      8.035988   0.140688  -0.034074
   93        7.923091      8.085509   0.020237  -0.024276
   94        7.958477      8.172879  -0.017571  -0.007720
   95        8.053320      8.238370  -0.031306  -0.002313
   96        8.057813      8.240859  -0.030398  -0.002197
   97        8.149578      8.315114  -0.011075  -0.000406
   98        8.181385      8.315635  -0.006701  -0.000401
   99        8.202216      8.439292  -0.004646  -0.000012
  100        8.217906      8.456044  -0.003465  -0.000007
  101        8.258908      8.511204  -0.001497  -0.000001
  102        8.319163      8.527942  -0.000366  -0.000001
  103        8.335894      8.647229  -0.000239  -0.000000
  104        8.410427      8.647436  -0.000029  -0.000000
  105        8.434926      8.693765  -0.000014  -0.000000
  106        8.574210      8.751105  -0.000000  -0.000000
  107        8.611313      8.774199  -0.000000  -0.000000
  108        8.661379      8.958160  -0.000000  -0.000000
  109        8.701908      8.966117  -0.000000  -0.000000
  110        8.849790      9.011784  -0.000000  -0.000000
  111        8.928760      9.040269  -0.000000  -0.000000
  112        9.000937      9.095780  -0.000000  -0.000000
 
  0.2000000E+00  0.2000000E+00  0.0000000E+00  0.1333333E-01
    1       -2.342457     -2.335042   1.000000   1.000000
    2       -1.033997     -1.023985   1.000000   1.000000
    3       -1.007778     -1.001560   1.000000   1.000000
    4        0.012796      0.009012   1.000000   1.000000
    5        0.222161      0.231127   1.000000   1.000000
    6        0.629696      0.643722   1.000000   1.000000
    7        0.654092      0.661644   1.000000   1.000000
    8        0.934722      0.935681   1.000000   1.000000
    9        0.960450      0.969336   1.000000   1.000000
   10        1.564121      1.594867   1.000000   1.000000
   11        1.718539      1.725347   1.000000   1.000000
   12        1.763342      1.788849   1.000000   1.000000
   13        1.835735      1.854067   1.000000   1.000000
   14        1.969137      1.998880   1.000000   1.000000
   15        1.996383      2.015301   1.000000   1.000000
   16        2.785558      2.817745   1.000000   1.000000
   17        2.848005      2.889447   1.000000   1.000000
   18        2.856484      2.895144   1.000000   1.000000
   19        2.862402      2.899345   1.000000   1.000000
   20        2.928583      2.962125   1.000000   1.000000
   21        3.634704      3.688181   1.000000   1.000000
   22        3.767403      3.790257   1.000000   1.000000
   23        3.776326      3.799883   1.000000   1.000000
   24        3.848494      3.886525   1.000000   1.000000
   25        4.138968      4.177100   1.000000   1.000000
   26        4.262331      4.266947   1.000000   1.000000
   27        4.313950      4.376858   1.000000   1.000000
   28        4.331296      4.401680   1.000000   1.000000
   29        4.366029      4.447203   1.000000   1.000000
   30        4.447844      4.514483   1.000000   1.000000
   31        4.470993      4.589528   1.000000   1.000000
   32        4.611961      4.639835   1.000000   1.000000
   33        4.645750      4.666113   1.000000   1.000000
   34        4.724630      4.799030   1.000000   1.000000
   35        4.743180      4.857554   1.000000   1.000000
   36        4.851141      4.931325   1.000000   1.000000
   37        4.893391      4.988876   1.000000   1.000000
   38        4.941317      5.003230   1.000000   1.000000
   39        5.098608      5.121267   1.000000   1.000000
   40        5.120838      5.156455   1.000000   1.000000
   41        5.184985      5.284694   1.000000   1.000000
   42        5.231086      5.302093   1.000000   1.000000
   43        5.302187      5.327771   1.000000   1.000000
   44        5.366329      5.426217   1.000000   1.000000
   45        5.382949      5.487819   1.000000   1.000000
   46        5.439562      5.539441   1.000000   1.000000
   47        5.459135      5.557112   1.000000   1.000000
   48        5.565102      5.625429   1.000000   1.000000
   49        5.625690      5.720121   1.000000   1.000000
   50        5.641135      5.726180   1.000000   1.000000
   51        5.670941      5.762786   1.000000   1.000000
   52        5.712034      5.800124   1.000000   1.000000
   53        5.759132      5.853743   1.000000   1.000000
   54        5.798480      5.876340   1.000000   1.000000
   55        5.816665      5.922910   1.000000   1.000000
   56        5.918907      5.993017   1.000000   1.000000
   57        5.928533      6.000507   1.000000   1.000000
   58        5.952019      6.170796   1.000000   1.000000
   59        5.962015      6.189940   1.000000   1.000000
   60        6.107115      6.263841   1.000000   1.000000