       N       E                     dE             d eps       ncg     rms          ort
DAV:   1     0.135115495709E+04    0.13512E+04   -0.58819E+04  5824   0.143E+03
DAV:   2    -0.610946249980E+02   -0.14122E+04   -0.13791E+04  5824   0.438E+02
DAV:   3    -0.238119545052E+03   -0.17702E+03   -0.15911E+03  5824   0.168E+02
DAV:   4    -0.266299525989E+03   -0.28180E+02   -0.25190E+02  5824   0.732E+01
DAV:   5    -0.269446001769E+03   -0.31465E+01   -0.29858E+01  5824   0.218E+01
DAV:   6    -0.269719621920E+03   -0.27362E+00   -0.26433E+00  5824   0.566E+00
DAV:   7    -0.269750765694E+03   -0.31144E-01   -0.30493E-01  5824   0.166E+00
DAV:   8    -0.269754031838E+03   -0.32661E-02   -0.32143E-02  5824   0.442E-01
SDA:   9    -0.573695460389E+02    0.21238E+03   -0.32143E-02  5824   0.242E+04 0.000E+00
CGA:  10    -0.201171445083E+03   -0.14380E+03   -0.14037E+03  5824   0.229E+03 0.545E+03
CGA:  11    -0.216432974075E+03   -0.15262E+02   -0.15134E+02  5824   0.492E+02 0.106E+02
CGA:  12    -0.224981787506E+03   -0.85488E+01   -0.85459E+01  5824   0.102E+03-0.785E-01
CGA:  13    -0.232057563048E+03   -0.70758E+01   -0.71014E+01  5824   0.231E+02 0.484E+00
CGA:  14    -0.233548921533E+03   -0.14914E+01   -0.15226E+01  5824   0.589E+01-0.246E+00
CGA:  15    -0.234157878002E+03   -0.60896E+00   -0.61203E+00  5824   0.734E+01-0.289E-02
CGA:  16    -0.234906254286E+03   -0.74838E+00   -0.75543E+00  5824   0.357E+01-0.871E-02
CGA:  17    -0.235152881219E+03   -0.24663E+00   -0.24770E+00  5824   0.150E+01-0.606E-02
CGA:  18    -0.235309366794E+03   -0.15649E+00   -0.15704E+00  5824   0.143E+01-0.878E-03
CGA:  19    -0.235494609196E+03   -0.18524E+00   -0.18560E+00  5824   0.982E+00 0.213E-02
CGA:  20    -0.235567489473E+03   -0.72880E-01   -0.73583E-01  5824   0.371E+00-0.607E-02
CGA:  21    -0.235620335223E+03   -0.52846E-01   -0.52870E-01  5824   0.503E+00 0.879E-03
CGA:  22    -0.235685197114E+03   -0.64862E-01   -0.64968E-01  5824   0.406E+00 0.123E-02
CGA:  23    -0.235718919478E+03   -0.33722E-01   -0.33844E-01  5824   0.147E+00-0.909E-03
CGA:  24    -0.235736165674E+03   -0.17246E-01   -0.17265E-01  5824   0.174E+00-0.487E-04
CGA:  25    -0.235758580851E+03   -0.22415E-01   -0.22406E-01  5824   0.144E+00-0.501E-03
CGA:  26    -0.235774260493E+03   -0.15680E-01   -0.15703E-01  5824   0.110E+00-0.129E-03
CGA:  27    -0.235786759011E+03   -0.12499E-01   -0.12489E-01  5824   0.113E+00-0.181E-03
CGA:  28    -0.235800587528E+03   -0.13829E-01   -0.13824E-01  5824   0.611E-01 0.212E-04
CGA:  29    -0.235805963708E+03   -0.53762E-02   -0.53745E-02  5824   0.295E-01 0.163E-03
CGA:  30    -0.235810658396E+03   -0.46947E-02   -0.46920E-02  5824   0.387E-01 0.149E-03
CGA:  31    -0.235815754583E+03   -0.50962E-02   -0.50965E-02  5824   0.351E-01 0.118E-03
CGA:  32    -0.235818944408E+03   -0.31898E-02   -0.31978E-02  5824   0.167E-01 0.121E-03
CGA:  33    -0.235821566934E+03   -0.26225E-02   -0.26215E-02  5824   0.240E-01 0.613E-04
CGA:  34    -0.235824303075E+03   -0.27361E-02   -0.27411E-02  5824   0.149E-01 0.164E-03
CGA:  35    -0.235825660853E+03   -0.13578E-02   -0.13609E-02  5824   0.646E-02 0.955E-04
CGA:  36    -0.235826397832E+03   -0.73698E-03   -0.73837E-03  5824   0.629E-02 0.625E-04
CGA:  37    -0.235827571090E+03   -0.11733E-02   -0.11693E-02  5824   0.759E-02 0.746E-04
CGA:  38    -0.235828404744E+03   -0.83365E-03   -0.83502E-03  5824   0.440E-02 0.400E-04
CGA:  39    -0.235828876649E+03   -0.47191E-03   -0.47219E-03  5824   0.343E-02 0.771E-05
SDA:  40    -0.235829236938E+03   -0.36029E-03   -0.36066E-03  5824   0.240E-02 0.996E-05
CGA:  41    -0.235829416203E+03   -0.17926E-03   -0.17929E-03  5824   0.188E-02 0.116E-05
CGA:  42    -0.235829658316E+03   -0.24211E-03   -0.24211E-03  5824   0.134E-02-0.864E-06
CGA:  43    -0.235829848471E+03   -0.19015E-03   -0.19033E-03  5824   0.164E-02-0.141E-04
CGA:  44    -0.235830049590E+03   -0.20112E-03   -0.20100E-03  5824   0.674E-03-0.223E-04
CGA:  45    -0.235830143417E+03   -0.93827E-04   -0.93897E-04  5824   0.103E-02-0.580E-05
CGA:  46    -0.235830300987E+03   -0.15757E-03   -0.15769E-03  5824   0.640E-03-0.484E-05
CGA:  47    -0.235830369172E+03   -0.68184E-04   -0.68144E-04  5824   0.728E-03-0.149E-05
CGA:  48    -0.235830494558E+03   -0.12539E-03   -0.12547E-03  5824   0.524E-03-0.174E-05
CGA:  49    -0.235830546358E+03   -0.51800E-04   -0.51830E-04  5824   0.497E-03 0.872E-06
CGA:  50    -0.235830635010E+03   -0.88652E-04   -0.88427E-04  5824   0.582E-03 0.496E-05
CGA:  51    -0.235830672024E+03   -0.37014E-04   -0.37277E-04  5824   0.124E-03 0.396E-05
CGA:  52    -0.235830700508E+03   -0.28485E-04   -0.28205E-04  5824   0.299E-03 0.284E-05
CGA:  53    -0.235830742209E+03   -0.41701E-04   -0.41691E-04  5824   0.136E-03 0.491E-05
CGA:  54    -0.235830757261E+03   -0.15052E-04   -0.15104E-04  5824   0.139E-03 0.215E-05
CGA:  55    -0.235830782929E+03   -0.25668E-04   -0.25539E-04  5824   0.766E-04 0.273E-05
CGA:  56    -0.235830790350E+03   -0.74206E-05   -0.74138E-05  5824   0.440E-04-0.156E-06
CGA:  57    -0.235830799320E+03   -0.89700E-05   -0.91081E-05  5824   0.822E-04-0.188E-05
CGA:  58    -0.235830806643E+03   -0.73235E-05   -0.73064E-05  5824   0.608E-04-0.415E-06
CGA:  59    -0.235830814237E+03   -0.75935E-05   -0.76066E-05  5824   0.422E-04 0.142E-05
CGA:  60    -0.235830818241E+03   -0.40042E-05   -0.40361E-05  5824   0.267E-04 0.779E-06
CGA:  61    -0.235830824334E+03   -0.60933E-05   -0.60736E-05  5824   0.321E-04 0.189E-06
CGA:  62    -0.235830826739E+03   -0.24050E-05   -0.24015E-05  5824   0.105E-04-0.699E-07
CGA:  63    -0.235830828217E+03   -0.14775E-05   -0.14775E-05  5824   0.209E-04 0.927E-07
CGA:  64    -0.235830831328E+03   -0.31113E-05   -0.31076E-05  5824   0.893E-05 0.372E-06
CGA:  65    -0.235830832143E+03   -0.81458E-06   -0.82158E-06  5824   0.753E-05 0.156E-06
CGA:  66    -0.235830833170E+03   -0.10275E-05   -0.10280E-05  5824   0.540E-05 0.105E-06
CGA:  67    -0.235830833677E+03   -0.50644E-06   -0.50555E-06  5824   0.282E-05-0.232E-07
CGA:  68    -0.235830834257E+03   -0.58056E-06   -0.57741E-06  5824   0.387E-05 0.365E-07
CGA:  69    -0.235830834536E+03   -0.27907E-06   -0.28729E-06  5824   0.169E-05 0.136E-06
CGA:  70    -0.235830834746E+03   -0.21016E-06   -0.21382E-06  5824   0.173E-05 0.390E-06
SDA:  71    -0.235830834956E+03   -0.20991E-06   -0.22153E-06  5824   0.943E-06 0.432E-06
CGA:  72    -0.235830835035E+03   -0.78100E-07   -0.73875E-07  5824   0.692E-06-0.736E-07
CGA:  73    -0.235830835146E+03   -0.11176E-06   -0.11647E-06  5824   0.871E-06-0.873E-07
CGA:  74    -0.235830835240E+03   -0.93345E-07   -0.94088E-07  5824   0.812E-06 0.186E-06
   1 F= -.23583084E+03 E0= -.23583691E+03  d E =0.182342E-01  mag=     4.0366
