 vasp.5.4.4.18Apr17-6-g9f103f2a35 (build Dec 20 2018 12:05:58) complex          
  
 executed on             LinuxIFC date 2019.06.20  15:14:34
 running on   32 total cores
 distrk:  each k-point on    8 cores,    4 groups
 distr:  one band on NCORES_PER_BAND=   4 cores,    2 groups


--------------------------------------------------------------------------------------------------------


 INCAR:
 POTCAR:    PAW_PBE Al 04Jan2001                  
 POTCAR:    PAW_PBE Mn 06Sep2000                  

 ----------------------------------------------------------------------------- 
|                                                                             |
|           W    W    AA    RRRRR   N    N  II  N    N   GGGG   !!!           |
|           W    W   A  A   R    R  NN   N  II  NN   N  G    G  !!!           |
|           W    W  A    A  R    R  N N  N  II  N N  N  G       !!!           |
|           W WW W  AAAAAA  RRRRR   N  N N  II  N  N N  G  GGG   !            |
|           WW  WW  A    A  R   R   N   NN  II  N   NN  G    G                |
|           W    W  A    A  R    R  N    N  II  N    N   GGGG   !!!           |
|                                                                             |
|      You have enabled k-point parallelism (KPAR>1).                         |
|      This developmental code was originally  written by Paul Kent at ORNL,  |
|      and carefully double checked in Vienna.                                |
|      GW as well as linear response parallelism added by Martijn Marsman     |
|      and Georg Kresse.                                                      |
|      Carefully verify results versus KPAR=1.                                |
|      Report problems to Paul Kent and Vienna.                               |
|                                                                             |
 ----------------------------------------------------------------------------- 

 POTCAR:    PAW_PBE Al 04Jan2001                  
   VRHFIN =Al: s2p1                                                             
   LEXCH  = PE                                                                  
   EATOM  =    53.5387 eV,    3.9350 Ry                                         
                                                                                
   TITEL  = PAW_PBE Al 04Jan2001                                                
   LULTRA =        F    use ultrasoft PP ?                                      
   IUNSCR =        1    unscreen: 0-lin 1-nonlin 2-no                           
   RPACOR =    1.500    partial core radius                                     
   POMASS =   26.981; ZVAL   =    3.000    mass and valenz                      
   RCORE  =    1.900    outmost cutoff radius                                   
   RWIGS  =    2.650; RWIGS  =    1.402    wigner-seitz radius (au A)           
   ENMAX  =  240.300; ENMIN  =  180.225 eV                                      
   ICORE  =        2    local potential                                         
   LCOR   =        T    correct aug charges                                     
   LPAW   =        T    paw PP                                                  
   EAUG   =  291.052                                                            
   DEXC   =    0.000                                                            
   RMAX   =    1.939    core radius for proj-oper                               
   RAUG   =    1.300    factor for augmentation sphere                          
   RDEP   =    1.966    radius for radial grids                                 
   RDEPT  =    1.856    core radius for aug-charge                              
                                                                                
   Atomic configuration                                                         
    6 entries                                                                   
     n  l   j            E        occ.                                          
     1  0  0.50     -1511.1048   2.0000                                         
     2  0  0.50      -108.1629   2.0000                                         
     2  1  1.50       -69.6402   6.0000                                         
     3  0  0.50        -7.7528   2.0000                                         
     3  1  1.50        -2.7121   1.0000                                         
     3  2  2.50        -2.7212   0.0000                                         
   Description                                                                  
     l       E           TYP  RCUT    TYP  RCUT                                 
     0     -7.7528455     23  1.900                                             
     0     -3.3096929     23  1.900                                             
     1     -2.7120682     23  1.900                                             
     1     13.6058260     23  1.900                                             
     2     -2.7211652      7  1.900                                             
  local pseudopotential read in
  partial core-charges read in
  partial kinetic energy density read in
  atomic valenz-charges read in
  non local Contribution for L=           0  read in
    real space projection operators read in
  non local Contribution for L=           0  read in
    real space projection operators read in
  non local Contribution for L=           1  read in
    real space projection operators read in
  non local Contribution for L=           1  read in
    real space projection operators read in
    PAW grid and wavefunctions read in
 
   number of l-projection  operators is LMAX  =           4
   number of lm-projection operators is LMMAX =           8
 
 POTCAR:    PAW_PBE Mn 06Sep2000                  
   VRHFIN =Mn: d6 s1                                                            
   LEXCH  = PE                                                                  
   EATOM  =   416.7541 eV,   30.6306 Ry                                         
                                                                                
   TITEL  = PAW_PBE Mn 06Sep2000                                                
   LULTRA =        F    use ultrasoft PP ?                                      
   IUNSCR =        1    unscreen: 0-lin 1-nonlin 2-no                           
   RPACOR =    2.000    partial core radius                                     
   POMASS =   54.938; ZVAL   =    7.000    mass and valenz                      
   RCORE  =    2.300    outmost cutoff radius                                   
   RWIGS  =    2.500; RWIGS  =    1.323    wigner-seitz radius (au A)           
   ENMAX  =  269.864; ENMIN  =  202.398 eV                                      
   RCLOC  =    1.725    cutoff for local pot                                    
   LCOR   =        T    correct aug charges                                     
   LPAW   =        T    paw PP                                                  
   EAUG   =  500.711                                                            
   DEXC   =    0.000                                                            
   RMAX   =    2.343    core radius for proj-oper                               
   RAUG   =    1.300    factor for augmentation sphere                          
   RDEP   =    2.338    radius for radial grids                                 
   RDEPT  =    1.911    core radius for aug-charge                              
                                                                                
   Atomic configuration                                                         
    9 entries                                                                   
     n  l   j            E        occ.                                          
     1  0  0.50     -6424.8288   2.0000                                         
     2  0  0.50      -739.1154   2.0000                                         
     2  1  1.50      -625.3949   6.0000                                         
     3  0  0.50       -81.6100   2.0000                                         
     3  1  1.50       -50.4667   6.0000                                         
     3  2  2.50        -3.3745   6.0000                                         
     4  0  0.50        -4.1331   1.0000                                         
     4  1  0.50        -4.0817   0.0000                                         
     4  3  2.50        -1.3606   0.0000                                         
   Description                                                                  
     l       E           TYP  RCUT    TYP  RCUT                                 
     2     -3.3744664     23  2.300                                             
     2     -4.7350490     23  2.300                                             
     0     -4.1331408     23  2.300                                             
     0      7.6656614     23  2.300                                             
     1     -2.7211652     23  2.300                                             
     1     20.4087390     23  2.300                                             
  local pseudopotential read in
  partial core-charges read in
  partial kinetic energy density read in
  atomic valenz-charges read in
  non local Contribution for L=           2  read in
    real space projection operators read in
  non local Contribution for L=           2  read in
    real space projection operators read in
  non local Contribution for L=           0  read in
    real space projection operators read in
  non local Contribution for L=           0  read in
    real space projection operators read in
  non local Contribution for L=           1  read in
    real space projection operators read in
  non local Contribution for L=           1  read in
    real space projection operators read in
    PAW grid and wavefunctions read in
 
   number of l-projection  operators is LMAX  =           6
   number of lm-projection operators is LMMAX =          18
 

 ----------------------------------------------------------------------------- 
|                                                                             |
|  ADVICE TO THIS USER RUNNING 'VASP/VAMP'   (HEAR YOUR MASTER'S VOICE ...):  |
|                                                                             |
|      You have a (more or less) 'large supercell' and for larger cells       |
|      it might be more efficient to use real space projection opertators     |
|      So try LREAL= Auto  in the INCAR   file.                               |
|      Mind:          For very  accurate calculation you might also keep the  |
|      reciprocal projection scheme          (i.e. LREAL=.FALSE.)             |
|                                                                             |
 ----------------------------------------------------------------------------- 

  PAW_PBE Al 04Jan2001                  :
 energy of atom  1       EATOM=  -53.5387
 kinetic energy error for atom=    0.0005 (will be added to EATOM!!)
  PAW_PBE Mn 06Sep2000                  :
 energy of atom  2       EATOM= -416.7541
 kinetic energy error for atom=    0.0080 (will be added to EATOM!!)
 
 
 POSCAR: NewRef: 18, @ ['Mn', array([1.37502469, 
  positions in cartesian coordinates
  velocities in cartesian coordinates
  No initial velocities read in
 exchange correlation table for  LEXCH =        8
   RHO(1)=    0.500       N(1)  =     2000
   RHO(2)=  100.500       N(2)  =     4000
 


--------------------------------------------------------------------------------------------------------


 ion  position               nearest neighbor table
   1  0.000  0.000  0.000-  20 2.61  24 2.61  32 2.61  36 2.61  31 2.61  23 2.61  35 2.61  19 2.61
                             3 2.75   7 2.75   5 2.75  13 2.75
   2  0.000  0.000  0.500-  19 2.61  23 2.61  31 2.61  35 2.61  20 2.61  32 2.61  24 2.61  36 2.61
                             4 2.75   8 2.75   6 2.75  14 2.75
   3  0.000  0.333  0.000-  20 2.61  32 2.61  22 2.61  34 2.61  19 2.61  31 2.61  33 2.61  21 2.61
                             9 2.75   1 2.75   5 2.75  15 2.75
   4  0.000  0.333  0.500-  19 2.61  31 2.61  21 2.61  33 2.61  32 2.61  20 2.61  22 2.61  34 2.61
                            10 2.75   2 2.75   6 2.75  16 2.75
   5  0.000  0.667  0.000-  22 2.61  34 2.61  24 2.61  36 2.61  21 2.61  33 2.61  35 2.61  23 2.61
                             3 2.75  11 2.75   1 2.75  17 2.75
   6  0.000  0.667  0.500-  21 2.61  33 2.61  23 2.61  35 2.61  34 2.61  22 2.61  24 2.61  36 2.61
                             4 2.75  12 2.75   2 2.75  18 2.75
   7  0.333  0.000  0.000-  20 2.61  24 2.61  26 2.61  30 2.61  23 2.61  19 2.61  29 2.61  25 2.61
                            13 2.75   1 2.75   9 2.75  11 2.75
   8  0.333  0.000  0.500-  19 2.61  23 2.61  25 2.61  29 2.61  20 2.61  24 2.61  26 2.61  30 2.61
                            14 2.75   2 2.75  10 2.75  12 2.75
   9  0.333  0.333  0.000-  20 2.61  22 2.61  26 2.61  19 2.61  28 2.61  21 2.61  25 2.61  27 2.61
                             3 2.75   7 2.75  11 2.75  15 2.75
  10  0.333  0.333  0.500-  19 2.61  21 2.61  25 2.61  20 2.61  27 2.61  26 2.61  22 2.61  28 2.61
                             4 2.75   8 2.75  12 2.75  16 2.75
  11  0.333  0.667  0.000-  22 2.61  24 2.61  28 2.61  21 2.61  30 2.61  23 2.61  27 2.61  29 2.61
                            17 2.75   5 2.75   9 2.75   7 2.75
  12  0.333  0.667  0.500-  21 2.61  23 2.61  27 2.61  22 2.61  29 2.61  28 2.61  24 2.61  30 2.61
                            18 2.75   6 2.75  10 2.75   8 2.75
  13  0.667  0.000  0.000-  26 2.61  30 2.61  32 2.61  36 2.61  29 2.61  25 2.61  35 2.61  31 2.61
                             7 2.75  15 2.75   1 2.75  17 2.75
  14  0.667  0.000  0.500-  25 2.61  29 2.61  31 2.61  35 2.61  26 2.61  30 2.61  32 2.61  36 2.61
                             8 2.75  16 2.75   2 2.75  18 2.75
  15  0.667  0.333  0.000-  26 2.61  28 2.61  32 2.61  25 2.61  34 2.61  27 2.61  31 2.61  33 2.61
                            17 2.75   9 2.75  13 2.75   3 2.75
  16  0.667  0.333  0.500-  25 2.61  27 2.61  31 2.61  26 2.61  33 2.61  32 2.61  28 2.61  34 2.61
                            18 2.75  10 2.75  14 2.75   4 2.75
  17  0.667  0.667  0.000-  28 2.61  30 2.61  34 2.61  27 2.61  36 2.61  29 2.61  33 2.61  35 2.61
                            11 2.75  15 2.75  13 2.75   5 2.75
  18  0.667  0.667  0.500-  27 2.61  29 2.61  33 2.61  28 2.61  35 2.61  34 2.61  30 2.61  36 2.61
                            12 2.75  16 2.75  14 2.75   6 2.75
  19  0.167  0.167  0.250-  10 2.61   8 2.61   4 2.61   9 2.61   2 2.61   7 2.61   3 2.61   1 2.61
                            21 2.75  25 2.75  23 2.75  31 2.75
  20  0.167  0.167  0.750-   9 2.61   7 2.61   3 2.61  10 2.61   1 2.61   4 2.61   8 2.61   2 2.61
                            22 2.75  26 2.75  24 2.75  32 2.75
  21  0.167  0.500  0.250-  12 2.61  10 2.61   6 2.61  11 2.61   4 2.61   9 2.61   5 2.61   3 2.61
                            19 2.75  23 2.75  27 2.75  33 2.75
  22  0.167  0.500  0.750-  11 2.61   9 2.61   5 2.61  12 2.61   3 2.61   6 2.61  10 2.61   4 2.61
                            20 2.75  24 2.75  28 2.75  34 2.75
  23  0.167  0.833  0.250-   8 2.61  12 2.61   2 2.61   6 2.61  11 2.61   7 2.61   5 2.61   1 2.61
                            21 2.75  29 2.75  19 2.75  35 2.75
  24  0.167  0.833  0.750-   7 2.61  11 2.61   1 2.61   5 2.61   8 2.61  12 2.61   2 2.61   6 2.61
                            22 2.75  30 2.75  20 2.75  36 2.75
  25  0.500  0.167  0.250-  16 2.61  14 2.61  10 2.61  15 2.61   8 2.61  13 2.61   9 2.61   7 2.61
                            19 2.75  27 2.75  31 2.75  29 2.75
  26  0.500  0.167  0.750-  15 2.61  13 2.61   9 2.61  16 2.61   7 2.61  10 2.61  14 2.61   8 2.61
                            20 2.75  28 2.75  32 2.75  30 2.75
  27  0.500  0.500  0.250-  18 2.61  16 2.61  12 2.61  17 2.61  10 2.61  15 2.61  11 2.61   9 2.61
                            21 2.75  25 2.75  29 2.75  33 2.75
  28  0.500  0.500  0.750-  17 2.61  15 2.61  11 2.61  18 2.61   9 2.61  12 2.61  16 2.61  10 2.61
                            22 2.75  26 2.75  30 2.75  34 2.75
  29  0.500  0.833  0.250-  14 2.61  18 2.61   8 2.61  12 2.61  17 2.61  13 2.61  11 2.61   7 2.61
                            23 2.75  27 2.75  35 2.75  25 2.75
  30  0.500  0.833  0.750-  13 2.61  17 2.61   7 2.61  11 2.61  14 2.61  18 2.61   8 2.61  12 2.61
                            24 2.75  28 2.75  36 2.75  26 2.75
  31  0.833  0.167  0.250-   4 2.61  16 2.61  14 2.61   2 2.61  15 2.61   3 2.61  13 2.61   1 2.61
                            25 2.75  33 2.75  19 2.75  35 2.75
  32  0.833  0.167  0.750-   3 2.61  15 2.61  13 2.61   1 2.61   4 2.61  16 2.61   2 2.61  14 2.61
                            26 2.75  34 2.75  20 2.75  36 2.75
  33  0.833  0.500  0.250-   6 2.61  18 2.61  16 2.61   4 2.61  17 2.61   5 2.61  15 2.61   3 2.61
                            27 2.75  31 2.75  35 2.75  21 2.75
  34  0.833  0.500  0.750-   5 2.61  17 2.61  15 2.61   3 2.61   6 2.61  18 2.61   4 2.61  16 2.61
                            28 2.75  32 2.75  36 2.75  22 2.75
  35  0.833  0.833  0.250-   2 2.61   6 2.61  14 2.61  18 2.61  13 2.61   5 2.61  17 2.61   1 2.61
                            29 2.75  33 2.75  31 2.75  23 2.75
  36  0.833  0.833  0.750-   1 2.61   5 2.61  13 2.61  17 2.61   2 2.61  14 2.61   6 2.61  18 2.61
                            30 2.75  34 2.75  32 2.75  24 2.75
 
  LATTYP: Found a simple tetragonal cell.
 ALAT       =     8.2501481662
 C/A-ratio  =     0.8428059861
  
  Lattice vectors:
  
 A1 = (   8.2501481662,   0.0000000000,   0.0000000000)
 A2 = (   0.0000000000,   8.2501481662,   0.0000000000)
 A3 = (   0.0000000000,   0.0000000000,   6.9532742610)


Analysis of symmetry for initial positions (statically):
=====================================================================
 Subroutine PRICEL returns following result:
 
  LATTYP: Found a simple tetragonal cell.
 ALAT       =     2.7500493888
 C/A-ratio  =     1.2642089792
  
  Lattice vectors:
  
 A1 = (   2.7500493888,   0.0000000000,   0.0000000000)
 A2 = (   0.0000000000,   2.7500493888,   0.0000000000)
 A3 = (   0.0000000000,   0.0000000000,   3.4766371305)
 
  18 primitive cells build up your supercell.
 

 Routine SETGRP: Setting up the symmetry group for a 
 simple tetragonal supercell.


 Subroutine GETGRP returns: Found 16 space group operations
 (whereof 16 operations were pure point group operations)
 out of a pool of 16 trial point group operations.


The static configuration has the point symmetry D_4h.


Analysis of symmetry for dynamics (positions and initial velocities):
=====================================================================
 Subroutine PRICEL returns following result:
 
  LATTYP: Found a simple tetragonal cell.
 ALAT       =     2.7500493888
 C/A-ratio  =     1.2642089792
  
  Lattice vectors:
  
 A1 = (   2.7500493888,   0.0000000000,   0.0000000000)
 A2 = (   0.0000000000,   2.7500493888,   0.0000000000)
 A3 = (   0.0000000000,   0.0000000000,   3.4766371305)
 
  18 primitive cells build up your supercell.
 

 Routine SETGRP: Setting up the symmetry group for a 
 simple tetragonal supercell.


 Subroutine GETGRP returns: Found 16 space group operations
 (whereof 16 operations were pure point group operations)
 out of a pool of 16 trial point group operations.


The dynamic configuration has the point symmetry D_4h.


Analysis of structural, dynamic, and magnetic symmetry:
=====================================================================
 Subroutine PRICEL returns:
 Original cell was already a primitive cell.
 

 Routine SETGRP: Setting up the symmetry group for a 
 simple tetragonal supercell.


 Subroutine GETGRP returns: Found  2 space group operations
 (whereof  1 operations were pure point group operations)
 out of a pool of 16 trial point group operations.


The magnetic configuration has the point symmetry C_1 .
 The point group associated with its full space group is C_1h.


 Subroutine INISYM returns: Found  2 space group operations
 (whereof  1 operations are pure point group operations),
 and found     1 'primitive' translations

 
 
 KPOINTS: automatic KPOINTS                       

Automatic generation of k-mesh.
 generate k-points for:    5    5    6
Space group operators:
 irot       det(A)        alpha          n_x          n_y          n_z        tau_x        tau_y        tau_z
    1     1.000000     0.000001     1.000000     0.000000     0.000000     0.000000     0.000000     0.000000
    2    -1.000000   179.999999     0.000000     0.000000     1.000000     0.000000     0.000000     0.500000
 
 Subroutine IBZKPT returns following result:
 ===========================================
 
 Found     52 irreducible k-points:
 
 Following reciprocal coordinates:
            Coordinates               Weight
  0.000000  0.000000  0.000000      1.000000
  0.200000  0.000000  0.000000      2.000000
  0.400000  0.000000  0.000000      2.000000
  0.000000  0.200000  0.000000      2.000000
  0.200000  0.200000  0.000000      2.000000
  0.400000  0.200000  0.000000      2.000000
 -0.400000  0.200000  0.000000      2.000000
 -0.200000  0.200000  0.000000      2.000000
  0.000000  0.400000  0.000000      2.000000
  0.200000  0.400000  0.000000      2.000000
  0.400000  0.400000  0.000000      2.000000
 -0.400000  0.400000  0.000000      2.000000
 -0.200000  0.400000  0.000000      2.000000
  0.000000  0.000000  0.166667      2.000000
  0.200000  0.000000  0.166667      4.000000
  0.400000  0.000000  0.166667      4.000000
  0.000000  0.200000  0.166667      4.000000
  0.200000  0.200000  0.166667      4.000000
  0.400000  0.200000  0.166667      4.000000
 -0.400000  0.200000  0.166667      4.000000
 -0.200000  0.200000  0.166667      4.000000
  0.000000  0.400000  0.166667      4.000000
  0.200000  0.400000  0.166667      4.000000
  0.400000  0.400000  0.166667      4.000000
 -0.400000  0.400000  0.166667      4.000000
 -0.200000  0.400000  0.166667      4.000000
  0.000000  0.000000  0.333333      2.000000
  0.200000  0.000000  0.333333      4.000000
  0.400000  0.000000  0.333333      4.000000
  0.000000  0.200000  0.333333      4.000000
  0.200000  0.200000  0.333333      4.000000
  0.400000  0.200000  0.333333      4.000000
 -0.400000  0.200000  0.333333      4.000000
 -0.200000  0.200000  0.333333      4.000000
  0.000000  0.400000  0.333333      4.000000
  0.200000  0.400000  0.333333      4.000000
  0.400000  0.400000  0.333333      4.000000
 -0.400000  0.400000  0.333333      4.000000
 -0.200000  0.400000  0.333333      4.000000
  0.000000  0.000000  0.500000      1.000000
  0.200000  0.000000  0.500000      2.000000
  0.400000  0.000000  0.500000      2.000000
  0.000000  0.200000  0.500000      2.000000
  0.200000  0.200000  0.500000      2.000000
  0.400000  0.200000  0.500000      2.000000
 -0.400000  0.200000  0.500000      2.000000
 -0.200000  0.200000  0.500000      2.000000
  0.000000  0.400000  0.500000      2.000000
  0.200000  0.400000  0.500000      2.000000
  0.400000  0.400000  0.500000      2.000000
 -0.400000  0.400000  0.500000      2.000000
 -0.200000  0.400000  0.500000      2.000000
 
 Following cartesian coordinates:
            Coordinates               Weight
  0.000000  0.000000  0.000000      1.000000
  0.024242  0.000000  0.000000      2.000000
  0.048484  0.000000  0.000000      2.000000
  0.000000  0.024242  0.000000      2.000000
  0.024242  0.024242  0.000000      2.000000
  0.048484  0.024242  0.000000      2.000000
 -0.048484  0.024242  0.000000      2.000000
 -0.024242  0.024242  0.000000      2.000000
  0.000000  0.048484  0.000000      2.000000
  0.024242  0.048484  0.000000      2.000000
  0.048484  0.048484  0.000000      2.000000
 -0.048484  0.048484  0.000000      2.000000
 -0.024242  0.048484  0.000000      2.000000
  0.000000  0.000000  0.023970      2.000000
  0.024242  0.000000  0.023970      4.000000
  0.048484  0.000000  0.023970      4.000000
  0.000000  0.024242  0.023970      4.000000
  0.024242  0.024242  0.023970      4.000000
  0.048484  0.024242  0.023970      4.000000
 -0.048484  0.024242  0.023970      4.000000
 -0.024242  0.024242  0.023970      4.000000
  0.000000  0.048484  0.023970      4.000000
  0.024242  0.048484  0.023970      4.000000
  0.048484  0.048484  0.023970      4.000000
 -0.048484  0.048484  0.023970      4.000000
 -0.024242  0.048484  0.023970      4.000000
  0.000000  0.000000  0.047939      2.000000
  0.024242  0.000000  0.047939      4.000000
  0.048484  0.000000  0.047939      4.000000
  0.000000  0.024242  0.047939      4.000000
  0.024242  0.024242  0.047939      4.000000
  0.048484  0.024242  0.047939      4.000000
 -0.048484  0.024242  0.047939      4.000000
 -0.024242  0.024242  0.047939      4.000000
  0.000000  0.048484  0.047939      4.000000
  0.024242  0.048484  0.047939      4.000000
  0.048484  0.048484  0.047939      4.000000
 -0.048484  0.048484  0.047939      4.000000
 -0.024242  0.048484  0.047939      4.000000
  0.000000  0.000000  0.071909      1.000000
  0.024242  0.000000  0.071909      2.000000
  0.048484  0.000000  0.071909      2.000000
  0.000000  0.024242  0.071909      2.000000
  0.024242  0.024242  0.071909      2.000000
  0.048484  0.024242  0.071909      2.000000
 -0.048484  0.024242  0.071909      2.000000
 -0.024242  0.024242  0.071909      2.000000
  0.000000  0.048484  0.071909      2.000000
  0.024242  0.048484  0.071909      2.000000
  0.048484  0.048484  0.071909      2.000000
 -0.048484  0.048484  0.071909      2.000000
 -0.024242  0.048484  0.071909      2.000000
 


--------------------------------------------------------------------------------------------------------




 Dimension of arrays:
   k-points           NKPTS =     52   k-points in BZ     NKDIM =     52   number of bands    NBANDS=    112
   number of dos      NEDOS =    301   number of ions     NIONS =     36
   non local maximal  LDIM  =      6   non local SUM 2l+1 LMDIM =     18
   total plane-waves  NPLWV = 139968
   max r-space proj   IRMAX =      1   max aug-charges    IRDMAX=  92271
   dimension x,y,z NGX =    54 NGY =   54 NGZ =   48
   dimension x,y,z NGXF=   108 NGYF=  108 NGZF=   96
   support grid    NGXF=   216 NGYF=  216 NGZF=  192
   ions per type =              18  18
   NGX,Y,Z   is equivalent  to a cutoff of  10.88, 10.88, 11.48 a.u.
   NGXF,Y,Z  is equivalent  to a cutoff of  21.76, 21.76, 22.95 a.u.

 SYSTEM =  AlMn_pv                                 
 POSCAR =  NewRef: 18, @ ['Mn', array([1.37502469, 

 Startparameter for this run:
   NWRITE =      2    write-flag & timer
   PREC   = accura    normal or accurate (medium, high low for compatibility)
   ISTART =      0    job   : 0-new  1-cont  2-samecut
   ICHARG =      2    charge: 1-file 2-atom 10-const
   ISPIN  =      2    spin polarized calculation?
   LNONCOLLINEAR =      F non collinear calculations
   LSORBIT =      F    spin-orbit coupling
   INIWAV =      1    electr: 0-lowe 1-rand  2-diag
   LASPH  =      F    aspherical Exc in radial PAW
   METAGGA=      F    non-selfconsistent MetaGGA calc.

 Electronic Relaxation 1
   ENCUT  =  404.8 eV  29.75 Ry    5.45 a.u.  13.53 13.53 11.41*2*pi/ulx,y,z
   ENINI  =  404.8     initial cutoff
   ENAUG  =  500.7 eV  augmentation charge cutoff
   NELM   =    100;   NELMIN=  4; NELMDL= -8     # of ELM steps 
   EDIFF  = 0.1E-06   stopping-criterion for ELM
   LREAL  =      F    real-space projection
   NLSPLINE    = F    spline interpolate recip. space projectors
   LCOMPAT=      F    compatible to vasp.4.4
   GGA_COMPAT  = T    GGA compatible to vasp.4.4-vasp.4.6
   LMAXPAW     = -100 max onsite density
   LMAXMIX     =    2 max onsite mixed and CHGCAR
   VOSKOWN=      0    Vosko Wilk Nusair interpolation
   ROPT   =    0.00000   0.00000
 Ionic relaxation
   EDIFFG = 0.1E-05   stopping-criterion for IOM
   NSW    =      0    number of steps for IOM
   NBLOCK =      1;   KBLOCK =      1    inner block; outer block 
   IBRION =     -1    ionic relax: 0-MD 1-quasi-New 2-CG
   NFREE  =      0    steps in history (QN), initial steepest desc. (CG)
   ISIF   =      2    stress and relaxation
   IWAVPR =     10    prediction:  0-non 1-charg 2-wave 3-comb
   ISYM   =      2    0-nonsym 1-usesym 2-fastsym
   LCORR  =      T    Harris-Foulkes like correction to forces

   POTIM  = 0.2000    time-step for ionic-motion
   TEIN   =    0.0    initial temperature
   TEBEG  =    0.0;   TEEND  =   0.0 temperature during run
   SMASS  =  -3.00    Nose mass-parameter (am)
   estimated Nose-frequenzy (Omega)   =  0.10E-29 period in steps =****** mass=  -0.156E-26a.u.
   SCALEE = 1.0000    scale energy and forces
   NPACO  =    256;   APACO  = 16.0  distance and # of slots for P.C.
   PSTRESS=    0.0 pullay stress

  Mass of Ions in am
   POMASS =  26.98 54.94
  Ionic Valenz
   ZVAL   =   3.00  7.00
  Atomic Wigner-Seitz radii
   RWIGS  =  -1.00 -1.00
  virtual crystal weights 
   VCA    =   1.00  1.00
   NELECT =     180.0000    total number of electrons
   NUPDOWN=      -1.0000    fix difference up-down

 DOS related values:
   EMIN   =  10.00;   EMAX   =-10.00  energy-range for DOS
   EFERMI =   0.00
   ISMEAR =     1;   SIGMA  =   0.20  broadening in eV -4-tet -1-fermi 0-gaus

 Electronic relaxation 2 (details)
   IALGO  =     58    algorithm
   LDIAG  =      T    sub-space diagonalisation (order eigenvalues)
   LSUBROT=      F    optimize rotation matrix (better conditioning)
   TURBO    =      0    0=normal 1=particle mesh
   IRESTART =      0    0=no restart 2=restart with 2 vectors
   NREBOOT  =      0    no. of reboots
   NMIN     =      0    reboot dimension
   EREF     =   0.00    reference energy to select bands
   IMIX   =      4    mixing-type and parameters
     AMIX     =   0.40;   BMIX     =  1.00
     AMIX_MAG =   1.60;   BMIX_MAG =  1.00
     AMIN     =   0.10
     WC   =   100.;   INIMIX=   1;  MIXPRE=   1;  MAXMIX= -45

 Intra band minimization:
   WEIMIN = 0.0000     energy-eigenvalue tresh-hold
   EBREAK =  0.22E-09  absolut break condition
   DEPER  =   0.30     relativ break condition  

   TIME   =   0.40     timestep for ELM

  volume/ion in A,a.u.               =      13.15        88.72
  Fermi-wavevector in a.u.,A,eV,Ry     =   1.186118  2.241439 19.141722  1.406877
  Thomas-Fermi vector in A             =   2.322298
 
 Write flags
   LWAVE        =      F    write WAVECAR
   LDOWNSAMPLE  =      F    k-point downsampling of WAVECAR
   LCHARG       =      F    write CHGCAR
   LVTOT        =      F    write LOCPOT, total local potential
   LVHAR        =      F    write LOCPOT, Hartree potential only
   LELF         =      F    write electronic localiz. function (ELF)
   LORBIT       =     10    0 simple, 1 ext, 2 COOP (PROOUT), +10 PAW based schemes


 Dipole corrections
   LMONO  =      F    monopole corrections only (constant potential shift)
   LDIPOL =      F    correct potential (dipole corrections)
   IDIPOL =      0    1-x, 2-y, 3-z, 4-all directions 
   EPSILON=  1.0000000 bulk dielectric constant

 Exchange correlation treatment:
   GGA     =    --    GGA type
   LEXCH   =     8    internal setting for exchange type
   VOSKOWN=      0    Vosko Wilk Nusair interpolation
   LHFCALC =     F    Hartree Fock is set to
   LHFONE  =     F    Hartree Fock one center treatment
   AEXX    =    0.0000 exact exchange contribution

 Linear response parameters
   LEPSILON=     F    determine dielectric tensor
   LRPA    =     F    only Hartree local field effects (RPA)
   LNABLA  =     F    use nabla operator in PAW spheres
   LVEL    =     F    velocity operator in full k-point grid
   LINTERFAST=   F  fast interpolation
   KINTER  =     0    interpolate to denser k-point grid
   CSHIFT  =0.1000    complex shift for real part using Kramers Kronig
   OMEGAMAX=  -1.0    maximum frequency
   DEG_THRESHOLD= 0.2000000E-02 threshold for treating states as degnerate
   RTIME   =   -0.100 relaxation time in fs
  (WPLASMAI=    0.000 imaginary part of plasma frequency in eV, 0.658/RTIME)
   DFIELD  = 0.0000000 0.0000000 0.0000000 field for delta impulse in time
 
 Orbital magnetization related:
   ORBITALMAG=     F  switch on orbital magnetization
   LCHIMAG   =     F  perturbation theory with respect to B field
   DQ        =  0.001000  dq finite difference perturbation B field
   LLRAUG    =     F  two centre corrections for induced B field



--------------------------------------------------------------------------------------------------------


 Static calculation
 charge density and potential will be updated during run
 spin polarized calculation
 Conjugate gradient for all bands (Freysoldt, et al. PRB 79, 241103 (2009))
 preconditioned conjugated gradient                                        
 perform sub-space diagonalisation
    before iterative eigenvector-optimisation
 modified Broyden-mixing scheme, WC =      100.0
 initial mixing is a Kerker type mixing with AMIX =  0.4000 and BMIX =      1.0000
 Hartree-type preconditioning will be used
 using additional bands           22
 reciprocal scheme for non local part
 use partial core corrections
 no Harris-corrections to forces 
 use gradient corrections 
 use of overlap-Matrix (Vanderbilt PP)
 Methfessel and Paxton  Order N= 1 SIGMA  =   0.20


--------------------------------------------------------------------------------------------------------


  energy-cutoff  :      404.80
  volume of cell :      473.27
      direct lattice vectors                 reciprocal lattice vectors
     8.250148166  0.000000000  0.000000000     0.121209944  0.000000000  0.000000000
     0.000000000  8.250148166  0.000000000     0.000000000  0.121209944  0.000000000
     0.000000000  0.000000000  6.953274261     0.000000000  0.000000000  0.143817137

  length of vectors
     8.250148166  8.250148166  6.953274261     0.121209944  0.121209944  0.143817137


 
 k-points in units of 2pi/SCALE and weight: automatic KPOINTS                       
   0.00000000  0.00000000  0.00000000       0.007
   0.02424199  0.00000000  0.00000000       0.013
   0.04848398  0.00000000  0.00000000       0.013
   0.00000000  0.02424199  0.00000000       0.013
   0.02424199  0.02424199  0.00000000       0.013
   0.04848398  0.02424199  0.00000000       0.013
  -0.04848398  0.02424199  0.00000000       0.013
  -0.02424199  0.02424199  0.00000000       0.013
   0.00000000  0.04848398  0.00000000       0.013
   0.02424199  0.04848398  0.00000000       0.013
   0.04848398  0.04848398  0.00000000       0.013
  -0.04848398  0.04848398  0.00000000       0.013
  -0.02424199  0.04848398  0.00000000       0.013
   0.00000000  0.00000000  0.02396952       0.013
   0.02424199  0.00000000  0.02396952       0.027
   0.04848398  0.00000000  0.02396952       0.027
   0.00000000  0.02424199  0.02396952       0.027
   0.02424199  0.02424199  0.02396952       0.027
   0.04848398  0.02424199  0.02396952       0.027
  -0.04848398  0.02424199  0.02396952       0.027
  -0.02424199  0.02424199  0.02396952       0.027
   0.00000000  0.04848398  0.02396952       0.027
   0.02424199  0.04848398  0.02396952       0.027
   0.04848398  0.04848398  0.02396952       0.027
  -0.04848398  0.04848398  0.02396952       0.027
  -0.02424199  0.04848398  0.02396952       0.027
   0.00000000  0.00000000  0.04793905       0.013
   0.02424199  0.00000000  0.04793905       0.027
   0.04848398  0.00000000  0.04793905       0.027
   0.00000000  0.02424199  0.04793905       0.027
   0.02424199  0.02424199  0.04793905       0.027
   0.04848398  0.02424199  0.04793905       0.027
  -0.04848398  0.02424199  0.04793905       0.027
  -0.02424199  0.02424199  0.04793905       0.027
   0.00000000  0.04848398  0.04793905       0.027
   0.02424199  0.04848398  0.04793905       0.027
   0.04848398  0.04848398  0.04793905       0.027
  -0.04848398  0.04848398  0.04793905       0.027
  -0.02424199  0.04848398  0.04793905       0.027
   0.00000000  0.00000000  0.07190857       0.007
   0.02424199  0.00000000  0.07190857       0.013
   0.04848398  0.00000000  0.07190857       0.013
   0.00000000  0.02424199  0.07190857       0.013
   0.02424199  0.02424199  0.07190857       0.013
   0.04848398  0.02424199  0.07190857       0.013
  -0.04848398  0.02424199  0.07190857       0.013
  -0.02424199  0.02424199  0.07190857       0.013
   0.00000000  0.04848398  0.07190857       0.013
   0.02424199  0.04848398  0.07190857       0.013
   0.04848398  0.04848398  0.07190857       0.013
  -0.04848398  0.04848398  0.07190857       0.013
  -0.02424199  0.04848398  0.07190857       0.013
 
 k-points in reciprocal lattice and weights: automatic KPOINTS                       
   0.00000000  0.00000000  0.00000000       0.007
   0.20000000  0.00000000  0.00000000       0.013
   0.40000000  0.00000000  0.00000000       0.013
   0.00000000  0.20000000  0.00000000       0.013
   0.20000000  0.20000000  0.00000000       0.013
   0.40000000  0.20000000  0.00000000       0.013
  -0.40000000  0.20000000  0.00000000       0.013
  -0.20000000  0.20000000  0.00000000       0.013
   0.00000000  0.40000000  0.00000000       0.013
   0.20000000  0.40000000  0.00000000       0.013
   0.40000000  0.40000000  0.00000000       0.013
  -0.40000000  0.40000000  0.00000000       0.013
  -0.20000000  0.40000000  0.00000000       0.013
   0.00000000  0.00000000  0.16666667       0.013
   0.20000000  0.00000000  0.16666667       0.027
   0.40000000  0.00000000  0.16666667       0.027
   0.00000000  0.20000000  0.16666667       0.027
   0.20000000  0.20000000  0.16666667       0.027
   0.40000000  0.20000000  0.16666667       0.027
  -0.40000000  0.20000000  0.16666667       0.027
  -0.20000000  0.20000000  0.16666667       0.027
   0.00000000  0.40000000  0.16666667       0.027
   0.20000000  0.40000000  0.16666667       0.027
   0.40000000  0.40000000  0.16666667       0.027
  -0.40000000  0.40000000  0.16666667       0.027
  -0.20000000  0.40000000  0.16666667       0.027
   0.00000000  0.00000000  0.33333333       0.013
   0.20000000  0.00000000  0.33333333       0.027
   0.40000000  0.00000000  0.33333333       0.027
   0.00000000  0.20000000  0.33333333       0.027
   0.20000000  0.20000000  0.33333333       0.027
   0.40000000  0.20000000  0.33333333       0.027
  -0.40000000  0.20000000  0.33333333       0.027
  -0.20000000  0.20000000  0.33333333       0.027
   0.00000000  0.40000000  0.33333333       0.027
   0.20000000  0.40000000  0.33333333       0.027
   0.40000000  0.40000000  0.33333333       0.027
  -0.40000000  0.40000000  0.33333333       0.027
  -0.20000000  0.40000000  0.33333333       0.027
   0.00000000  0.00000000  0.50000000       0.007
   0.20000000  0.00000000  0.50000000       0.013
   0.40000000  0.00000000  0.50000000       0.013
   0.00000000  0.20000000  0.50000000       0.013
   0.20000000  0.20000000  0.50000000       0.013
   0.40000000  0.20000000  0.50000000       0.013
  -0.40000000  0.20000000  0.50000000       0.013
  -0.20000000  0.20000000  0.50000000       0.013
   0.00000000  0.40000000  0.50000000       0.013
   0.20000000  0.40000000  0.50000000       0.013
   0.40000000  0.40000000  0.50000000       0.013
  -0.40000000  0.40000000  0.50000000       0.013
  -0.20000000  0.40000000  0.50000000       0.013
 
 position of ions in fractional coordinates (direct lattice) 
   0.00000000  0.00000000  0.00000000
   0.00000000  0.00000000  0.50000000
   0.00000000  0.33333333  0.00000000
   0.00000000  0.33333333  0.50000000
   0.00000000  0.66666667  0.00000000
   0.00000000  0.66666667  0.50000000
   0.33333333  0.00000000  0.00000000
   0.33333333  0.00000000  0.50000000
   0.33333333  0.33333333  0.00000000
   0.33333333  0.33333333  0.50000000
   0.33333333  0.66666667  0.00000000
   0.33333333  0.66666667  0.50000000
   0.66666667  0.00000000  0.00000000
   0.66666667  0.00000000  0.50000000
   0.66666667  0.33333333  0.00000000
   0.66666667  0.33333333  0.50000000
   0.66666667  0.66666667  0.00000000
   0.66666667  0.66666667  0.50000000
   0.16666667  0.16666667  0.25000000
   0.16666667  0.16666667  0.75000000
   0.16666667  0.50000000  0.25000000
   0.16666667  0.50000000  0.75000000
   0.16666667  0.83333333  0.25000000
   0.16666667  0.83333333  0.75000000
   0.50000000  0.16666667  0.25000000
   0.50000000  0.16666667  0.75000000
   0.50000000  0.50000000  0.25000000
   0.50000000  0.50000000  0.75000000
   0.50000000  0.83333333  0.25000000
   0.50000000  0.83333333  0.75000000
   0.83333333  0.16666667  0.25000000
   0.83333333  0.16666667  0.75000000
   0.83333333  0.50000000  0.25000000
   0.83333333  0.50000000  0.75000000
   0.83333333  0.83333333  0.25000000
   0.83333333  0.83333333  0.75000000
 
 position of ions in cartesian coordinates  (Angst):
   0.00000000  0.00000000  0.00000000
   0.00000000  0.00000000  3.47663713
   0.00000000  2.75004939  0.00000000
   0.00000000  2.75004939  3.47663713
   0.00000000  5.50009878  0.00000000
   0.00000000  5.50009878  3.47663713
   2.75004939  0.00000000  0.00000000
   2.75004939  0.00000000  3.47663713
   2.75004939  2.75004939  0.00000000
   2.75004939  2.75004939  3.47663713
   2.75004939  5.50009878  0.00000000
   2.75004939  5.50009878  3.47663713
   5.50009878  0.00000000  0.00000000
   5.50009878  0.00000000  3.47663713
   5.50009878  2.75004939  0.00000000
   5.50009878  2.75004939  3.47663713
   5.50009878  5.50009878  0.00000000
   5.50009878  5.50009878  3.47663713
   1.37502469  1.37502469  1.73831857
   1.37502469  1.37502469  5.21495570
   1.37502469  4.12507408  1.73831857
   1.37502469  4.12507408  5.21495570
   1.37502469  6.87512347  1.73831857
   1.37502469  6.87512347  5.21495570
   4.12507408  1.37502469  1.73831857
   4.12507408  1.37502469  5.21495570
   4.12507408  4.12507408  1.73831857
   4.12507408  4.12507408  5.21495570
   4.12507408  6.87512347  1.73831857
   4.12507408  6.87512347  5.21495570
   6.87512347  1.37502469  1.73831857
   6.87512347  1.37502469  5.21495570
   6.87512347  4.12507408  1.73831857
   6.87512347  4.12507408  5.21495570
   6.87512347  6.87512347  1.73831857
   6.87512347  6.87512347  5.21495570
 


--------------------------------------------------------------------------------------------------------


 k-point  1 :   0.0000 0.0000 0.0000  plane waves:    8799
 k-point  2 :   0.2000 0.0000 0.0000  plane waves:    8753
 k-point  3 :   0.4000 0.0000 0.0000  plane waves:    8757
 k-point  4 :   0.0000 0.2000 0.0000  plane waves:    8753
 k-point  5 :   0.2000 0.2000 0.0000  plane waves:    8767
 k-point  6 :   0.4000 0.2000 0.0000  plane waves:    8761
 k-point  7 :  -0.4000 0.2000 0.0000  plane waves:    8761
 k-point  8 :  -0.2000 0.2000 0.0000  plane waves:    8767
 k-point  9 :   0.0000 0.4000 0.0000  plane waves:    8757
 k-point 10 :   0.2000 0.4000 0.0000  plane waves:    8761
 k-point 11 :   0.4000 0.4000 0.0000  plane waves:    8731
 k-point 12 :  -0.4000 0.4000 0.0000  plane waves:    8731
 k-point 13 :  -0.2000 0.4000 0.0000  plane waves:    8761
 k-point 14 :   0.0000 0.0000 0.1667  plane waves:    8763
 k-point 15 :   0.2000 0.0000 0.1667  plane waves:    8771
 k-point 16 :   0.4000 0.0000 0.1667  plane waves:    8747
 k-point 17 :   0.0000 0.2000 0.1667  plane waves:    8771
 k-point 18 :   0.2000 0.2000 0.1667  plane waves:    8764
 k-point 19 :   0.4000 0.2000 0.1667  plane waves:    8768
 k-point 20 :  -0.4000 0.2000 0.1667  plane waves:    8768
 k-point 21 :  -0.2000 0.2000 0.1667  plane waves:    8764
 k-point 22 :   0.0000 0.4000 0.1667  plane waves:    8747
 k-point 23 :   0.2000 0.4000 0.1667  plane waves:    8768
 k-point 24 :   0.4000 0.4000 0.1667  plane waves:    8740
 k-point 25 :  -0.4000 0.4000 0.1667  plane waves:    8740
 k-point 26 :  -0.2000 0.4000 0.1667  plane waves:    8768
 k-point 27 :   0.0000 0.0000 0.3333  plane waves:    8743
 k-point 28 :   0.2000 0.0000 0.3333  plane waves:    8736
 k-point 29 :   0.4000 0.0000 0.3333  plane waves:    8753
 k-point 30 :   0.0000 0.2000 0.3333  plane waves:    8736
 k-point 31 :   0.2000 0.2000 0.3333  plane waves:    8753
 k-point 32 :   0.4000 0.2000 0.3333  plane waves:    8743
 k-point 33 :  -0.4000 0.2000 0.3333  plane waves:    8743
 k-point 34 :  -0.2000 0.2000 0.3333  plane waves:    8753
 k-point 35 :   0.0000 0.4000 0.3333  plane waves:    8753
 k-point 36 :   0.2000 0.4000 0.3333  plane waves:    8743
 k-point 37 :   0.4000 0.4000 0.3333  plane waves:    8755
 k-point 38 :  -0.4000 0.4000 0.3333  plane waves:    8755
 k-point 39 :  -0.2000 0.4000 0.3333  plane waves:    8743
 k-point 40 :   0.0000 0.0000 0.5000  plane waves:    8742
 k-point 41 :   0.2000 0.0000 0.5000  plane waves:    8756
 k-point 42 :   0.4000 0.0000 0.5000  plane waves:    8744
 k-point 43 :   0.0000 0.2000 0.5000  plane waves:    8756
 k-point 44 :   0.2000 0.2000 0.5000  plane waves:    8762
 k-point 45 :   0.4000 0.2000 0.5000  plane waves:    8732
 k-point 46 :  -0.4000 0.2000 0.5000  plane waves:    8732
 k-point 47 :  -0.2000 0.2000 0.5000  plane waves:    8762
 k-point 48 :   0.0000 0.4000 0.5000  plane waves:    8744
 k-point 49 :   0.2000 0.4000 0.5000  plane waves:    8732
 k-point 50 :   0.4000 0.4000 0.5000  plane waves:    8736
 k-point 51 :  -0.4000 0.4000 0.5000  plane waves:    8736
 k-point 52 :  -0.2000 0.4000 0.5000  plane waves:    8732

 maximum and minimum number of plane-waves per node :      2210     2164

 maximum number of plane-waves:      8799
 maximum index in each direction: 
   IXMAX=   13   IYMAX=   13   IZMAX=   11
   IXMIN=  -13   IYMIN=  -13   IZMIN=  -11


 parallel 3D FFT for wavefunctions:
    minimum data exchange during FFTs selected (reduces bandwidth)
 parallel 3D FFT for charge:
    minimum data exchange during FFTs selected (reduces bandwidth)


 total amount of memory used by VASP MPI-rank0   751840. kBytes
=======================================================================

   base      :      30000. kBytes
   nonl-proj :      34307. kBytes
   fftplans  :      21726. kBytes
   grid      :      14732. kBytes
   one-center:        279. kBytes
   wavefun   :     650796. kBytes
 
     INWAV:  cpu time    0.0001: real time    0.0001
 Broyden mixing: mesh for mixing (old mesh)
   NGX = 27   NGY = 27   NGZ = 23
  (NGX  =108   NGY  =108   NGZ  = 96)
  gives a total of  16767 points

 initial charge density was supplied:
 charge density of overlapping atoms calculated
 number of electron     180.0000000 magnetization       6.0000000
 keeping initial charge density in first step


--------------------------------------------------------------------------------------------------------


 Maximum index for augmentation-charges        11261 (set IRDMAX)


--------------------------------------------------------------------------------------------------------


 First call to EWALD:  gamma=   0.227
 Maximum number of real-space cells 3x 3x 3
 Maximum number of reciprocal cells 3x 3x 3

    FEWALD:  cpu time    0.0022: real time    0.0022


--------------------------------------- Iteration      1(   1)  ---------------------------------------


    POTLOK:  cpu time    0.2530: real time    0.2533
    SETDIJ:  cpu time    0.3269: real time    0.3279
    TRIAL :  cpu time   18.5833: real time   18.7752
    CORREC:  cpu time    0.0067: real time    0.0068
    --------------------------------------------
      LOOP:  cpu time   19.3877: real time   19.5912

 eigenvalue-minimisations  : 23296
 total energy-change (2. order) : 0.1351155E+04  (-0.5881896E+04)
 number of electron     180.0000000 magnetization       6.0000000
 augmentation part      180.0000000 magnetization       6.0000000

 Free energy of the ion-electron system (eV)
  ---------------------------------------------------
  alpha Z        PSCENC =       532.25742704
  Ewald energy   TEWEN  =     -8601.05107233
  -Hartree energ DENC   =     -1903.73857242
  -exchange      EXHF   =         0.00000000
  -V(xc)+E(xc)   XCENC  =      -664.78003680
  PAW double counting   =      8494.55058411    -7650.81563588
  entropy T*S    EENTRO =        -0.00082176
  eigenvalues    EBANDS =      2679.61707667
  atomic energy  EATOM  =      8465.11600846
  ---------------------------------------------------
  free energy    TOTEN  =      1351.15495709 eV

  energy without entropy =     1351.15577885  energy(sigma->0) =     1351.15523101


--------------------------------------------------------------------------------------------------------




--------------------------------------- Iteration      1(   2)  ---------------------------------------


    TRIAL :  cpu time   19.2263: real time   19.3754
    CORREC:  cpu time    0.0465: real time    0.0474
    --------------------------------------------
      LOOP:  cpu time   19.2739: real time   19.4261

 eigenvalue-minimisations  : 23296
 total energy-change (2. order) :-0.1412250E+04  (-0.1379132E+04)
 number of electron     180.0000000 magnetization       6.0000000
 augmentation part      180.0000000 magnetization       6.0000000

 Free energy of the ion-electron system (eV)
  ---------------------------------------------------
  alpha Z        PSCENC =       532.25742704
  Ewald energy   TEWEN  =     -8601.05107233
  -Hartree energ DENC   =     -1903.73857242
  -exchange      EXHF   =         0.00000000
  -V(xc)+E(xc)   XCENC  =      -664.78003680
  PAW double counting   =      8494.55058411    -7650.81563588
  entropy T*S    EENTRO =        -0.00084829
  eigenvalues    EBANDS =      1267.36752111
  atomic energy  EATOM  =      8465.11600846
  ---------------------------------------------------
  free energy    TOTEN  =       -61.09462500 eV

  energy without entropy =      -61.09377671  energy(sigma->0) =      -61.09434224


--------------------------------------------------------------------------------------------------------




--------------------------------------- Iteration      1(   3)  ---------------------------------------


    TRIAL :  cpu time   25.9668: real time   26.1538
    CORREC:  cpu time    0.0094: real time    0.0095
    --------------------------------------------
      LOOP:  cpu time   25.9771: real time   26.1670

 eigenvalue-minimisations  : 35496
 total energy-change (2. order) :-0.1770249E+03  (-0.1591095E+03)
 number of electron     180.0000000 magnetization       6.0000000
 augmentation part      180.0000000 magnetization       6.0000000

 Free energy of the ion-electron system (eV)
  ---------------------------------------------------
  alpha Z        PSCENC =       532.25742704
  Ewald energy   TEWEN  =     -8601.05107233
  -Hartree energ DENC   =     -1903.73857242
  -exchange      EXHF   =         0.00000000
  -V(xc)+E(xc)   XCENC  =      -664.78003680
  PAW double counting   =      8494.55058411    -7650.81563588
  entropy T*S    EENTRO =        -0.00286489
  eigenvalues    EBANDS =      1090.34461766
  atomic energy  EATOM  =      8465.11600846
  ---------------------------------------------------
  free energy    TOTEN  =      -238.11954505 eV

  energy without entropy =     -238.11668016  energy(sigma->0) =     -238.11859009


--------------------------------------------------------------------------------------------------------




--------------------------------------- Iteration      1(   4)  ---------------------------------------


    TRIAL :  cpu time   27.5608: real time   27.8016
    CORREC:  cpu time    0.0101: real time    0.0111
    --------------------------------------------
      LOOP:  cpu time   27.5724: real time   27.8166

 eigenvalue-minimisations  : 37992
 total energy-change (2. order) :-0.2817998E+02  (-0.2518986E+02)
 number of electron     180.0000000 magnetization       6.0000000
 augmentation part      180.0000000 magnetization       6.0000000

 Free energy of the ion-electron system (eV)
  ---------------------------------------------------
  alpha Z        PSCENC =       532.25742704
  Ewald energy   TEWEN  =     -8601.05107233
  -Hartree energ DENC   =     -1903.73857242
  -exchange      EXHF   =         0.00000000
  -V(xc)+E(xc)   XCENC  =      -664.78003680
  PAW double counting   =      8494.55058411    -7650.81563588
  entropy T*S    EENTRO =         0.01475880
  eigenvalues    EBANDS =      1062.14701303
  atomic energy  EATOM  =      8465.11600846
  ---------------------------------------------------
  free energy    TOTEN  =      -266.29952599 eV

  energy without entropy =     -266.31428478  energy(sigma->0) =     -266.30444559


--------------------------------------------------------------------------------------------------------




--------------------------------------- Iteration      1(   5)  ---------------------------------------


    TRIAL :  cpu time   28.3432: real time   28.5279
    CORREC:  cpu time    0.0101: real time    0.0102
    --------------------------------------------
      LOOP:  cpu time   28.3570: real time   28.5420

 eigenvalue-minimisations  : 39064
 total energy-change (2. order) :-0.3146476E+01  (-0.2985797E+01)
 number of electron     180.0000000 magnetization       6.0000000
 augmentation part      180.0000000 magnetization       6.0000000

 Free energy of the ion-electron system (eV)
  ---------------------------------------------------
  alpha Z        PSCENC =       532.25742704
  Ewald energy   TEWEN  =     -8601.05107233
  -Hartree energ DENC   =     -1903.73857242
  -exchange      EXHF   =         0.00000000
  -V(xc)+E(xc)   XCENC  =      -664.78003680
  PAW double counting   =      8494.55058411    -7650.81563588
  entropy T*S    EENTRO =         0.01647085
  eigenvalues    EBANDS =      1058.99882519
  atomic energy  EATOM  =      8465.11600846
  ---------------------------------------------------
  free energy    TOTEN  =      -269.44600177 eV

  energy without entropy =     -269.46247262  energy(sigma->0) =     -269.45149205


--------------------------------------------------------------------------------------------------------




--------------------------------------- Iteration      1(   6)  ---------------------------------------


    TRIAL :  cpu time   27.5458: real time   27.8211
    CORREC:  cpu time    0.0102: real time    0.0110
    --------------------------------------------
      LOOP:  cpu time   27.5595: real time   27.8362

 eigenvalue-minimisations  : 38760
 total energy-change (2. order) :-0.2736202E+00  (-0.2643264E+00)
 number of electron     180.0000000 magnetization       6.0000000
 augmentation part      180.0000000 magnetization       6.0000000

 Free energy of the ion-electron system (eV)
  ---------------------------------------------------
  alpha Z        PSCENC =       532.25742704
  Ewald energy   TEWEN  =     -8601.05107233
  -Hartree energ DENC   =     -1903.73857242
  -exchange      EXHF   =         0.00000000
  -V(xc)+E(xc)   XCENC  =      -664.78003680
  PAW double counting   =      8494.55058411    -7650.81563588
  entropy T*S    EENTRO =         0.01615742
  eigenvalues    EBANDS =      1058.72551848
  atomic energy  EATOM  =      8465.11600846
  ---------------------------------------------------
  free energy    TOTEN  =      -269.71962192 eV

  energy without entropy =     -269.73577934  energy(sigma->0) =     -269.72500773


--------------------------------------------------------------------------------------------------------




--------------------------------------- Iteration      1(   7)  ---------------------------------------


    TRIAL :  cpu time   28.6939: real time   28.8877
    CORREC:  cpu time    0.0102: real time    0.0110
    --------------------------------------------
      LOOP:  cpu time   28.7049: real time   28.9023

 eigenvalue-minimisations  : 39768
 total energy-change (2. order) :-0.3114377E-01  (-0.3049310E-01)
 number of electron     180.0000000 magnetization       6.0000000
 augmentation part      180.0000000 magnetization       6.0000000

 Free energy of the ion-electron system (eV)
  ---------------------------------------------------
  alpha Z        PSCENC =       532.25742704
  Ewald energy   TEWEN  =     -8601.05107233
  -Hartree energ DENC   =     -1903.73857242
  -exchange      EXHF   =         0.00000000
  -V(xc)+E(xc)   XCENC  =      -664.78003680
  PAW double counting   =      8494.55058411    -7650.81563588
  entropy T*S    EENTRO =         0.01637327
  eigenvalues    EBANDS =      1058.69415885
  atomic energy  EATOM  =      8465.11600846
  ---------------------------------------------------
  free energy    TOTEN  =      -269.75076569 eV

  energy without entropy =     -269.76713896  energy(sigma->0) =     -269.75622345


--------------------------------------------------------------------------------------------------------




--------------------------------------- Iteration      1(   8)  ---------------------------------------


    TRIAL :  cpu time   27.2497: real time   27.4416
    CORREC:  cpu time    0.0104: real time    0.0105
    CHARGE:  cpu time    1.0919: real time    1.0923
    --------------------------------------------
      LOOP:  cpu time   28.3536: real time   28.5484

 eigenvalue-minimisations  : 37952
 total energy-change (2. order) :-0.3266144E-02  (-0.3214273E-02)
 number of electron     179.9999997 magnetization       4.1081498
 augmentation part       42.4660805 magnetization       2.4379981

 Free energy of the ion-electron system (eV)
  ---------------------------------------------------
  alpha Z        PSCENC =       532.25742704
  Ewald energy   TEWEN  =     -8601.05107233
  -Hartree energ DENC   =     -1903.73857242
  -exchange      EXHF   =         0.00000000
  -V(xc)+E(xc)   XCENC  =      -664.78003680
  PAW double counting   =      8494.55058411    -7650.81563588
  entropy T*S    EENTRO =         0.01659551
  eigenvalues    EBANDS =      1058.69067047
  atomic energy  EATOM  =      8465.11600846
  ---------------------------------------------------
  free energy    TOTEN  =      -269.75403184 eV

  energy without entropy =     -269.77062735  energy(sigma->0) =     -269.75956368


--------------------------------------------------------------------------------------------------------




--------------------------------------- Iteration      1(   9)  ---------------------------------------


    POTLOK:  cpu time    0.2524: real time    0.2524
    SETDIJ:  cpu time    0.3223: real time    0.3224
    TRIAL :  cpu time    9.9939: real time   10.1022
    CORREC:  cpu time    4.3091: real time    4.3458
    CHARGE:  cpu time    1.0881: real time    1.1031
    --------------------------------------------
      LOOP:  cpu time   15.9675: real time   16.1308

 eigenvalue-minimisations  :     0
 total energy-change (2. order) : 0.2123845E+03  (-0.1403673E+03)
 number of electron     179.9999997 magnetization       4.3648886
 augmentation part       53.1036808 magnetization       2.7800079

 Free energy of the ion-electron system (eV)
  ---------------------------------------------------
  alpha Z        PSCENC =       532.25742704
  Ewald energy   TEWEN  =     -8601.05107233
  -Hartree energ DENC   =      -839.25506840
  -exchange      EXHF   =         0.00000000
  -V(xc)+E(xc)   XCENC  =      -695.02046238
  PAW double counting   =     12734.80836794   -11787.34972788
  entropy T*S    EENTRO =        -0.01014703
  eigenvalues    EBANDS =       133.10838600
  atomic energy  EATOM  =      8465.11600846
  ---------------------------------------------------
  free energy    TOTEN  =       -57.36954604 eV

  energy without entropy =      -57.35939901  energy(sigma->0) =      -57.36616369


--------------------------------------------------------------------------------------------------------




--------------------------------------- Iteration      1(  10)  ---------------------------------------


    POTLOK:  cpu time    0.2484: real time    0.2485
    SETDIJ:  cpu time    0.3210: real time    0.3212
    TRIAL :  cpu time    9.1621: real time    9.2455
    CORREC:  cpu time    3.4287: real time    3.4312
    CHARGE:  cpu time    1.1091: real time    1.1098
    --------------------------------------------
      LOOP:  cpu time   14.2723: real time   14.3608

 eigenvalue-minimisations  :     0
 total energy-change (2. order) :-0.1438019E+03  (-0.1513399E+02)
 number of electron     179.9999996 magnetization       4.3939381
 augmentation part       57.2207948 magnetization       2.9574693

 Free energy of the ion-electron system (eV)
  ---------------------------------------------------
  alpha Z        PSCENC =       532.25742704
  Ewald energy   TEWEN  =     -8601.05107233
  -Hartree energ DENC   =     -1309.39365757
  -exchange      EXHF   =         0.00000000
  -V(xc)+E(xc)   XCENC  =      -679.26753425
  PAW double counting   =     13342.39220604   -12497.31258227
  entropy T*S    EENTRO =        -0.01466532
  eigenvalues    EBANDS =       546.09790683
  atomic energy  EATOM  =      8465.11600846
  ---------------------------------------------------
  free energy    TOTEN  =      -201.17144508 eV

  energy without entropy =     -201.15677976  energy(sigma->0) =     -201.16655664


--------------------------------------------------------------------------------------------------------




--------------------------------------- Iteration      1(  11)  ---------------------------------------


    POTLOK:  cpu time    0.2479: real time    0.2480
    SETDIJ:  cpu time    0.3196: real time    0.3198
    TRIAL :  cpu time    9.1774: real time    9.1999
    CORREC:  cpu time    3.3889: real time    3.4548
    CHARGE:  cpu time    1.0717: real time    1.1144
    --------------------------------------------
      LOOP:  cpu time   14.2089: real time   14.3410

 eigenvalue-minimisations  :     0
 total energy-change (2. order) :-0.1526153E+02  (-0.8545943E+01)
 number of electron     179.9999996 magnetization       4.4794073
 augmentation part       59.0391243 magnetization       3.0722764

 Free energy of the ion-electron system (eV)
  ---------------------------------------------------
  alpha Z        PSCENC =       532.25742704
  Ewald energy   TEWEN  =     -8601.05107233
  -Hartree energ DENC   =     -1531.79843436
  -exchange      EXHF   =         0.00000000
  -V(xc)+E(xc)   XCENC  =      -671.18145350
  PAW double counting   =     14305.51156945   -13504.24269471
  entropy T*S    EENTRO =        -0.00463503
  eigenvalues    EBANDS =       788.97034120
  atomic energy  EATOM  =      8465.11600846
  ---------------------------------------------------
  free energy    TOTEN  =      -216.43297408 eV

  energy without entropy =     -216.42833905  energy(sigma->0) =     -216.43142907


--------------------------------------------------------------------------------------------------------




--------------------------------------- Iteration      1(  12)  ---------------------------------------


    POTLOK:  cpu time    0.2497: real time    0.2498
    SETDIJ:  cpu time    0.3246: real time    0.3249
    TRIAL :  cpu time    9.1477: real time    9.1869
    CORREC:  cpu time    3.4136: real time    3.4386
    CHARGE:  cpu time    1.0877: real time    1.0883
    --------------------------------------------
      LOOP:  cpu time   14.2281: real time   14.2938

 eigenvalue-minimisations  :     0
 total energy-change (2. order) :-0.8548813E+01  (-0.7101389E+01)
 number of electron     179.9999996 magnetization       4.3386681
 augmentation part       58.6520800 magnetization       3.0384776

 Free energy of the ion-electron system (eV)
  ---------------------------------------------------
  alpha Z        PSCENC =       532.25742704
  Ewald energy   TEWEN  =     -8601.05107233
  -Hartree energ DENC   =     -1683.75049460
  -exchange      EXHF   =         0.00000000
  -V(xc)+E(xc)   XCENC  =      -666.04339508
  PAW double counting   =     14459.97222846   -13666.18301026
  entropy T*S    EENTRO =        -0.00118524
  eigenvalues    EBANDS =       934.70515583
  atomic energy  EATOM  =      8465.11600846
  ---------------------------------------------------
  free energy    TOTEN  =      -224.98178751 eV

  energy without entropy =     -224.98060227  energy(sigma->0) =     -224.98139243


--------------------------------------------------------------------------------------------------------




--------------------------------------- Iteration      1(  13)  ---------------------------------------


    POTLOK:  cpu time    0.2481: real time    0.2482
    SETDIJ:  cpu time    0.3204: real time    0.3206
    TRIAL :  cpu time   10.0156: real time   10.1235
    CORREC:  cpu time    4.2953: real time    4.3388
    CHARGE:  cpu time    1.0914: real time    1.0921
    --------------------------------------------
      LOOP:  cpu time   15.9764: real time   16.1290

 eigenvalue-minimisations  :     0
 total energy-change (2. order) :-0.7075776E+01  (-0.1522586E+01)
 number of electron     179.9999997 magnetization       4.3784214
 augmentation part       57.5801504 magnetization       3.0252054

 Free energy of the ion-electron system (eV)
  ---------------------------------------------------
  alpha Z        PSCENC =       532.25742704
  Ewald energy   TEWEN  =     -8601.05107233
  -Hartree energ DENC   =     -1718.04661842
  -exchange      EXHF   =         0.00000000
  -V(xc)+E(xc)   XCENC  =      -665.15906762
  PAW double counting   =     14252.74673212   -13438.87559440
  entropy T*S    EENTRO =         0.00501202
  eigenvalues    EBANDS =       940.95580734
  atomic energy  EATOM  =      8465.11600846
  ---------------------------------------------------
  free energy    TOTEN  =      -232.05756305 eV

  energy without entropy =     -232.06257507  energy(sigma->0) =     -232.05923372


--------------------------------------------------------------------------------------------------------




--------------------------------------- Iteration      1(  14)  ---------------------------------------


    POTLOK:  cpu time    0.2480: real time    0.2480
    SETDIJ:  cpu time    0.3037: real time    0.3257
    TRIAL :  cpu time    9.1331: real time    9.2292
    CORREC:  cpu time    3.4334: real time    3.4385
    CHARGE:  cpu time    1.1078: real time    1.1085
    --------------------------------------------
      LOOP:  cpu time   14.2309: real time   14.3556

 eigenvalue-minimisations  :     0
 total energy-change (2. order) :-0.1491358E+01  (-0.6120302E+00)
 number of electron     179.9999997 magnetization       4.2550407
 augmentation part       57.2409735 magnetization       2.9400931

 Free energy of the ion-electron system (eV)
  ---------------------------------------------------
  alpha Z        PSCENC =       532.25742704
  Ewald energy   TEWEN  =     -8601.05107233
  -Hartree energ DENC   =     -1669.06927456
  -exchange      EXHF   =         0.00000000
  -V(xc)+E(xc)   XCENC  =      -667.01321002
  PAW double counting   =     13971.29362369   -13140.76456424
  entropy T*S    EENTRO =         0.00541208
  eigenvalues    EBANDS =       875.67712841
  atomic energy  EATOM  =      8465.11600846
  ---------------------------------------------------
  free energy    TOTEN  =      -233.54892153 eV

  energy without entropy =     -233.55433361  energy(sigma->0) =     -233.55072556


--------------------------------------------------------------------------------------------------------




--------------------------------------- Iteration      1(  15)  ---------------------------------------


    POTLOK:  cpu time    0.2478: real time    0.2478
    SETDIJ:  cpu time    0.3243: real time    0.3244
    TRIAL :  cpu time    9.1598: real time    9.1865
    CORREC:  cpu time    3.3829: real time    3.4303
    CHARGE:  cpu time    1.0721: real time    1.0926
    --------------------------------------------
      LOOP:  cpu time   14.1935: real time   14.2887

 eigenvalue-minimisations  :     0
 total energy-change (2. order) :-0.6089565E+00  (-0.7554293E+00)
 number of electron     179.9999996 magnetization       4.2659605
 augmentation part       57.5017473 magnetization       2.9230771

 Free energy of the ion-electron system (eV)
  ---------------------------------------------------
  alpha Z        PSCENC =       532.25742704
  Ewald energy   TEWEN  =     -8601.05107233
  -Hartree energ DENC   =     -1646.29985761
  -exchange      EXHF   =         0.00000000
  -V(xc)+E(xc)   XCENC  =      -667.78998189
  PAW double counting   =     13614.16630166   -12777.43589080
  entropy T*S    EENTRO =         0.01139138
  eigenvalues    EBANDS =       846.87377539
  atomic energy  EATOM  =      8465.11600846
  ---------------------------------------------------
  free energy    TOTEN  =      -234.15787800 eV

  energy without entropy =     -234.16926938  energy(sigma->0) =     -234.16167513


--------------------------------------------------------------------------------------------------------




--------------------------------------- Iteration      1(  16)  ---------------------------------------


    POTLOK:  cpu time    0.2503: real time    0.2896
    SETDIJ:  cpu time    0.3127: real time    0.3129
    TRIAL :  cpu time    9.1350: real time    9.2183
    CORREC:  cpu time    3.3616: real time    3.4550
    CHARGE:  cpu time    1.1028: real time    1.1050
    --------------------------------------------
      LOOP:  cpu time   14.1674: real time   14.3864

 eigenvalue-minimisations  :     0
 total energy-change (2. order) :-0.7483763E+00  (-0.2477013E+00)
 number of electron     179.9999996 magnetization       4.2040630
 augmentation part       57.9306843 magnetization       2.8975691

 Free energy of the ion-electron system (eV)
  ---------------------------------------------------
  alpha Z        PSCENC =       532.25742704
  Ewald energy   TEWEN  =     -8601.05107233
  -Hartree energ DENC   =     -1648.42904395
  -exchange      EXHF   =         0.00000000
  -V(xc)+E(xc)   XCENC  =      -667.58425776
  PAW double counting   =     13150.53544855   -12313.71833022
  entropy T*S    EENTRO =         0.01244859
  eigenvalues    EBANDS =       847.95617455
  atomic energy  EATOM  =      8465.11600846
  ---------------------------------------------------
  free energy    TOTEN  =      -234.90625429 eV

  energy without entropy =     -234.91870288  energy(sigma->0) =     -234.91040382


--------------------------------------------------------------------------------------------------------




--------------------------------------- Iteration      1(  17)  ---------------------------------------


    POTLOK:  cpu time    0.2481: real time    0.2486
    SETDIJ:  cpu time    0.3237: real time    0.3238
    TRIAL :  cpu time    9.9431: real time   10.0591
    CORREC:  cpu time    3.4335: real time    3.4727
    CHARGE:  cpu time    1.3902: real time    1.4061
    --------------------------------------------
      LOOP:  cpu time   15.3423: real time   15.5141

 eigenvalue-minimisations  :     0
 total energy-change (2. order) :-0.2466269E+00  (-0.1570447E+00)
 number of electron     179.9999996 magnetization       4.1712912
 augmentation part       58.2318690 magnetization       2.8960175

 Free energy of the ion-electron system (eV)
  ---------------------------------------------------
  alpha Z        PSCENC =       532.25742704
  Ewald energy   TEWEN  =     -8601.05107233
  -Hartree energ DENC   =     -1666.21601200
  -exchange      EXHF   =         0.00000000
  -V(xc)+E(xc)   XCENC  =      -666.84581496
  PAW double counting   =     13037.94848823   -12205.19534284
  entropy T*S    EENTRO =         0.01453867
  eigenvalues    EBANDS =       868.82098859
  atomic energy  EATOM  =      8465.11600846
  ---------------------------------------------------
  free energy    TOTEN  =      -235.15288122 eV

  energy without entropy =     -235.16741988  energy(sigma->0) =     -235.15772744


--------------------------------------------------------------------------------------------------------




--------------------------------------- Iteration      1(  18)  ---------------------------------------


    POTLOK:  cpu time    0.2463: real time    0.2464
    SETDIJ:  cpu time    0.3217: real time    0.3223
    TRIAL :  cpu time    9.1295: real time    9.2212
    CORREC:  cpu time    3.4688: real time    3.4751
    CHARGE:  cpu time    1.1113: real time    1.1122
    --------------------------------------------
      LOOP:  cpu time   14.9972: real time   15.0980

 eigenvalue-minimisations  :     0
 total energy-change (2. order) :-0.1564856E+00  (-0.1856020E+00)
 number of electron     179.9999996 magnetization       4.1253441
 augmentation part       58.1973492 magnetization       2.8870371

 Free energy of the ion-electron system (eV)
  ---------------------------------------------------
  alpha Z        PSCENC =       532.25742704
  Ewald energy   TEWEN  =     -8601.05107233
  -Hartree energ DENC   =     -1678.91472640
  -exchange      EXHF   =         0.00000000
  -V(xc)+E(xc)   XCENC  =      -666.25839192
  PAW double counting   =     12994.57925337   -12165.13280717
  entropy T*S    EENTRO =         0.01516219
  eigenvalues    EBANDS =       884.08040349
  atomic energy  EATOM  =      8465.11600846
  ---------------------------------------------------
  free energy    TOTEN  =      -235.30936679 eV

  energy without entropy =     -235.32452899  energy(sigma->0) =     -235.31442086


--------------------------------------------------------------------------------------------------------




--------------------------------------- Iteration      1(  19)  ---------------------------------------


    POTLOK:  cpu time    0.2482: real time    0.2487
    SETDIJ:  cpu time    0.3225: real time    0.3230
    TRIAL :  cpu time    9.1827: real time    9.2016
    CORREC:  cpu time    3.3572: real time    3.4089
    CHARGE:  cpu time    1.0895: real time    1.0905
    --------------------------------------------
      LOOP:  cpu time   14.2039: real time   14.2776

 eigenvalue-minimisations  :     0
 total energy-change (2. order) :-0.1852424E+00  (-0.7358347E-01)
 number of electron     179.9999996 magnetization       4.0998915
 augmentation part       58.0063476 magnetization       2.8782767

 Free energy of the ion-electron system (eV)
  ---------------------------------------------------
  alpha Z        PSCENC =       532.25742704
  Ewald energy   TEWEN  =     -8601.05107233
  -Hartree energ DENC   =     -1673.99525456
  -exchange      EXHF   =         0.00000000
  -V(xc)+E(xc)   XCENC  =      -666.22179353
  PAW double counting   =     12955.06780854   -12125.56695716
  entropy T*S    EENTRO =         0.01578777
  eigenvalues    EBANDS =       878.88406216
  atomic energy  EATOM  =      8465.11600846
  ---------------------------------------------------
  free energy    TOTEN  =      -235.49460920 eV

  energy without entropy =     -235.51039697  energy(sigma->0) =     -235.49987179


--------------------------------------------------------------------------------------------------------




--------------------------------------- Iteration      1(  20)  ---------------------------------------


    POTLOK:  cpu time    0.2485: real time    0.2549
    SETDIJ:  cpu time    0.3215: real time    0.3277
    TRIAL :  cpu time    9.1275: real time    9.2336
    CORREC:  cpu time    3.3851: real time    3.4023
    CHARGE:  cpu time    1.1470: real time    1.1540
    --------------------------------------------
      LOOP:  cpu time   14.2326: real time   14.3766

 eigenvalue-minimisations  :     0
 total energy-change (2. order) :-0.7288028E-01  (-0.5286972E-01)
 number of electron     179.9999996 magnetization       4.0665473
 augmentation part       57.8244268 magnetization       2.8627759

 Free energy of the ion-electron system (eV)
  ---------------------------------------------------
  alpha Z        PSCENC =       532.25742704
  Ewald energy   TEWEN  =     -8601.05107233
  -Hartree energ DENC   =     -1663.60846798
  -exchange      EXHF   =         0.00000000
  -V(xc)+E(xc)   XCENC  =      -666.51060781
  PAW double counting   =     12938.99748418   -12107.59529095
  entropy T*S    EENTRO =         0.01535797
  eigenvalues    EBANDS =       866.81124215
  atomic energy  EATOM  =      8465.11600846
  ---------------------------------------------------
  free energy    TOTEN  =      -235.56748947 eV

  energy without entropy =     -235.58284744  energy(sigma->0) =     -235.57260879


--------------------------------------------------------------------------------------------------------




--------------------------------------- Iteration      1(  21)  ---------------------------------------


    POTLOK:  cpu time    0.2478: real time    0.2479
    SETDIJ:  cpu time    0.3208: real time    0.3210
    TRIAL :  cpu time    9.9152: real time   10.0329
    CORREC:  cpu time    3.4299: real time    3.4586
    CHARGE:  cpu time    1.0909: real time    1.1100
    --------------------------------------------
      LOOP:  cpu time   15.0106: real time   15.1778

 eigenvalue-minimisations  :     0
 total energy-change (2. order) :-0.5284575E-01  (-0.6496763E-01)
 number of electron     179.9999996 magnetization       4.0523382
 augmentation part       57.7985731 magnetization       2.8612290

 Free energy of the ion-electron system (eV)
  ---------------------------------------------------
  alpha Z        PSCENC =       532.25742704
  Ewald energy   TEWEN  =     -8601.05107233
  -Hartree energ DENC   =     -1655.60474833
  -exchange      EXHF   =         0.00000000
  -V(xc)+E(xc)   XCENC  =      -666.73392599
  PAW double counting   =     12934.66469111   -12101.55851418
  entropy T*S    EENTRO =         0.01501411
  eigenvalues    EBANDS =       857.27444104
  atomic energy  EATOM  =      8465.11600846
  ---------------------------------------------------
  free energy    TOTEN  =      -235.62033522 eV

  energy without entropy =     -235.63534933  energy(sigma->0) =     -235.62533993


--------------------------------------------------------------------------------------------------------




--------------------------------------- Iteration      1(  22)  ---------------------------------------


    POTLOK:  cpu time    0.2625: real time    0.2728
    SETDIJ:  cpu time    1.1437: real time    1.1439
    TRIAL :  cpu time    9.1241: real time    9.2286
    CORREC:  cpu time    3.4194: real time    3.4241
    CHARGE:  cpu time    1.1269: real time    1.1273
    --------------------------------------------
      LOOP:  cpu time   15.0822: real time   15.2039

 eigenvalue-minimisations  :     0
 total energy-change (2. order) :-0.6486189E-01  (-0.3384388E-01)
 number of electron     179.9999996 magnetization       4.0190403
 augmentation part       57.9129541 magnetization       2.8494672

 Free energy of the ion-electron system (eV)
  ---------------------------------------------------
  alpha Z        PSCENC =       532.25742704
  Ewald energy   TEWEN  =     -8601.05107233
  -Hartree energ DENC   =     -1657.28061941
  -exchange      EXHF   =         0.00000000
  -V(xc)+E(xc)   XCENC  =      -666.59622922
  PAW double counting   =     12955.65789894   -12122.74255441
  entropy T*S    EENTRO =         0.01473665
  eigenvalues    EBANDS =       858.93892971
  atomic energy  EATOM  =      8465.11600846
  ---------------------------------------------------
  free energy    TOTEN  =      -235.68519711 eV

  energy without entropy =     -235.69993377  energy(sigma->0) =     -235.69010933


--------------------------------------------------------------------------------------------------------




--------------------------------------- Iteration      1(  23)  ---------------------------------------


    POTLOK:  cpu time    0.2482: real time    0.2483
    SETDIJ:  cpu time    0.3545: real time    0.3547
    TRIAL :  cpu time    9.1743: real time    9.1941
    CORREC:  cpu time    3.3769: real time    3.4331
    CHARGE:  cpu time    1.0857: real time    1.0862
    --------------------------------------------
[...]
  8.438  14.379   0.000   0.000  -0.000   0.001   0.001  -0.001
 14.379  24.504   0.001   0.000  -0.001   0.002   0.001  -0.002
  0.000   0.001   1.996  -0.000   0.000   5.748  -0.000   0.000
  0.000   0.000  -0.000   1.995   0.000  -0.000   5.747   0.000
 -0.000  -0.001   0.000   0.000   1.996   0.000   0.000   5.748
  0.001   0.002   5.748  -0.000   0.000  16.473  -0.000   0.001
  0.001   0.001  -0.000   5.747   0.000  -0.000  16.468   0.001
 -0.001  -0.002   0.000   0.000   5.748   0.001   0.001  16.473
 total augmentation occupancy for first ion, spin component:           1
  4.376  -1.251   0.001  -0.002   0.001   0.000   0.000  -0.001
 -1.251   0.377  -0.003   0.000   0.003   0.000  -0.000   0.000
  0.001  -0.003   1.413  -0.004  -0.007  -0.101   0.000   0.000
 -0.002   0.000  -0.004   1.506  -0.004   0.000  -0.102   0.000
  0.001   0.003  -0.007  -0.004   1.413   0.000   0.000  -0.101
  0.000   0.000  -0.101   0.000   0.000   0.008  -0.000  -0.000
  0.000  -0.000   0.000  -0.102   0.000  -0.000   0.007   0.000
 -0.001   0.000   0.000   0.000  -0.101  -0.000   0.000   0.008
 total augmentation occupancy for first ion, spin component:           2
 -0.022   0.006  -0.003  -0.056   0.001   0.000   0.002  -0.000
  0.006  -0.002  -0.000  -0.009   0.000   0.000   0.001   0.000
 -0.003  -0.000  -0.008   0.041   0.001   0.000  -0.001  -0.000
 -0.056  -0.009   0.041  -0.007  -0.040  -0.001   0.000   0.001
  0.001   0.000   0.001  -0.040  -0.011  -0.000   0.001   0.000
  0.000   0.000   0.000  -0.001  -0.000  -0.000  -0.000   0.000
  0.002   0.001  -0.001   0.000   0.001  -0.000  -0.000   0.000
 -0.000   0.000  -0.000   0.001   0.000   0.000   0.000  -0.000


------------------------ aborting loop because EDIFF is reached ----------------------------------------


 


 total charge     
 
# of ion       s       p       d       tot
------------------------------------------
    1        0.405   0.428   0.000   0.833
    2        0.405   0.428   0.000   0.832
    3        0.407   0.428   0.000   0.835
    4        0.407   0.428   0.000   0.835
    5        0.405   0.427   0.000   0.832
    6        0.405   0.428   0.000   0.832
    7        0.405   0.424   0.000   0.829
    8        0.405   0.424   0.000   0.829
    9        0.405   0.428   0.000   0.833
   10        0.405   0.428   0.000   0.833
   11        0.405   0.429   0.000   0.833
   12        0.405   0.429   0.000   0.833
   13        0.405   0.425   0.000   0.831
   14        0.405   0.425   0.000   0.831
   15        0.405   0.428   0.000   0.833
   16        0.405   0.428   0.000   0.833
   17        0.404   0.428   0.000   0.832
   18        0.404   0.428   0.000   0.832
   19        0.334   0.360   5.112   5.806
   20        0.331   0.358   5.134   5.823
   21        0.331   0.355   5.139   5.825
   22        0.327   0.353   5.160   5.839
   23        0.333   0.356   5.128   5.816
   24        0.335   0.356   5.122   5.813
   25        0.335   0.355   5.128   5.818
   26        0.334   0.353   5.133   5.820
   27        0.338   0.355   5.120   5.813
   28        0.337   0.359   5.113   5.809
   29        0.334   0.347   5.147   5.829
   30        0.335   0.357   5.130   5.821
   31        0.327   0.350   5.162   5.840
   32        0.330   0.356   5.138   5.824
   33        0.331   0.357   5.135   5.823
   34        0.334   0.360   5.116   5.809
   35        0.332   0.357   5.126   5.815
   36        0.336   0.354   5.125   5.815
--------------------------------------------------
tot         13.282  14.089  92.368 119.739
 


 magnetization (x)
 
# of ion       s       p       d       tot
------------------------------------------
    1       -0.003  -0.003   0.000  -0.006
    2       -0.003  -0.003   0.000  -0.006
    3        0.000   0.002   0.000   0.002
    4        0.001   0.002   0.000   0.003
    5        0.001   0.001   0.000   0.002
    6        0.001   0.001   0.000   0.002
    7       -0.008  -0.016   0.000  -0.024
    8       -0.009  -0.016   0.000  -0.025
    9       -0.001   0.001   0.000   0.001
   10       -0.000   0.001   0.000   0.001
   11       -0.000   0.001   0.000   0.001
   12       -0.000   0.002   0.000   0.001
   13       -0.009  -0.018   0.000  -0.027
   14       -0.009  -0.019   0.000  -0.027
   15       -0.001  -0.002   0.000  -0.003
   16       -0.001  -0.002   0.000  -0.003
   17       -0.001  -0.001   0.000  -0.002
   18       -0.001  -0.001   0.000  -0.001
   19        0.020   0.039   2.472   2.531
   20       -0.026  -0.038  -2.161  -2.224
   21       -0.016  -0.038  -2.036  -2.090
   22        0.031   0.042   1.701   1.773
   23        0.012   0.020   2.344   2.376
   24       -0.022  -0.020  -2.455  -2.498
   25        0.028   0.023   2.376   2.427
   26        0.025   0.011   2.408   2.444
   27       -0.035  -0.014  -2.596  -2.644
   28       -0.038  -0.027  -2.521  -2.585
   29        0.021   0.006   2.299   2.326
   30        0.031   0.028   2.238   2.297
   31       -0.027  -0.040  -1.696  -1.763
   32        0.020   0.041   2.068   2.129
   33        0.030   0.041   2.181   2.251
   34       -0.016  -0.035  -2.404  -2.455
   35        0.012   0.019   2.321   2.352
   36       -0.023  -0.022  -2.491  -2.536
--------------------------------------------------
tot         -0.012  -0.037   4.050   4.001
 
    FORLOC:  cpu time    0.0286: real time    0.0286
    FORNL :  cpu time   13.1601: real time   13.2277
    STRESS:  cpu time   18.1338: real time   18.2922
    FORCOR:  cpu time    0.2712: real time    0.2712
    OFIELD:  cpu time    0.0017: real time    0.0017

  FORCE on cell =-STRESS in cart. coord.  units (eV):
  Direction    XX          YY          ZZ          XY          YZ          ZX
  --------------------------------------------------------------------------------------
  Alpha Z   532.25743   532.25743   532.25743
  Ewald   -2702.40749 -2702.40749 -3196.26924    -0.00000    -0.00000    -0.00000
  Hartree   721.09186   720.05255   225.28015    -0.07455    -0.00000    -0.00000
  E(xc)    -759.88043  -759.63312  -760.12778     0.03917    -0.00000    -0.00000
  Local     248.03542   250.92178  1262.12766     0.22887    -0.00000    -0.00000
  n-local  -109.63358  -108.73381  -123.83698    -0.35076    -0.10863    -0.13856
  augment   520.74421   519.66808   515.77396     0.00289     0.00001     0.00001
  Kinetic  1557.08711  1554.87008  1542.49901    -0.14886     0.27784    -0.04948
  Fock        0.00000     0.00000     0.00000     0.00000     0.00000     0.00000
  -------------------------------------------------------------------------------------
  Total       7.29453     6.99550    -2.29580    -0.30323     0.00000     0.00000
  in kB      24.69419    23.68188    -7.77199    -1.02653     0.00000     0.00000
  external pressure =       13.53 kB  Pullay stress =        0.00 kB


 VOLUME and BASIS-vectors are now :
 -----------------------------------------------------------------------------
  energy-cutoff  :      404.80
  volume of cell :      473.27
      direct lattice vectors                 reciprocal lattice vectors
     8.250148166  0.000000000  0.000000000     0.121209944  0.000000000  0.000000000
     0.000000000  8.250148166  0.000000000     0.000000000  0.121209944  0.000000000
     0.000000000  0.000000000  6.953274261     0.000000000  0.000000000  0.143817137

  length of vectors
     8.250148166  8.250148166  6.953274261     0.121209944  0.121209944  0.143817137


 FORCES acting on ions:
    Electron-Ion                     Ewald-Force                    Non-Local-Force
 -----------------------------------------------------------------------------------------------
   0.217E+00 -.160E+00 0.136E-01   -.239E-08 -.239E-08 0.411E-08   -.932E-01 0.708E-01 0.354E-01
   0.217E+00 -.160E+00 -.136E-01   -.239E-08 -.239E-08 0.411E-08   -.932E-01 0.708E-01 -.354E-01
   -.262E-01 0.110E-01 -.712E-02   -.239E-08 -.802E-09 0.411E-08   0.718E-02 0.647E-02 -.638E-02
   -.262E-01 0.110E-01 0.712E-02   -.239E-08 -.802E-09 0.411E-08   0.718E-02 0.647E-02 0.638E-02
   -.258E+00 0.152E+00 0.209E-01   -.239E-08 0.631E-08 0.411E-08   0.114E+00 -.765E-01 -.356E-01
   -.258E+00 0.152E+00 -.209E-01   -.239E-08 0.631E-08 0.411E-08   0.114E+00 -.765E-01 0.356E-01
   -.120E+00 0.187E-01 -.473E-01   -.802E-09 -.239E-08 0.411E-08   0.126E+00 0.132E-01 0.838E-01
   -.120E+00 0.187E-01 0.473E-01   -.802E-09 -.239E-08 0.411E-08   0.126E+00 0.132E-01 -.838E-01
   0.280E-01 0.201E-03 0.107E+00   -.802E-09 -.802E-09 0.411E-08   -.213E-01 0.678E-01 -.820E-01
   0.280E-01 0.201E-03 -.107E+00   -.802E-09 -.802E-09 0.411E-08   -.213E-01 0.678E-01 0.820E-01
   0.118E+00 -.323E-01 0.104E+00   -.802E-09 0.631E-08 0.411E-08   -.536E-01 -.833E-01 -.368E-01
   0.118E+00 -.323E-01 -.104E+00   -.802E-09 0.631E-08 0.411E-08   -.536E-01 -.833E-01 0.368E-01
   -.866E-01 0.815E-01 -.120E-01   0.631E-08 -.239E-08 0.411E-08   -.498E-01 0.408E-01 0.391E-01
   -.866E-01 0.815E-01 0.120E-01   0.631E-08 -.239E-08 0.411E-08   -.498E-01 0.408E-01 -.391E-01
   -.151E-01 -.141E+00 -.909E-01   0.631E-08 -.802E-09 0.411E-08   0.278E-01 0.503E-01 0.356E-01
   -.151E-01 -.141E+00 0.909E-01   0.631E-08 -.802E-09 0.411E-08   0.278E-01 0.503E-01 -.356E-01
   0.112E+00 0.587E-01 0.528E-01   0.631E-08 0.631E-08 0.411E-08   -.383E-01 -.722E-01 -.131E-01
   0.112E+00 0.587E-01 -.528E-01   0.631E-08 0.631E-08 0.411E-08   -.383E-01 -.722E-01 0.131E-01
   0.604E+00 -.650E+00 0.404E-09   -.169E-07 -.169E-07 -.411E-08   -.434E+00 0.349E+00 0.000E+00
   0.449E+00 -.493E+00 -.351E-08   -.169E-07 -.169E-07 -.411E-08   -.446E+00 0.259E+00 0.000E+00
   0.623E+00 0.747E-01 0.153E-08   -.169E-07 0.802E-09 -.411E-08   -.312E+00 -.163E+00 0.000E+00
   0.450E+00 0.136E-01 -.542E-08   -.169E-07 0.802E-09 -.411E-08   -.366E+00 -.945E-01 0.000E+00
   -.176E+00 0.575E+00 -.120E-08   -.169E-07 0.130E-07 -.411E-08   0.171E+00 -.324E+00 0.000E+00
   -.272E+00 0.459E+00 -.237E-08   -.169E-07 0.130E-07 -.411E-08   0.127E+00 -.296E+00 0.000E+00
   -.431E+00 -.426E+00 -.501E-10   0.802E-09 -.169E-07 -.411E-08   0.208E+00 0.186E+00 0.000E+00
   0.429E+00 -.357E+00 -.381E-08   0.802E-09 -.169E-07 -.411E-08   -.223E+00 0.200E+00 0.000E+00
   -.482E+00 0.442E-01 0.111E-08   0.802E-09 0.802E-09 -.411E-08   0.211E+00 -.117E+00 0.000E+00
   0.436E+00 -.799E-01 -.567E-08   0.802E-09 0.802E-09 -.411E-08   -.192E+00 0.112E+00 0.000E+00
   0.867E-01 0.339E+00 -.170E-08   0.802E-09 0.130E-07 -.411E-08   -.877E-01 -.200E+00 0.000E+00
   -.491E-01 0.515E+00 -.253E-08   0.802E-09 0.130E-07 -.411E-08   0.701E-02 -.221E+00 0.000E+00
   -.327E+00 0.139E+00 -.137E-08   0.130E-07 -.169E-07 -.411E-08   0.297E+00 -.241E-01 0.000E+00
   -.719E+00 -.758E-01 -.349E-08   0.130E-07 -.169E-07 -.411E-08   0.445E+00 0.836E-01 0.000E+00
   -.474E+00 0.602E+00 -.310E-09   0.130E-07 0.802E-09 -.411E-08   0.422E+00 -.296E+00 0.000E+00
   -.564E+00 0.675E+00 -.550E-08   0.130E-07 0.802E-09 -.411E-08   0.424E+00 -.421E+00 0.000E+00
   0.280E-01 -.617E+00 -.312E-08   0.130E-07 0.130E-07 -.411E-08   0.374E-01 0.473E+00 0.000E+00
   0.462E+00 -.765E+00 -.230E-08   0.130E-07 0.130E-07 -.411E-08   -.333E+00 0.517E+00 0.000E+00
 -----------------------------------------------------------------------------------------------
   0.735E-02 -.571E-01 -.754E-07   -.197E-14 0.275E-13 0.265E-14   -.738E-02 0.571E-01 0.000E+00
 
 
 POSITION                                       TOTAL-FORCE (eV/Angst)
 -----------------------------------------------------------------------------------
      0.00000      0.00000      0.00000         0.132174     -0.095153      0.046054
      0.00000      0.00000      3.47664         0.132174     -0.095153     -0.046054
      0.00000      2.75005      0.00000        -0.019796      0.017091     -0.013081
      0.00000      2.75005      3.47664        -0.019796      0.017091      0.013081
      0.00000      5.50010      0.00000        -0.153846      0.080953     -0.011947
      0.00000      5.50010      3.47664        -0.153846      0.080953      0.011947
      2.75005      0.00000      0.00000        -0.006823      0.031332      0.028337
      2.75005      0.00000      3.47664        -0.006823      0.031332     -0.028337
      2.75005      2.75005      0.00000         0.006805      0.062501      0.031503
      2.75005      2.75005      3.47664         0.006805      0.062501     -0.031503
      2.75005      5.50010      0.00000         0.068006     -0.109720      0.069516
      2.75005      5.50010      3.47664         0.068006     -0.109720     -0.069516
      5.50010      0.00000      0.00000        -0.130975      0.120054      0.023301
      5.50010      0.00000      3.47664        -0.130975      0.120054     -0.023301
      5.50010      2.75005      0.00000         0.012102     -0.095849     -0.058442
      5.50010      2.75005      3.47664         0.012102     -0.095849      0.058442
      5.50010      5.50010      0.00000         0.078332     -0.007560      0.040482
      5.50010      5.50010      3.47664         0.078332     -0.007560     -0.040482
      1.37502      1.37502      1.73832         0.178184     -0.311733      0.000000
      1.37502      1.37502      5.21496         0.008545     -0.240021      0.000000
      1.37502      4.12507      1.73832         0.317746     -0.091161      0.000000
      1.37502      4.12507      5.21496         0.095104     -0.083254      0.000000
      1.37502      6.87512      1.73832        -0.007616      0.262568      0.000000
      1.37502      6.87512      5.21496        -0.146604      0.170585      0.000000
      4.12507      1.37502      1.73832        -0.235084     -0.246762      0.000000
      4.12507      1.37502      5.21496         0.217830     -0.160170      0.000000
      4.12507      4.12507      1.73832        -0.285171     -0.074026      0.000000
      4.12507      4.12507      5.21496         0.256728      0.029441      0.000000
      4.12507      6.87512      1.73832        -0.001070      0.143307      0.000000
      4.12507      6.87512      5.21496        -0.042689      0.302774      0.000000
      6.87512      1.37502      1.73832        -0.033209      0.121964      0.000000
      6.87512      1.37502      5.21496        -0.285611      0.006622      0.000000
      6.87512      4.12507      1.73832        -0.063361      0.315759      0.000000
      6.87512      4.12507      5.21496        -0.145925      0.264096      0.000000
      6.87512      6.87512      1.73832         0.065645     -0.154450      0.000000
      6.87512      6.87512      5.21496         0.134598     -0.262834      0.000000
 -----------------------------------------------------------------------------------
    total drift:                               -0.000023     -0.000028     -0.000000


--------------------------------------------------------------------------------------------------------



  FREE ENERGIE OF THE ION-ELECTRON SYSTEM (eV)
  ---------------------------------------------------
  free  energy   TOTEN  =      -235.83083524 eV

  energy  without entropy=     -235.84906945  energy(sigma->0) =     -235.83691331
 


--------------------------------------------------------------------------------------------------------


    POTLOK:  cpu time    0.5680: real time    0.5680


--------------------------------------------------------------------------------------------------------


     LOOP+:  cpu time 1205.3299: real time 1215.6330
    4ORBIT:  cpu time    0.0000: real time    0.0000
 


 total charge     
 
# of ion       s       p       d       tot
------------------------------------------
    1        0.405   0.428   0.000   0.833
    2        0.405   0.428   0.000   0.832
    3        0.407   0.428   0.000   0.835
    4        0.407   0.428   0.000   0.835
    5        0.405   0.427   0.000   0.832
    6        0.405   0.428   0.000   0.832
    7        0.405   0.424   0.000   0.829
    8        0.405   0.424   0.000   0.829
    9        0.405   0.428   0.000   0.833
   10        0.405   0.428   0.000   0.833
   11        0.405   0.429   0.000   0.833
   12        0.405   0.429   0.000   0.833
   13        0.405   0.425   0.000   0.831
   14        0.405   0.425   0.000   0.831
   15        0.405   0.428   0.000   0.833
   16        0.405   0.428   0.000   0.833
   17        0.404   0.428   0.000   0.832
   18        0.404   0.428   0.000   0.832
   19        0.334   0.360   5.112   5.806
   20        0.331   0.358   5.134   5.823
   21        0.331   0.355   5.139   5.825
   22        0.327   0.353   5.160   5.839
   23        0.333   0.356   5.128   5.816
   24        0.335   0.356   5.122   5.813
   25        0.335   0.355   5.128   5.818
   26        0.334   0.353   5.133   5.820
   27        0.338   0.355   5.120   5.813
   28        0.337   0.359   5.113   5.809
   29        0.334   0.347   5.147   5.829
   30        0.335   0.357   5.130   5.821
   31        0.327   0.350   5.162   5.840
   32        0.330   0.356   5.138   5.824
   33        0.331   0.357   5.135   5.823
   34        0.334   0.360   5.116   5.809
   35        0.332   0.357   5.126   5.815
   36        0.336   0.354   5.125   5.815
--------------------------------------------------
tot         13.282  14.089  92.368 119.739
 


 magnetization (x)
 
# of ion       s       p       d       tot
------------------------------------------
    1       -0.003  -0.003   0.000  -0.006
    2       -0.003  -0.003   0.000  -0.006
    3        0.000   0.002   0.000   0.002
    4        0.001   0.002   0.000   0.003
    5        0.001   0.001   0.000   0.002
    6        0.001   0.001   0.000   0.002
    7       -0.008  -0.016   0.000  -0.024
    8       -0.009  -0.016   0.000  -0.025
    9       -0.001   0.001   0.000   0.001
   10       -0.000   0.001   0.000   0.001
   11       -0.000   0.001   0.000   0.001
   12       -0.000   0.002   0.000   0.001
   13       -0.009  -0.018   0.000  -0.027
   14       -0.009  -0.019   0.000  -0.027
   15       -0.001  -0.002   0.000  -0.003
   16       -0.001  -0.002   0.000  -0.003
   17       -0.001  -0.001   0.000  -0.002
   18       -0.001  -0.001   0.000  -0.001
   19        0.020   0.039   2.472   2.531
   20       -0.026  -0.038  -2.161  -2.224
   21       -0.016  -0.038  -2.036  -2.090
   22        0.031   0.042   1.701   1.773
   23        0.012   0.020   2.344   2.376
   24       -0.022  -0.020  -2.455  -2.498
   25        0.028   0.023   2.376   2.427
   26        0.025   0.011   2.408   2.444
   27       -0.035  -0.014  -2.596  -2.644
   28       -0.038  -0.027  -2.521  -2.585
   29        0.021   0.006   2.299   2.326
   30        0.031   0.028   2.238   2.297
   31       -0.027  -0.040  -1.696  -1.763
   32        0.020   0.041   2.068   2.129
   33        0.030   0.041   2.181   2.251
   34       -0.016  -0.035  -2.404  -2.455
   35        0.012   0.019   2.321   2.352
   36       -0.023  -0.022  -2.491  -2.536
--------------------------------------------------
tot         -0.012  -0.037   4.050   4.001
 

 total amount of memory used by VASP MPI-rank0   751840. kBytes
=======================================================================

   base      :      30000. kBytes
   nonl-proj :      34307. kBytes
   fftplans  :      21726. kBytes
   grid      :      14732. kBytes
   one-center:        279. kBytes
   wavefun   :     650796. kBytes
 
  
  
 General timing and accounting informations for this job:
 ========================================================
  
                  Total CPU time used (sec):     1231.554
                            User time (sec):     1209.080
                          System time (sec):       22.474
                         Elapsed time (sec):     1244.906
  
                   Maximum memory used (kb):      889884.
                   Average memory used (kb):           0.
  
                          Minor page faults:       570521
                          Major page faults:           17
                 Voluntary context switches:         4474
