 vasp.5.4.4.18Apr17-6-g9f103f2a35 (build Dec 13 2018 10:28:32) complex          
  
 executed on             LinuxIFC date 2019.05.21  08:49:53
 running on   96 total cores
 distrk:  each k-point on   96 cores,    1 groups
 distr:  one band on NCORES_PER_BAND=  24 cores,    4 groups


--------------------------------------------------------------------------------------------------------


 INCAR:
 POTCAR:   PAW_PBE F 08Apr2002                    
 POTCAR:   PAW_PBE Ni 06Sep2000                   
 POTCAR:   PAW_PBE Cs_sv 08Apr2002                

 ----------------------------------------------------------------------------- 
|                                                                             |
|           W    W    AA    RRRRR   N    N  II  N    N   GGGG   !!!           |
|           W    W   A  A   R    R  NN   N  II  NN   N  G    G  !!!           |
|           W    W  A    A  R    R  N N  N  II  N N  N  G       !!!           |
|           W WW W  AAAAAA  RRRRR   N  N N  II  N  N N  G  GGG   !            |
|           WW  WW  A    A  R   R   N   NN  II  N   NN  G    G                |
|           W    W  A    A  R    R  N    N  II  N    N   GGGG   !!!           |
|                                                                             |
|      For optimal performance we recommend to set                            |
|        NCORE= 4 - approx SQRT( number of cores)                             |
|      NCORE specifies how many cores store one orbital (NPAR=cpu/NCORE).     |
|      This setting can  greatly improve the performance of VASP for DFT.     |
|      The default,   NCORE=1            might be grossly inefficient         |
|      on modern multi-core architectures or massively parallel machines.     |
|      Do your own testing !!!!                                               |
|      Unfortunately you need to use the default for GW and RPA calculations. |
|      (for HF NCORE is supported but not extensively tested yet)             |
|                                                                             |
 ----------------------------------------------------------------------------- 

 POTCAR:   PAW_PBE F 08Apr2002                    
   VRHFIN =F: s2p5                                                              
   LEXCH  = PE                                                                  
   EATOM  =   659.4942 eV,   48.4715 Ry                                         
                                                                                
   TITEL  = PAW_PBE F 08Apr2002                                                 
   LULTRA =        F    use ultrasoft PP ?                                      
   IUNSCR =        0    unscreen: 0-lin 1-nonlin 2-no                           
   RPACOR =     .000    partial core radius                                     
   POMASS =   18.998; ZVAL   =    7.000    mass and valenz                      
   RCORE  =    1.520    outmost cutoff radius                                   
   RWIGS  =    1.500; RWIGS  =     .794    wigner-seitz radius (au A)           
   ENMAX  =  400.000; ENMIN  =  300.000 eV                                      
   ICORE  =        2    local potential                                         
   LCOR   =        T    correct aug charges                                     
   LPAW   =        T    paw PP                                                  
   EAUG   =  613.614                                                            
   DEXC   =     .000                                                            
   RMAX   =    2.254    core radius for proj-oper                               
   RAUG   =    1.300    factor for augmentation sphere                          
   RDEP   =    1.539    radius for radial grids                                 
   QCUT   =   -5.545; QGAM   =   11.091    optimization parameters              
                                                                                
   Description                                                                  
     l     E      TYP  RCUT    TYP  RCUT                                        
     0   .000     23  1.200                                                     
     0  -.700     23  1.200                                                     
     1   .000     23  1.520                                                     
     1   .100     23  1.520                                                     
     2   .000      7  1.500                                                     
  local pseudopotential read in
  atomic valenz-charges read in
  non local Contribution for L=           0  read in
    real space projection operators read in
  non local Contribution for L=           0  read in
    real space projection operators read in
  non local Contribution for L=           1  read in
    real space projection operators read in
  non local Contribution for L=           1  read in
    real space projection operators read in
    PAW grid and wavefunctions read in
 
   number of l-projection  operators is LMAX  =           4
   number of lm-projection operators is LMMAX =           8
 
 POTCAR:   PAW_PBE Ni 06Sep2000                   
   VRHFIN =Ni:                                                                  
   LEXCH  = PE                                                                  
   EATOM  =  1077.9025 eV,   79.2236 Ry                                         
                                                                                
   TITEL  = PAW_PBE Ni 06Sep2000                                                
   LULTRA =        F    use ultrasoft PP ?                                      
   IUNSCR =        1    unscreen: 0-lin 1-nonlin 2-no                           
   RPACOR =    2.000    partial core radius                                     
   POMASS =   58.690; ZVAL   =   10.000    mass and valenz                      
   RCORE  =    2.300    outmost cutoff radius                                   
   RWIGS  =    2.430; RWIGS  =    1.286    wigner-seitz radius (au A)           
   ENMAX  =  269.533; ENMIN  =  202.150 eV                                      
   RCLOC  =    1.681    cutoff for local pot                                    
   LCOR   =        T    correct aug charges                                     
   LPAW   =        T    paw PP                                                  
   EAUG   =  544.565                                                            
   DEXC   =    -.009                                                            
   RMAX   =    2.808    core radius for proj-oper                               
   RAUG   =    1.300    factor for augmentation sphere                          
   RDEP   =    2.390    radius for radial grids                                 
   QCUT   =   -4.451; QGAM   =    8.902    optimization parameters              
                                                                                
   Description                                                                  
     l     E      TYP  RCUT    TYP  RCUT                                        
     2   .000     23  2.300                                                     
     2   .000     23  2.300                                                     
     0   .000     23  2.300                                                     
     0   .000     23  2.300                                                     
     1  -.200     23  2.300                                                     
     1   .000     23  2.300                                                     
     3   .000      7   .000                                                     
  local pseudopotential read in
  partial core-charges read in
  atomic valenz-charges read in
  non local Contribution for L=           2  read in
    real space projection operators read in
  non local Contribution for L=           2  read in
    real space projection operators read in
  non local Contribution for L=           0  read in
    real space projection operators read in
  non local Contribution for L=           0  read in
    real space projection operators read in
  non local Contribution for L=           1  read in
    real space projection operators read in
  non local Contribution for L=           1  read in
    real space projection operators read in
    PAW grid and wavefunctions read in
 
   number of l-projection  operators is LMAX  =           6
   number of lm-projection operators is LMMAX =          18
 
 POTCAR:   PAW_PBE Cs_sv 08Apr2002                
   VRHFIN =Cs: 5s5p6s                                                           
   LEXCH  = PE                                                                  
   EATOM  =   555.6835 eV,   40.8416 Ry                                         
                                                                                
   TITEL  = PAW_PBE Cs_sv 08Apr2002                                             
   LULTRA =        F    use ultrasoft PP ?                                      
   IUNSCR =        1    unscreen: 0-lin 1-nonlin 2-no                           
   RPACOR =    2.200    partial core radius                                     
   POMASS =  132.900; ZVAL   =    9.000    mass and valenz                      
   RCORE  =    2.500    outmost cutoff radius                                   
   RWIGS  =    2.500; RWIGS  =    1.323    wigner-seitz radius (au A)           
   ENMAX  =  220.318; ENMIN  =  165.238 eV                                      
   RCLOC  =    2.207    cutoff for local pot                                    
   LCOR   =        T    correct aug charges                                     
   LPAW   =        T    paw PP                                                  
   EAUG   =  407.933                                                            
   DEXC   =    -.004                                                            
   RMAX   =    3.106    core radius for proj-oper                               
   RAUG   =    1.300    factor for augmentation sphere                          
   RDEP   =    2.590    radius for radial grids                                 
   QCUT   =   -4.024; QGAM   =    8.048    optimization parameters              
                                                                                
   Description                                                                  
     l     E      TYP  RCUT    TYP  RCUT                                        
     0   .000     23  1.900                                                     
     0   .000     23  1.900                                                     
     0   .000     23  1.900                                                     
     0   .000     23  1.900                                                     
     1   .000     23  2.500                                                     
     1  -.200     23  2.500                                                     
     2   .000     23  2.500                                                     
  local pseudopotential read in
  partial core-charges read in
  atomic valenz-charges read in
  non local Contribution for L=           0  read in
    real space projection operators read in
  non local Contribution for L=           0  read in
    real space projection operators read in
  non local Contribution for L=           1  read in
    real space projection operators read in
  non local Contribution for L=           1  read in
    real space projection operators read in
  non local Contribution for L=           2  read in
    real space projection operators read in
    PAW grid and wavefunctions read in
 
   number of l-projection  operators is LMAX  =           5
   number of lm-projection operators is LMMAX =          13
 
 PAW_PBE F 08Apr2002                    :
 energy of atom  1       EATOM= -659.4942
 kinetic energy error for atom=    0.0323 (will be added to EATOM!!)
 PAW_PBE Ni 06Sep2000                   :
 energy of atom  2       EATOM=-1077.9025
 kinetic energy error for atom=    0.0030 (will be added to EATOM!!)
 PAW_PBE Cs_sv 08Apr2002                :
 energy of atom  3       EATOM= -555.6835
 kinetic energy error for atom=    0.0016 (will be added to EATOM!!)
 
 
 POSCAR: For VASP. System= small                 
  positions in cartesian coordinates
  velocities in cartesian coordinates
  No initial velocities read in
 exchange correlation table for  LEXCH =        8
   RHO(1)=    0.500       N(1)  =     2000
   RHO(2)=  100.500       N(2)  =     4000
 


--------------------------------------------------------------------------------------------------------


 ion  position               nearest neighbor table
   1  0.570  0.640  0.250-  32 2.04  28 2.04
   2  0.070  0.640  0.250-  31 2.04  27 2.04
   3  0.570  0.140  0.250-  30 2.04  26 2.04
   4  0.070  0.140  0.250-  29 2.04  25 2.04
   5  0.860  0.930  0.250-  29 2.04  25 2.04
   6  0.360  0.930  0.250-  30 2.04  26 2.04
   7  0.860  0.430  0.250-  31 2.04  27 2.04
   8  0.360  0.430  0.250-  32 2.04  28 2.04
   9  0.570  0.930  0.250-  30 2.04  26 2.04
  10  0.070  0.930  0.250-  29 2.04  25 2.04
  11  0.570  0.430  0.250-  32 2.04  28 2.04
  12  0.070  0.430  0.250-  31 2.04  27 2.04
  13  0.930  0.860  0.750-  25 2.04  29 2.04
  14  0.430  0.860  0.750-  26 2.04  30 2.04
  15  0.930  0.360  0.750-  27 2.04  31 2.04
  16  0.430  0.360  0.750-  28 2.04  32 2.04
  17  0.640  0.570  0.750-  28 2.04  32 2.04
  18  0.140  0.570  0.750-  27 2.04  31 2.04
  19  0.640  0.070  0.750-  26 2.04  30 2.04
  20  0.140  0.070  0.750-  25 2.04  29 2.04
  21  0.930  0.570  0.750-  27 2.04  31 2.04
  22  0.430  0.570  0.750-  28 2.04  32 2.04
  23  0.930  0.070  0.750-  25 2.04  29 2.04
  24  0.430  0.070  0.750-  26 2.04  30 2.04
  25  0.000  0.000  0.000-  20 2.04   5 2.04   4 2.04  13 2.04  23 2.04  10 2.04  29 2.66  29 2.66

  26  0.500  0.000  0.000-  19 2.04   6 2.04   3 2.04  14 2.04  24 2.04   9 2.04  30 2.66  30 2.66

  27  1.000  0.500  0.000-  18 2.04   7 2.04  15 2.04   2 2.04  21 2.04  12 2.04  31 2.66  31 2.66

  28  0.500  0.500  0.000-  17 2.04   8 2.04  16 2.04   1 2.04  22 2.04  11 2.04  32 2.66  32 2.66

  29  0.000  0.000  0.500-   5 2.04  20 2.04   4 2.04  13 2.04  10 2.04  23 2.04  25 2.66  25 2.66

  30  0.500  0.000  0.500-   6 2.04  19 2.04   3 2.04  14 2.04   9 2.04  24 2.04  26 2.66  26 2.66

  31  1.000  0.500  0.500-   7 2.04  18 2.04   2 2.04  15 2.04  12 2.04  21 2.04  27 2.66  27 2.66

  32  0.500  0.500  0.500-   8 2.04  17 2.04   1 2.04  16 2.04  11 2.04  22 2.04  28 2.66  28 2.66

  33  0.667  0.833  0.750-
  34  0.167  0.833  0.750-
  35  0.667  0.333  0.750-
  36  0.167  0.333  0.750-
  37  0.833  0.667  0.250-
  38  0.333  0.667  0.250-
  39  0.833  0.167  0.250-
  40  0.333  0.167  0.250-
 
  LATTYP: Found a hexagonal cell.
 ALAT       =    12.7752670119
 C/A-ratio  =     0.4167528495
  
  Lattice vectors:
  
 A1 = (   6.3876227840,  11.0637119627,   0.0000000000)
 A2 = (   6.3876227840, -11.0637119627,   0.0000000000)
 A3 = (   0.0000000000,   0.0000000000,  -5.3241289298)


Analysis of symmetry for initial positions (statically):
=====================================================================
 Subroutine PRICEL returns following result:
 
  LATTYP: Found a hexagonal cell.
 ALAT       =     6.3876335059
 C/A-ratio  =     0.8335056989
  
  Lattice vectors:
  
 A1 = (   3.1938113920,   5.5318559813,   0.0000000000)
 A2 = (   3.1938113920,  -5.5318559813,   0.0000000000)
 A3 = (   0.0000000000,   0.0000000000,  -5.3241289298)
 
   4 primitive cells build up your supercell.
 

 Routine SETGRP: Setting up the symmetry group for a 
 hexagonal supercell.


 Subroutine GETGRP returns: Found  8 space group operations
 (whereof  4 operations were pure point group operations)
 out of a pool of 24 trial point group operations.


The static configuration has the point symmetry C_2h.
 The point group associated with its full space group is D_2h.


Analysis of symmetry for dynamics (positions and initial velocities):
=====================================================================
 Subroutine PRICEL returns following result:
 
  LATTYP: Found a hexagonal cell.
 ALAT       =     6.3876335059
 C/A-ratio  =     0.8335056989
  
  Lattice vectors:
  
 A1 = (   3.1938113920,   5.5318559813,   0.0000000000)
 A2 = (   3.1938113920,  -5.5318559813,   0.0000000000)
 A3 = (   0.0000000000,   0.0000000000,  -5.3241289298)
 
   4 primitive cells build up your supercell.
 

 Routine SETGRP: Setting up the symmetry group for a 
 hexagonal supercell.


 Subroutine GETGRP returns: Found  8 space group operations
 (whereof  4 operations were pure point group operations)
 out of a pool of 24 trial point group operations.


The dynamic configuration has the point symmetry C_2h.
 The point group associated with its full space group is D_2h.


Analysis of structural, dynamic, and magnetic symmetry:
=====================================================================
 Subroutine PRICEL returns:
 Original cell was already a primitive cell.
 

 Routine SETGRP: Setting up the symmetry group for a 
 hexagonal supercell.


 Subroutine GETGRP returns: Found  4 space group operations
 (whereof  4 operations were pure point group operations)
 out of a pool of 24 trial point group operations.


The magnetic configuration has the point symmetry C_2h.


 Subroutine INISYM returns: Found  4 space group operations
 (whereof  4 operations are pure point group operations),
 and found     1 'primitive' translations

 
 
 KPOINTS: Automatic mesh                          

Automatic generation of k-mesh.
Space group operators:
 irot       det(A)        alpha          n_x          n_y          n_z        tau_x        tau_y        tau_z
    1     1.000000     0.000000     1.000000     0.000000     0.000000     0.000000     0.000000     0.000000
    2    -1.000000     0.000000     1.000000     0.000000     0.000000     0.000000     0.000000     0.000000
    3     1.000000   180.000000    -0.500001    -0.866025     0.000000     0.000000     0.000000     0.000000
    4    -1.000000   180.000000    -0.500001    -0.866025     0.000000     0.000000     0.000000     0.000000
 
 Subroutine IBZKPT returns following result:
 ===========================================
 
 Found      9 irreducible k-points:
 
 Following reciprocal coordinates:
            Coordinates               Weight
  0.000000  0.000000  0.000000      1.000000
  0.500000  0.000000  0.000000      2.000000
  0.500000  0.500000  0.000000      1.000000
  0.000000  0.000000  0.250000      2.000000
  0.500000  0.000000  0.250000      4.000000
  0.500000  0.500000  0.250000      2.000000
  0.000000  0.000000  0.500000      1.000000
  0.500000  0.000000  0.500000      2.000000
  0.500000  0.500000  0.500000      1.000000
 
 Following cartesian coordinates:
            Coordinates               Weight
  0.000000  0.000000  0.000000      1.000000
  0.039138  0.022596  0.000000      2.000000
  0.039138  0.067789  0.000000      1.000000
  0.000000  0.000000  0.046956      2.000000
  0.039138  0.022596  0.046956      4.000000
  0.039138  0.067789  0.046956      2.000000
  0.000000  0.000000  0.093912      1.000000
  0.039138  0.022596  0.093912      2.000000
  0.039138  0.067789  0.093912      1.000000
 


--------------------------------------------------------------------------------------------------------




 Dimension of arrays:
   k-points           NKPTS =      9   k-points in BZ     NKDIM =      9   number of bands    NBANDS=    196
   number of dos      NEDOS =    301   number of ions     NIONS =     40
   non local maximal  LDIM  =      6   non local SUM 2l+1 LMDIM =     18
   total plane-waves  NPLWV = 368640
   max r-space proj   IRMAX =   9164   max aug-charges    IRDMAX=   9965
   dimension x,y,z NGX =    96 NGY =   96 NGZ =   40
   dimension x,y,z NGXF=   140 NGYF=  140 NGZF=   60
   support grid    NGXF=   140 NGYF=  140 NGZF=   60
   ions per type =              24   8   8
   NGX,Y,Z   is equivalent  to a cutoff of  12.49, 12.49, 12.49 a.u.
   NGXF,Y,Z  is equivalent  to a cutoff of  18.22, 18.22, 18.74 a.u.

 SYSTEM =  CsNiF3 AF without U                     
 POSCAR =  For VASP. System= small                 

 Startparameter for this run:
   NWRITE =      2    write-flag & timer
   PREC   = high      normal or accurate (medium, high low for compatibility)
   ISTART =      0    job   : 0-new  1-cont  2-samecut
   ICHARG =      2    charge: 1-file 2-atom 10-const
   ISPIN  =      2    spin polarized calculation?
   LNONCOLLINEAR =      F non collinear calculations
   LSORBIT =      F    spin-orbit coupling
   INIWAV =      1    electr: 0-lowe 1-rand  2-diag
   LASPH  =      F    aspherical Exc in radial PAW
   METAGGA=      F    non-selfconsistent MetaGGA calc.

 Electronic Relaxation 1
   ENCUT  =  520.0 eV  38.22 Ry    6.18 a.u.  23.75 23.75  9.90*2*pi/ulx,y,z
   ENINI  =  520.0     initial cutoff
   ENAUG  =  613.6 eV  augmentation charge cutoff
   NELM   =    100;   NELMIN=  2; NELMDL= -5     # of ELM steps 
   EDIFF  = 0.1E-06   stopping-criterion for ELM
   LREAL  =      T    real-space projection
   NLSPLINE    = F    spline interpolate recip. space projectors
   LCOMPAT=      F    compatible to vasp.4.4
   GGA_COMPAT  = T    GGA compatible to vasp.4.4-vasp.4.6
   LMAXPAW     = -100 max onsite density
   LMAXMIX     =    2 max onsite mixed and CHGCAR
   VOSKOWN=      0    Vosko Wilk Nusair interpolation
   ROPT   =    0.00000   0.00000   0.00000
 Ionic relaxation
   EDIFFG = 0.1E-05   stopping-criterion for IOM
   NSW    =      0    number of steps for IOM
   NBLOCK =      1;   KBLOCK =      1    inner block; outer block 
   IBRION =     -1    ionic relax: 0-MD 1-quasi-New 2-CG
   NFREE  =      0    steps in history (QN), initial steepest desc. (CG)
   ISIF   =      2    stress and relaxation
   IWAVPR =     10    prediction:  0-non 1-charg 2-wave 3-comb
   ISYM   =      2    0-nonsym 1-usesym 2-fastsym
   LCORR  =      T    Harris-Foulkes like correction to forces

   POTIM  = 0.5000    time-step for ionic-motion
   TEIN   =    0.0    initial temperature
   TEBEG  =    0.0;   TEEND  =   0.0 temperature during run
   SMASS  =  -3.00    Nose mass-parameter (am)
   estimated Nose-frequenzy (Omega)   =  0.10E-29 period in steps =****** mass=  -0.373E-26a.u.
   SCALEE = 1.0000    scale energy and forces
   NPACO  =    256;   APACO  = 16.0  distance and # of slots for P.C.
   PSTRESS=    0.0 pullay stress

  Mass of Ions in am
   POMASS =  19.00 58.69132.90
  Ionic Valenz
   ZVAL   =   7.00 10.00  9.00
  Atomic Wigner-Seitz radii
   RWIGS  =  -1.00 -1.00 -1.00
  virtual crystal weights 
   VCA    =   1.00  1.00  1.00
   NELECT =     320.0000    total number of electrons
   NUPDOWN=      -1.0000    fix difference up-down

 DOS related values:
   EMIN   =  10.00;   EMAX   =-10.00  energy-range for DOS
   EFERMI =   0.00
   ISMEAR =     0;   SIGMA  =   0.20  broadening in eV -4-tet -1-fermi 0-gaus

 Electronic relaxation 2 (details)
   IALGO  =     38    algorithm
   LDIAG  =      T    sub-space diagonalisation (order eigenvalues)
   LSUBROT=      F    optimize rotation matrix (better conditioning)
   TURBO    =      0    0=normal 1=particle mesh
   IRESTART =      0    0=no restart 2=restart with 2 vectors
   NREBOOT  =      0    no. of reboots
   NMIN     =      0    reboot dimension
   EREF     =   0.00    reference energy to select bands
   IMIX   =      4    mixing-type and parameters
     AMIX     =   0.40;   BMIX     =  1.00
     AMIX_MAG =   1.60;   BMIX_MAG =  1.00
     AMIN     =   0.10
     WC   =   100.;   INIMIX=   1;  MIXPRE=   1;  MAXMIX= -45

 Intra band minimization:
   WEIMIN = 0.0000     energy-eigenvalue tresh-hold
   EBREAK =  0.13E-09  absolut break condition
   DEPER  =   0.30     relativ break condition  

   TIME   =   0.40     timestep for ELM

  volume/ion in A,a.u.               =      18.81       126.96
  Fermi-wavevector in a.u.,A,eV,Ry     =   1.231077  2.326398 20.620322  1.515551
  Thomas-Fermi vector in A             =   2.365901
 
 Write flags
   LWAVE        =      F    write WAVECAR
   LDOWNSAMPLE  =      F    k-point downsampling of WAVECAR
   LCHARG       =      F    write CHGCAR
   LVTOT        =      F    write LOCPOT, total local potential
   LVHAR        =      F    write LOCPOT, Hartree potential only
   LELF         =      F    write electronic localiz. function (ELF)
   LORBIT       =     11    0 simple, 1 ext, 2 COOP (PROOUT), +10 PAW based schemes


 Dipole corrections
   LMONO  =      F    monopole corrections only (constant potential shift)
   LDIPOL =      F    correct potential (dipole corrections)
   IDIPOL =      0    1-x, 2-y, 3-z, 4-all directions 
   EPSILON=  1.0000000 bulk dielectric constant

 Exchange correlation treatment:
   GGA     =    --    GGA type
   LEXCH   =     8    internal setting for exchange type
   VOSKOWN=      0    Vosko Wilk Nusair interpolation
   LHFCALC =     F    Hartree Fock is set to
   LHFONE  =     F    Hartree Fock one center treatment
   AEXX    =    0.0000 exact exchange contribution

 Linear response parameters
   LEPSILON=     F    determine dielectric tensor
   LRPA    =     F    only Hartree local field effects (RPA)
   LNABLA  =     F    use nabla operator in PAW spheres
   LVEL    =     F    velocity operator in full k-point grid
   LINTERFAST=   F  fast interpolation
   KINTER  =     0    interpolate to denser k-point grid
   CSHIFT  =0.1000    complex shift for real part using Kramers Kronig
   OMEGAMAX=  -1.0    maximum frequency
   DEG_THRESHOLD= 0.2000000E-02 threshold for treating states as degnerate
   RTIME   =   -0.100 relaxation time in fs
  (WPLASMAI=    0.000 imaginary part of plasma frequency in eV, 0.658/RTIME)
   DFIELD  = 0.0000000 0.0000000 0.0000000 field for delta impulse in time
 
 Orbital magnetization related:
   ORBITALMAG=     F  switch on orbital magnetization
   LCHIMAG   =     F  perturbation theory with respect to B field
   DQ        =  0.001000  dq finite difference perturbation B field
   LLRAUG    =     F  two centre corrections for induced B field



--------------------------------------------------------------------------------------------------------


 Static calculation
 charge density and potential will be updated during run
 spin polarized calculation
 Variant of blocked Davidson
 Davidson routine will perform the subspace rotation
 perform sub-space diagonalisation
    after iterative eigenvector-optimisation
 modified Broyden-mixing scheme, WC =      100.0
 initial mixing is a Kerker type mixing with AMIX =  0.4000 and BMIX =      1.0000
 Hartree-type preconditioning will be used
 using additional bands           36
 real space projection scheme for non local part
 use partial core corrections
 calculate Harris-corrections to forces 
   (improved forces if not selfconsistent)
 use gradient corrections 
 use of overlap-Matrix (Vanderbilt PP)
 Gauss-broadening in eV      SIGMA  =   0.20


--------------------------------------------------------------------------------------------------------


  energy-cutoff  :      520.00
  volume of cell :      752.52
      direct lattice vectors                 reciprocal lattice vectors
    12.775245568  0.000000000  0.000000000     0.078276382  0.045192789  0.000000000
    -6.387622784 11.063711963  0.000000000     0.000000000  0.090385578  0.000000000
     0.000000000  0.000000000  5.324128930     0.000000000  0.000000000  0.187824152

  length of vectors
    12.775245568 12.775267012  5.324128930     0.090385730  0.090385578  0.187824152


 
 k-points in units of 2pi/SCALE and weight: Automatic mesh                          
   0.00000000  0.00000000  0.00000000       0.062
   0.03913819  0.02259639  0.00000000       0.125
   0.03913819  0.06778918  0.00000000       0.062
   0.00000000  0.00000000  0.04695604       0.125
   0.03913819  0.02259639  0.04695604       0.250
   0.03913819  0.06778918  0.04695604       0.125
   0.00000000  0.00000000  0.09391208       0.062
   0.03913819  0.02259639  0.09391208       0.125
   0.03913819  0.06778918  0.09391208       0.062
 
 k-points in reciprocal lattice and weights: Automatic mesh                          
   0.00000000  0.00000000  0.00000000       0.062
   0.50000000  0.00000000  0.00000000       0.125
   0.50000000  0.50000000  0.00000000       0.062
   0.00000000  0.00000000  0.25000000       0.125
   0.50000000  0.00000000  0.25000000       0.250
   0.50000000  0.50000000  0.25000000       0.125
   0.00000000  0.00000000  0.50000000       0.062
   0.50000000  0.00000000  0.50000000       0.125
   0.50000000  0.50000000  0.50000000       0.062
 
 position of ions in fractional coordinates (direct lattice) 
   0.57007855  0.64016376  0.25000000
   0.07007855  0.64016376  0.25000000
   0.57007855  0.14016376  0.25000000
   0.07007855  0.14016376  0.25000000
   0.85983624  0.92992145  0.25000000
   0.35983624  0.92992145  0.25000000
   0.85983624  0.42992145  0.25000000
   0.35983624  0.42992145  0.25000000
   0.57008349  0.92991651  0.25000000
   0.07008349  0.92991651  0.25000000
   0.57008349  0.42991651  0.25000000
   0.07008349  0.42991651  0.25000000
   0.92992145  0.85983624  0.75000000
   0.42992145  0.85983624  0.75000000
   0.92992145  0.35983624  0.75000000
   0.42992145  0.35983624  0.75000000
   0.64016376  0.57007855  0.75000000
   0.14016376  0.57007855  0.75000000
   0.64016376  0.07007855  0.75000000
   0.14016376  0.07007855  0.75000000
   0.92991651  0.57008349  0.75000000
   0.42991651  0.57008349  0.75000000
   0.92991651  0.07008349  0.75000000
   0.42991651  0.07008349  0.75000000
   0.00000000  0.00000000  0.00000000
   0.50000000  0.00000000  0.00000000
   1.00000000  0.50000000  0.00000000
   0.50000000  0.50000000  0.00000000
   0.00000000  0.00000000  0.50000000
   0.50000000  0.00000000  0.50000000
   1.00000000  0.50000000  0.50000000
   0.50000000  0.50000000  0.50000000
   0.66666713  0.83333287  0.75000000
   0.16666713  0.83333287  0.75000000
   0.66666713  0.33333287  0.75000000
   0.16666713  0.33333287  0.75000000
   0.83333287  0.66666713  0.25000000
   0.33333287  0.66666713  0.25000000
   0.83333287  0.16666713  0.25000000
   0.33333287  0.16666713  0.25000000
 
 position of ions in cartesian coordinates  (Angst):
   3.19376888  7.08258743  1.33103223
  -3.19385391  7.08258743  1.33103223
   6.38758027  1.55073145  1.33103223
  -0.00004252  1.55073145  1.33103223
   5.04463170 10.28838306  1.33103223
  -1.34299108 10.28838306  1.33103223
   8.23844310  4.75652708  1.33103223
   1.85082031  4.75652708  1.33103223
   1.34300064 10.28832845  1.33103223
  -5.04462215 10.28832845  1.33103223
   4.53681203  4.75647247  1.33103223
  -1.85081076  4.75647247  1.33103223
   6.38766530  9.51298052  3.99309670
   0.00004252  9.51298052  3.99309670
   9.58147669  3.98112454  3.99309670
   3.19385391  3.98112454  3.99309670
   4.53680247  6.30718488  3.99309670
  -1.85082031  6.30718488  3.99309670
   7.73061386  0.77532890  3.99309670
   1.34299108  0.77532890  3.99309670
   8.23843354  6.30723949  3.99309670
   1.85081076  6.30723949  3.99309670
  11.43224493  0.77538351  3.99309670
   5.04462215  0.77538351  3.99309670
   0.00000000  0.00000000  0.00000000
   6.38762278  0.00000000  0.00000000
   9.58143418  5.53185598  0.00000000
   3.19381139  5.53185598  0.00000000
   0.00000000  0.00000000  2.66206446
   6.38762278  0.00000000  2.66206446
   9.58143418  5.53185598  2.66206446
   3.19381139  5.53185598  2.66206446
   3.19382031  9.21975482  3.99309670
  -3.19380247  9.21975482  3.99309670
   6.38763170  3.68789884  3.99309670
   0.00000892  3.68789884  3.99309670
   6.38761387  7.37581312  1.33103223
  -0.00000892  7.37581312  1.33103223
   9.58142526  1.84395714  1.33103223
   3.19380247  1.84395714  1.33103223
 


--------------------------------------------------------------------------------------------------------


 k-point  1 :   0.0000 0.0000 0.0000  plane waves:   20197
 k-point  2 :   0.5000 0.0000 0.0000  plane waves:   20226
 k-point  3 :   0.5000 0.5000 0.0000  plane waves:   20226
 k-point  4 :   0.0000 0.0000 0.2500  plane waves:   20294
 k-point  5 :   0.5000 0.0000 0.2500  plane waves:   20258
 k-point  6 :   0.5000 0.5000 0.2500  plane waves:   20258
 k-point  7 :   0.0000 0.0000 0.5000  plane waves:   20240
 k-point  8 :   0.5000 0.0000 0.5000  plane waves:   20320
 k-point  9 :   0.5000 0.5000 0.5000  plane waves:   20320

 maximum and minimum number of plane-waves per node :       882      806

 maximum number of plane-waves:     20320
 maximum index in each direction: 
   IXMAX=   23   IYMAX=   23   IZMAX=    9
   IXMIN=  -24   IYMIN=  -24   IZMIN=  -10


 real space projection operators:
  total allocation   :      19689.81 KBytes
  max/ min on nodes  :        844.06        757.81


 parallel 3D FFT for wavefunctions:
    minimum data exchange during FFTs selected (reduces bandwidth)
 parallel 3D FFT for charge:
    minimum data exchange during FFTs selected (reduces bandwidth)


 total amount of memory used by VASP MPI-rank0    53603. kBytes
=======================================================================

   base      :      30000. kBytes
   nonlr-proj:       7318. kBytes
   fftplans  :       1046. kBytes
   grid      :       2759. kBytes
   one-center:         62. kBytes
   wavefun   :      12418. kBytes
 
     INWAV:  cpu time    0.0000: real time    0.0000
 Broyden mixing: mesh for mixing (old mesh)
   NGX = 47   NGY = 47   NGZ = 19
  (NGX  =140   NGY  =140   NGZ  = 60)
  gives a total of  41971 points

 initial charge density was supplied:
 charge density of overlapping atoms calculated
 number of electron     320.0000000 magnetization       3.2840000
 keeping initial charge density in first step


--------------------------------------------------------------------------------------------------------


 Maximum index for non-local projection operator          385
 Maximum index for augmentation-charges          485 (set IRDMAX)


--------------------------------------------------------------------------------------------------------


 First call to EWALD:  gamma=   0.195
 Maximum number of real-space cells 2x 2x 4
 Maximum number of reciprocal cells 4x 4x 2

    FEWALD:  cpu time    0.0023: real time    0.0023


--------------------------------------- Iteration      1(   1)  ---------------------------------------


    POTLOK:  cpu time    0.1590: real time    0.1652
    SETDIJ:  cpu time    0.0076: real time    0.0076
     EDDAV:  cpu time    5.9024: real time    5.9209
       DOS:  cpu time    0.0031: real time    0.0031
    --------------------------------------------
      LOOP:  cpu time    6.0721: real time    6.0969

 eigenvalue-minimisations  :  7056
 total energy-change (2. order) : 0.3930023E+04  (-0.1454555E+05)
 number of electron     320.0000000 magnetization       3.2840000
 augmentation part      320.0000000 magnetization       3.2840000

 Free energy of the ion-electron system (eV)
  ---------------------------------------------------
  alpha Z        PSCENC =      1278.33848294
  Ewald energy   TEWEN  =    -16011.11606870
  -Hartree energ DENC   =    -12510.24273293
  -exchange      EXHF   =         0.00000000
  -V(xc)+E(xc)   XCENC  =      1221.38903549
  PAW double counting   =     19640.54138542   -20241.63226317
  entropy T*S    EENTRO =        -0.14528356
  eigenvalues    EBANDS =      1657.15327496
  atomic energy  EATOM  =     28895.73697308
  Solvation  Ediel_sol  =         0.00000000
  ---------------------------------------------------
  free energy    TOTEN  =      3930.02280353 eV

  energy without entropy =     3930.16808710  energy(sigma->0) =     3930.09544531


--------------------------------------------------------------------------------------------------------




--------------------------------------- Iteration      1(   2)  ---------------------------------------


     EDDAV:  cpu time    6.0868: real time    6.1047
       DOS:  cpu time    0.0040: real time    0.0040
    --------------------------------------------
      LOOP:  cpu time    6.0908: real time    6.1087

 eigenvalue-minimisations  :  7528
 total energy-change (2. order) :-0.3452892E+04  (-0.3180434E+04)
 number of electron     320.0000000 magnetization       3.2840000
 augmentation part      320.0000000 magnetization       3.2840000

 Free energy of the ion-electron system (eV)
  ---------------------------------------------------
  alpha Z        PSCENC =      1278.33848294
  Ewald energy   TEWEN  =    -16011.11606870
  -Hartree energ DENC   =    -12510.24273293
  -exchange      EXHF   =         0.00000000
  -V(xc)+E(xc)   XCENC  =      1221.38903549
  PAW double counting   =     19640.54138542   -20241.63226317
  entropy T*S    EENTRO =        -0.32087968
  eigenvalues    EBANDS =     -1795.56272877
  atomic energy  EATOM  =     28895.73697308
  Solvation  Ediel_sol  =         0.00000000
  ---------------------------------------------------
  free energy    TOTEN  =       477.13120369 eV

  energy without entropy =      477.45208336  energy(sigma->0) =      477.29164352


--------------------------------------------------------------------------------------------------------




--------------------------------------- Iteration      1(   3)  ---------------------------------------


     EDDAV:  cpu time    6.1960: real time    6.2248
       DOS:  cpu time    0.0041: real time    0.0041
    --------------------------------------------
      LOOP:  cpu time    6.2001: real time    6.2289

 eigenvalue-minimisations  :  7668
 total energy-change (2. order) :-0.6502433E+03  (-0.6314787E+03)
 number of electron     320.0000000 magnetization       3.2840000
 augmentation part      320.0000000 magnetization       3.2840000

 Free energy of the ion-electron system (eV)
  ---------------------------------------------------
  alpha Z        PSCENC =      1278.33848294
  Ewald energy   TEWEN  =    -16011.11606870
  -Hartree energ DENC   =    -12510.24273293
  -exchange      EXHF   =         0.00000000
  -V(xc)+E(xc)   XCENC  =      1221.38903549
  PAW double counting   =     19640.54138542   -20241.63226317
  entropy T*S    EENTRO =        -0.23148221
  eigenvalues    EBANDS =     -2445.89543269
  atomic energy  EATOM  =     28895.73697308
  Solvation  Ediel_sol  =         0.00000000
  ---------------------------------------------------
  free energy    TOTEN  =      -173.11210277 eV

  energy without entropy =     -172.88062056  energy(sigma->0) =     -172.99636166


--------------------------------------------------------------------------------------------------------




--------------------------------------- Iteration      1(   4)  ---------------------------------------


     EDDAV:  cpu time    6.4268: real time    6.4624
       DOS:  cpu time    0.0041: real time    0.0042
    --------------------------------------------
      LOOP:  cpu time    6.4309: real time    6.4666

 eigenvalue-minimisations  :  8200
 total energy-change (2. order) :-0.3594104E+02  (-0.3531794E+02)
 number of electron     320.0000000 magnetization       3.2840000
 augmentation part      320.0000000 magnetization       3.2840000

 Free energy of the ion-electron system (eV)
  ---------------------------------------------------
  alpha Z        PSCENC =      1278.33848294
  Ewald energy   TEWEN  =    -16011.11606870
  -Hartree energ DENC   =    -12510.24273293
  -exchange      EXHF   =         0.00000000
  -V(xc)+E(xc)   XCENC  =      1221.38903549
  PAW double counting   =     19640.54138542   -20241.63226317
  entropy T*S    EENTRO =        -0.18910201
  eigenvalues    EBANDS =     -2481.87884848
  atomic energy  EATOM  =     28895.73697308
  Solvation  Ediel_sol  =         0.00000000
  ---------------------------------------------------
  free energy    TOTEN  =      -209.05313836 eV

  energy without entropy =     -208.86403635  energy(sigma->0) =     -208.95858735


--------------------------------------------------------------------------------------------------------




--------------------------------------- Iteration      1(   5)  ---------------------------------------


     EDDAV:  cpu time    6.7620: real time    6.8019
       DOS:  cpu time    0.0041: real time    0.0041
    CHARGE:  cpu time    0.2652: real time    0.2655
    MIXING:  cpu time    0.0051: real time    0.0052
    --------------------------------------------
      LOOP:  cpu time    7.0364: real time    7.0766

 eigenvalue-minimisations  :  8688
 total energy-change (2. order) :-0.1337878E+01  (-0.1331128E+01)
 number of electron     320.0000862 magnetization       3.6741346
 augmentation part       64.6011150 magnetization       2.7066293

 Broyden mixing:
  rms(total) = 0.37542E+01    rms(broyden)= 0.37501E+01
  rms(prec ) = 0.46544E+01
  weight for this iteration     100.00

 Free energy of the ion-electron system (eV)
  ---------------------------------------------------
  alpha Z        PSCENC =      1278.33848294
  Ewald energy   TEWEN  =    -16011.11606870
  -Hartree energ DENC   =    -12510.24273293
  -exchange      EXHF   =         0.00000000
  -V(xc)+E(xc)   XCENC  =      1221.38903549
  PAW double counting   =     19640.54138542   -20241.63226317
  entropy T*S    EENTRO =        -0.18741139
  eigenvalues    EBANDS =     -2483.21841677
  atomic energy  EATOM  =     28895.73697308
  Solvation  Ediel_sol  =         0.00000000
  ---------------------------------------------------
  free energy    TOTEN  =      -210.39101603 eV

  energy without entropy =     -210.20360463  energy(sigma->0) =     -210.29731033


--------------------------------------------------------------------------------------------------------




--------------------------------------- Iteration      1(   6)  ---------------------------------------


    POTLOK:  cpu time    0.1257: real time    0.1300
    SETDIJ:  cpu time    0.0073: real time    0.0073
     EDDAV:  cpu time    7.6032: real time    7.6192
       DOS:  cpu time    0.0039: real time    0.0039
    CHARGE:  cpu time    0.2345: real time    0.2347
    MIXING:  cpu time    0.0009: real time    0.0009
    --------------------------------------------
      LOOP:  cpu time    7.9755: real time    7.9960

 eigenvalue-minimisations  :  9912
 total energy-change (2. order) : 0.2731459E+02  (-0.2083860E+02)
 number of electron     320.0000822 magnetization       3.7647176
 augmentation part       66.2930819 magnetization       2.7728618

 Broyden mixing:
  rms(total) = 0.20333E+01    rms(broyden)= 0.20316E+01
  rms(prec ) = 0.21966E+01
  weight for this iteration     100.00

 eigenvalues of (default mixing * dielectric matrix)
  average eigenvalue GAMMA=   0.6059
  0.6059

 Free energy of the ion-electron system (eV)
  ---------------------------------------------------
  alpha Z        PSCENC =      1278.33848294
  Ewald energy   TEWEN  =    -16011.11606870
  -Hartree energ DENC   =    -12662.58419885
  -exchange      EXHF   =         0.00000000
  -V(xc)+E(xc)   XCENC  =      1242.44274059
  PAW double counting   =     20157.15758060   -20730.09581666
  entropy T*S    EENTRO =        -0.00165405
  eigenvalues    EBANDS =     -2352.95446032
  atomic energy  EATOM  =     28895.73697308
  Solvation  Ediel_sol  =         0.00000000
  ---------------------------------------------------
  free energy    TOTEN  =      -183.07642137 eV

  energy without entropy =     -183.07476731  energy(sigma->0) =     -183.07559434


--------------------------------------------------------------------------------------------------------




--------------------------------------- Iteration      1(   7)  ---------------------------------------


    POTLOK:  cpu time    0.0932: real time    0.0949
    SETDIJ:  cpu time    0.0067: real time    0.0067
     EDDAV:  cpu time    7.1565: real time    7.1772
       DOS:  cpu time    0.0042: real time    0.0042
    CHARGE:  cpu time    0.2425: real time    0.2425
    MIXING:  cpu time    0.0011: real time    0.0011
    --------------------------------------------
      LOOP:  cpu time    7.5041: real time    7.5266

 eigenvalue-minimisations  :  9744
 total energy-change (2. order) : 0.3936192E+00  (-0.3023300E+01)
 number of electron     320.0000822 magnetization       3.8268579
 augmentation part       64.3523055 magnetization       2.9577413

 Broyden mixing:
  rms(total) = 0.87484E+00    rms(broyden)= 0.87460E+00
  rms(prec ) = 0.94830E+00
  weight for this iteration     100.00

 eigenvalues of (default mixing * dielectric matrix)
  average eigenvalue GAMMA=   0.6525
  0.6525  0.6525

 Free energy of the ion-electron system (eV)
  ---------------------------------------------------
  alpha Z        PSCENC =      1278.33848294
  Ewald energy   TEWEN  =    -16011.11606870
  -Hartree energ DENC   =    -12690.35352055
  -exchange      EXHF   =         0.00000000
  -V(xc)+E(xc)   XCENC  =      1238.80383838
  PAW double counting   =     20306.43554584   -20910.23075627
  entropy T*S    EENTRO =        -0.00007048
  eigenvalues    EBANDS =     -2290.29722645
  atomic energy  EATOM  =     28895.73697308
  Solvation  Ediel_sol  =         0.00000000
  ---------------------------------------------------
  free energy    TOTEN  =      -182.68280220 eV

  energy without entropy =     -182.68273172  energy(sigma->0) =     -182.68276696


--------------------------------------------------------------------------------------------------------




--------------------------------------- Iteration      1(   8)  ---------------------------------------


    POTLOK:  cpu time    0.1336: real time    0.1337
    SETDIJ:  cpu time    0.0077: real time    0.0077
     EDDAV:  cpu time    6.9343: real time    6.9426
       DOS:  cpu time    0.0037: real time    0.0037
    CHARGE:  cpu time    0.3379: real time    0.3380
    MIXING:  cpu time    0.0009: real time    0.0009
    --------------------------------------------
      LOOP:  cpu time    7.4182: real time    7.4266

 eigenvalue-minimisations  :  8696
 total energy-change (2. order) :-0.3603407E+00  (-0.4518429E+00)
 number of electron     320.0000827 magnetization       3.9733388
 augmentation part       64.4095171 magnetization       3.1260458

 Broyden mixing:
  rms(total) = 0.47241E+00    rms(broyden)= 0.47229E+00
  rms(prec ) = 0.54971E+00
  weight for this iteration     100.00

 eigenvalues of (default mixing * dielectric matrix)
  average eigenvalue GAMMA=   1.0483
  1.7683  0.6883  0.6883

 Free energy of the ion-electron system (eV)
  ---------------------------------------------------
  alpha Z        PSCENC =      1278.33848294
  Ewald energy   TEWEN  =    -16011.11606870
  -Hartree energ DENC   =    -12677.81288055
  -exchange      EXHF   =         0.00000000
  -V(xc)+E(xc)   XCENC  =      1238.45327726
  PAW double counting   =     20356.28253698   -20966.38647061
  entropy T*S    EENTRO =        -0.00000799
  eigenvalues    EBANDS =     -2296.53898530
  atomic energy  EATOM  =     28895.73697308
  Solvation  Ediel_sol  =         0.00000000
  ---------------------------------------------------
  free energy    TOTEN  =      -183.04314288 eV

  energy without entropy =     -183.04313490  energy(sigma->0) =     -183.04313889


--------------------------------------------------------------------------------------------------------




--------------------------------------- Iteration      1(   9)  ---------------------------------------


    POTLOK:  cpu time    0.0847: real time    0.0886
    SETDIJ:  cpu time    0.0069: real time    0.0069
     EDDAV:  cpu time    7.6552: real time    7.7290
       DOS:  cpu time    0.0036: real time    0.0036
    CHARGE:  cpu time    0.2497: real time    0.2498
    MIXING:  cpu time    0.0012: real time    0.0012
    --------------------------------------------
      LOOP:  cpu time    8.0013: real time    8.0791

 eigenvalue-minimisations  :  9792
 total energy-change (2. order) : 0.9870603E-01  (-0.7419163E-01)
 number of electron     320.0000824 magnetization       3.9963650
 augmentation part       64.5939965 magnetization       3.1036008

 Broyden mixing:
  rms(total) = 0.21394E+00    rms(broyden)= 0.21390E+00
  rms(prec ) = 0.23522E+00
  weight for this iteration     100.00

 eigenvalues of (default mixing * dielectric matrix)
  average eigenvalue GAMMA=   1.1071
  2.4277  0.7896  0.6055  0.6055

 Free energy of the ion-electron system (eV)
  ---------------------------------------------------
  alpha Z        PSCENC =      1278.33848294
  Ewald energy   TEWEN  =    -16011.11606870
  -Hartree energ DENC   =    -12687.76316800
  -exchange      EXHF   =         0.00000000
  -V(xc)+E(xc)   XCENC  =      1239.98277088
  PAW double counting   =     20532.17273478   -21154.23649703
  entropy T*S    EENTRO =        -0.00000227
  eigenvalues    EBANDS =     -2276.05966253
  atomic energy  EATOM  =     28895.73697308
  Solvation  Ediel_sol  =         0.00000000
  ---------------------------------------------------
  free energy    TOTEN  =      -182.94443686 eV

  energy without entropy =     -182.94443458  energy(sigma->0) =     -182.94443572


--------------------------------------------------------------------------------------------------------




--------------------------------------- Iteration      1(  10)  ---------------------------------------


    POTLOK:  cpu time    0.0841: real time    0.0894
    SETDIJ:  cpu time    0.0067: real time    0.0067
     EDDAV:  cpu time    7.3891: real time    7.4272
       DOS:  cpu time    0.0037: real time    0.0037
    CHARGE:  cpu time    0.2352: real time    0.2352
    MIXING:  cpu time    0.0010: real time    0.0010
    --------------------------------------------
      LOOP:  cpu time    7.7198: real time    7.7631

 eigenvalue-minimisations  :  9368
 total energy-change (2. order) :-0.1347490E-01  (-0.2666931E-01)
 number of electron     320.0000826 magnetization       3.9969114
 augmentation part       64.4872462 magnetization       3.1136553

 Broyden mixing:
  rms(total) = 0.77133E-01    rms(broyden)= 0.77098E-01
  rms(prec ) = 0.92440E-01
  weight for this iteration     100.00

 eigenvalues of (default mixing * dielectric matrix)
  average eigenvalue GAMMA=   1.0991
  2.4321  1.0840  0.6568  0.6568  0.6659

 Free energy of the ion-electron system (eV)
  ---------------------------------------------------
  alpha Z        PSCENC =      1278.33848294
  Ewald energy   TEWEN  =    -16011.11606870
  -Hartree energ DENC   =    -12692.79501454
  -exchange      EXHF   =         0.00000000
  -V(xc)+E(xc)   XCENC  =      1240.01904422
  PAW double counting   =     20558.33627294   -21184.15400060
  entropy T*S    EENTRO =        -0.00000291
  eigenvalues    EBANDS =     -2267.32359817
  atomic energy  EATOM  =     28895.73697308
  Solvation  Ediel_sol  =         0.00000000
  ---------------------------------------------------
  free energy    TOTEN  =      -182.95791175 eV

  energy without entropy =     -182.95790884  energy(sigma->0) =     -182.95791030


--------------------------------------------------------------------------------------------------------




--------------------------------------- Iteration      1(  11)  ---------------------------------------


    POTLOK:  cpu time    0.0829: real time    0.0863
    SETDIJ:  cpu time    0.0068: real time    0.0068
     EDDAV:  cpu time    7.4040: real time    7.4272
       DOS:  cpu time    0.0038: real time    0.0038
    CHARGE:  cpu time    0.2486: real time    0.2508
    MIXING:  cpu time    0.0013: real time    0.0013
    --------------------------------------------
      LOOP:  cpu time    7.7474: real time    7.7762

 eigenvalue-minimisations  :  9928
 total energy-change (2. order) : 0.5378556E-03  (-0.5019531E-02)
 number of electron     320.0000827 magnetization       3.9987824
 augmentation part       64.4704708 magnetization       3.1232666

 Broyden mixing:
  rms(total) = 0.24707E-01    rms(broyden)= 0.24633E-01
  rms(prec ) = 0.30031E-01
  weight for this iteration     100.00

 eigenvalues of (default mixing * dielectric matrix)
  average eigenvalue GAMMA=   1.0951
  2.4668  1.1440  0.9928  0.6578  0.6578  0.6514

 Free energy of the ion-electron system (eV)
  ---------------------------------------------------
  alpha Z        PSCENC =      1278.33848294
  Ewald energy   TEWEN  =    -16011.11606870
  -Hartree energ DENC   =    -12693.68084331
  -exchange      EXHF   =         0.00000000
  -V(xc)+E(xc)   XCENC  =      1239.86944310
  PAW double counting   =     20554.64215701   -21180.85487977
  entropy T*S    EENTRO =        -0.00000347
  eigenvalues    EBANDS =     -2265.89263477
  atomic energy  EATOM  =     28895.73697308
  Solvation  Ediel_sol  =         0.00000000
  ---------------------------------------------------
  free energy    TOTEN  =      -182.95737390 eV

  energy without entropy =     -182.95737043  energy(sigma->0) =     -182.95737216


--------------------------------------------------------------------------------------------------------




--------------------------------------- Iteration      1(  12)  ---------------------------------------


    POTLOK:  cpu time    0.1502: real time    0.1503
    SETDIJ:  cpu time    0.0068: real time    0.0068
     EDDAV:  cpu time    6.1262: real time    6.1412
       DOS:  cpu time    0.0037: real time    0.0037
    CHARGE:  cpu time    0.2358: real time    0.2358
    MIXING:  cpu time    0.0010: real time    0.0010
    --------------------------------------------
      LOOP:  cpu time    6.5237: real time    6.5387

 eigenvalue-minimisations  :  7840
 total energy-change (2. order) :-0.3017475E-02  (-0.1243642E-02)
 number of electron     320.0000827 magnetization       3.9999211
 augmentation part       64.4764060 magnetization       3.1242469

 Broyden mixing:
  rms(total) = 0.14399E-01    rms(broyden)= 0.14383E-01
  rms(prec ) = 0.18085E-01
  weight for this iteration     100.00

 eigenvalues of (default mixing * dielectric matrix)
  average eigenvalue GAMMA=   1.1406
  2.4791  1.5156  1.1069  0.9021  0.6657  0.6657  0.6489

 Free energy of the ion-electron system (eV)
  ---------------------------------------------------
  alpha Z        PSCENC =      1278.33848294
  Ewald energy   TEWEN  =    -16011.11606870
  -Hartree energ DENC   =    -12695.80036407
  -exchange      EXHF   =         0.00000000
  -V(xc)+E(xc)   XCENC  =      1239.98952796
  PAW double counting   =     20555.63041116   -21181.84025839
  entropy T*S    EENTRO =        -0.00000254
  eigenvalues    EBANDS =     -2263.89909281
  atomic energy  EATOM  =     28895.73697308
  Solvation  Ediel_sol  =         0.00000000
  ---------------------------------------------------
  free energy    TOTEN  =      -182.96039137 eV

  energy without entropy =     -182.96038884  energy(sigma->0) =     -182.96039010


--------------------------------------------------------------------------------------------------------




--------------------------------------- Iteration      1(  13)  ---------------------------------------


    POTLOK:  cpu time    0.0894: real time    0.0895
    SETDIJ:  cpu time    0.0069: real time    0.0069
     EDDAV:  cpu time    7.1718: real time    7.2079
       DOS:  cpu time    0.0038: real time    0.0038
    CHARGE:  cpu time    0.2361: real time    0.2361
    MIXING:  cpu time    0.0011: real time    0.0011
    --------------------------------------------
      LOOP:  cpu time    7.5091: real time    7.5452

 eigenvalue-minimisations  :  9304
 total energy-change (2. order) :-0.9219617E-03  (-0.2213846E-03)
 number of electron     320.0000826 magnetization       4.0000781
 augmentation part       64.4724837 magnetization       3.1252236

 Broyden mixing:
  rms(total) = 0.71735E-02    rms(broyden)= 0.71665E-02
  rms(prec ) = 0.89426E-02
  weight for this iteration     100.00

 eigenvalues of (default mixing * dielectric matrix)
  average eigenvalue GAMMA=   1.1623
  2.4741  2.1734  0.9961  0.9961  0.6608  0.6608  0.7022  0.6349

 Free energy of the ion-electron system (eV)
  ---------------------------------------------------
  alpha Z        PSCENC =      1278.33848294
  Ewald energy   TEWEN  =    -16011.11606870
  -Hartree energ DENC   =    -12697.94375087
  -exchange      EXHF   =         0.00000000
  -V(xc)+E(xc)   XCENC  =      1240.12097912
  PAW double counting   =     20556.66887201   -21182.89181791
  entropy T*S    EENTRO =        -0.00000362
  eigenvalues    EBANDS =     -2261.87497938
  atomic energy  EATOM  =     28895.73697308
  Solvation  Ediel_sol  =         0.00000000
  ---------------------------------------------------
  free energy    TOTEN  =      -182.96131334 eV

  energy without entropy =     -182.96130971  energy(sigma->0) =     -182.96131152


--------------------------------------------------------------------------------------------------------




--------------------------------------- Iteration      1(  14)  ---------------------------------------


    POTLOK:  cpu time    0.0894: real time    0.0938
    SETDIJ:  cpu time    0.0071: real time    0.0071
     EDDAV:  cpu time    6.6977: real time    6.7150
       DOS:  cpu time    0.0040: real time    0.0040
    CHARGE:  cpu time    0.2464: real time    0.2464
    MIXING:  cpu time    0.0019: real time    0.0018
    --------------------------------------------
      LOOP:  cpu time    7.0465: real time    7.0681

 eigenvalue-minimisations  :  8528
 total energy-change (2. order) :-0.2150504E-03  (-0.4452797E-04)
 number of electron     320.0000826 magnetization       4.0001279
 augmentation part       64.4706355 magnetization       3.1248935

 Broyden mixing:
  rms(total) = 0.37576E-02    rms(broyden)= 0.37573E-02
  rms(prec ) = 0.48769E-02
  weight for this iteration     100.00

 eigenvalues of (default mixing * dielectric matrix)
  average eigenvalue GAMMA=   1.1897
  2.6743  2.4157  1.1043  1.1043  0.6646  0.6646  0.7875  0.6637  0.6278

 Free energy of the ion-electron system (eV)
  ---------------------------------------------------
  alpha Z        PSCENC =      1278.33848294
  Ewald energy   TEWEN  =    -16011.11606870
  -Hartree energ DENC   =    -12698.58725937
  -exchange      EXHF   =         0.00000000
  -V(xc)+E(xc)   XCENC  =      1240.14256441
  PAW double counting   =     20556.31188259   -21182.49807166
  entropy T*S    EENTRO =        -0.00000360
  eigenvalues    EBANDS =     -2261.29002807
  atomic energy  EATOM  =     28895.73697308
  Solvation  Ediel_sol  =         0.00000000
  ---------------------------------------------------
  free energy    TOTEN  =      -182.96152839 eV

  energy without entropy =     -182.96152478  energy(sigma->0) =     -182.96152658


--------------------------------------------------------------------------------------------------------




--------------------------------------- Iteration      1(  15)  ---------------------------------------


    POTLOK:  cpu time    0.1738: real time    0.1756
    SETDIJ:  cpu time    0.0258: real time    0.0258
     EDDAV:  cpu time    6.7720: real time    6.7869
       DOS:  cpu time    0.0038: real time    0.0038
    CHARGE:  cpu time    0.2351: real time    0.2351
    MIXING:  cpu time    0.0016: real time    0.0016
    --------------------------------------------
      LOOP:  cpu time    7.2122: real time    7.2288

 eigenvalue-minimisations  :  9136
 total energy-change (2. order) :-0.3328654E-04  (-0.9647980E-05)
 number of electron     320.0000827 magnetization       4.0001448
 augmentation part       64.4720737 magnetization       3.1247680

 Broyden mixing:
  rms(total) = 0.16441E-02    rms(broyden)= 0.16414E-02
  rms(prec ) = 0.26290E-02
  weight for this iteration     100.00

 eigenvalues of (default mixing * dielectric matrix)
  average eigenvalue GAMMA=   1.2043
  2.9004  2.3863  1.2002  1.2002  0.9450  0.6666  0.6666  0.6422  0.7176  0.7176

 Free energy of the ion-electron system (eV)
  ---------------------------------------------------
  alpha Z        PSCENC =      1278.33848294
  Ewald energy   TEWEN  =    -16011.11606870
  -Hartree energ DENC   =    -12698.61989621
  -exchange      EXHF   =         0.00000000
  -V(xc)+E(xc)   XCENC  =      1240.14366688
  PAW double counting   =     20555.92658132   -21182.08616605
  entropy T*S    EENTRO =        -0.00000377
  eigenvalues    EBANDS =     -2261.28513117
  atomic energy  EATOM  =     28895.73697308
  Solvation  Ediel_sol  =         0.00000000
  ---------------------------------------------------
  free energy    TOTEN  =      -182.96156167 eV

  energy without entropy =     -182.96155790  energy(sigma->0) =     -182.96155979


--------------------------------------------------------------------------------------------------------




--------------------------------------- Iteration      1(  16)  ---------------------------------------


    POTLOK:  cpu time    0.0838: real time    0.0876
    SETDIJ:  cpu time    0.0071: real time    0.0071
     EDDAV:  cpu time    7.5324: real time    7.5478
       DOS:  cpu time    0.0038: real time    0.0038
    CHARGE:  cpu time    0.3421: real time    0.3424
    MIXING:  cpu time    0.0013: real time    0.0013
    --------------------------------------------
      LOOP:  cpu time    7.9704: real time    7.9899

 eigenvalue-minimisations  :  9720
 total energy-change (2. order) : 0.1627530E-05  (-0.2417435E-05)
 number of electron     320.0000827 magnetization       4.0000658
 augmentation part       64.4733448 magnetization       3.1247622

 Broyden mixing:
  rms(total) = 0.81460E-03    rms(broyden)= 0.81381E-03
  rms(prec ) = 0.16227E-02
  weight for this iteration     100.00

 eigenvalues of (default mixing * dielectric matrix)
  average eigenvalue GAMMA=   1.1765
  2.9527  2.4010  1.2073  1.2073  1.1001  0.6675  0.6675  0.7272  0.6389  0.6858
  0.6858

 Free energy of the ion-electron system (eV)
  ---------------------------------------------------
  alpha Z        PSCENC =      1278.33848294
  Ewald energy   TEWEN  =    -16011.11606870
  -Hartree energ DENC   =    -12698.61417201
  -exchange      EXHF   =         0.00000000
  -V(xc)+E(xc)   XCENC  =      1240.14781667
  PAW double counting   =     20555.87873591   -21182.02752805
  entropy T*S    EENTRO =        -0.00000401
  eigenvalues    EBANDS =     -2261.30579587
  atomic energy  EATOM  =     28895.73697308
  Solvation  Ediel_sol  =         0.00000000
  ---------------------------------------------------
  free energy    TOTEN  =      -182.96156004 eV

  energy without entropy =     -182.96155603  energy(sigma->0) =     -182.96155804


--------------------------------------------------------------------------------------------------------




--------------------------------------- Iteration      1(  17)  ---------------------------------------


    POTLOK:  cpu time    0.0885: real time    0.0922
    SETDIJ:  cpu time    0.0067: real time    0.0067
     EDDAV:  cpu time    7.5401: real time    7.6134
       DOS:  cpu time    0.0038: real time    0.0038
    CHARGE:  cpu time    0.2473: real time    0.2473
    MIXING:  cpu time    0.0019: real time    0.0018
    --------------------------------------------
      LOOP:  cpu time    7.8884: real time    7.9653

 eigenvalue-minimisations  :  9768
 total energy-change (2. order) : 0.4039484E-05  (-0.1118315E-05)
 number of electron     320.0000827 magnetization       3.9999817
 augmentation part       64.4733837 magnetization       3.1246439

 Broyden mixing:
  rms(total) = 0.51547E-03    rms(broyden)= 0.51536E-03
  rms(prec ) = 0.10725E-02
  weight for this iteration     100.00

 eigenvalues of (default mixing * dielectric matrix)
  average eigenvalue GAMMA=   1.2101
  3.0128  2.4257  1.7803  1.1559  1.1559  0.8840  0.6667  0.6667  0.7460  0.7460
  0.6403  0.6403

 Free energy of the ion-electron system (eV)
  ---------------------------------------------------
  alpha Z        PSCENC =      1278.33848294
  Ewald energy   TEWEN  =    -16011.11606870
  -Hartree energ DENC   =    -12698.63249479
  -exchange      EXHF   =         0.00000000
  -V(xc)+E(xc)   XCENC  =      1240.15128648
  PAW double counting   =     20555.85782377   -21182.00820979
  entropy T*S    EENTRO =        -0.00000420
  eigenvalues    EBANDS =     -2261.28934479
  atomic energy  EATOM  =     28895.73697308
  Solvation  Ediel_sol  =         0.00000000
  ---------------------------------------------------
  free energy    TOTEN  =      -182.96155601 eV

  energy without entropy =     -182.96155180  energy(sigma->0) =     -182.96155390


--------------------------------------------------------------------------------------------------------




--------------------------------------- Iteration      1(  18)  ---------------------------------------


    POTLOK:  cpu time    0.0847: real time    0.0890
    SETDIJ:  cpu time    0.0068: real time    0.0068
     EDDAV:  cpu time    7.7689: real time    7.8086
       DOS:  cpu time    0.0039: real time    0.0039
    CHARGE:  cpu time    0.2353: real time    0.2353
    MIXING:  cpu time    0.0013: real time    0.0013
    --------------------------------------------
      LOOP:  cpu time    8.1009: real time    8.1449

 eigenvalue-minimisations  : 10040
 total energy-change (2. order) : 0.3726418E-05  (-0.6506887E-06)
 number of electron     320.0000827 magnetization       3.9999660
 augmentation part       64.4730686 magnetization       3.1246635

 Broyden mixing:
  rms(total) = 0.37574E-03    rms(broyden)= 0.37555E-03
  rms(prec ) = 0.64258E-03
  weight for this iteration     100.00

 eigenvalues of (default mixing * dielectric matrix)
  average eigenvalue GAMMA=   1.2282
  3.1330  2.4631  2.2637  1.2065  1.2065  0.6658  0.6658  0.7766  0.7766  0.7708
  0.7708  0.6603  0.6073

 Free energy of the ion-electron system (eV)
  ---------------------------------------------------
  alpha Z        PSCENC =      1278.33848294
  Ewald energy   TEWEN  =    -16011.11606870
  -Hartree energ DENC   =    -12698.64619598
  -exchange      EXHF   =         0.00000000
  -V(xc)+E(xc)   XCENC  =      1240.15329410
  PAW double counting   =     20555.82627390   -21181.98148686
  entropy T*S    EENTRO =        -0.00000435
  eigenvalues    EBANDS =     -2261.27282041
  atomic energy  EATOM  =     28895.73697308
  Solvation  Ediel_sol  =         0.00000000
  ---------------------------------------------------
  free energy    TOTEN  =      -182.96155228 eV

  energy without entropy =     -182.96154793  energy(sigma->0) =     -182.96155010


--------------------------------------------------------------------------------------------------------




--------------------------------------- Iteration      1(  19)  ---------------------------------------


    POTLOK:  cpu time    0.0928: real time    0.0929
    SETDIJ:  cpu time    0.0067: real time    0.0067
     EDDAV:  cpu time    7.2734: real time    7.2922
       DOS:  cpu time    0.0038: real time    0.0038
    CHARGE:  cpu time    0.3200: real time    0.3200
    MIXING:  cpu time    0.0022: real time    0.0022
    --------------------------------------------
      LOOP:  cpu time    7.6989: real time    7.7178

 eigenvalue-minimisations  :  9536
 total energy-change (2. order) : 0.8997631E-06  (-0.4480271E-06)
 number of electron     320.0000827 magnetization       3.9999772
 augmentation part       64.4731485 magnetization       3.1246705

 Broyden mixing:
  rms(total) = 0.25694E-03    rms(broyden)= 0.25686E-03
  rms(prec ) = 0.37968E-03
  weight for this iteration     100.00

 eigenvalues of (default mixing * dielectric matrix)
  average eigenvalue GAMMA=   1.2440
  3.2406  2.6367  2.2687  1.1142  1.1142  1.1882  1.1882  0.6682  0.6682  0.7028
  0.7028  0.6828  0.6426  0.5980

 Free energy of the ion-electron system (eV)
  ---------------------------------------------------
  alpha Z        PSCENC =      1278.33848294
  Ewald energy   TEWEN  =    -16011.11606870
  -Hartree energ DENC   =    -12698.63817008
  -exchange      EXHF   =         0.00000000
  -V(xc)+E(xc)   XCENC  =      1240.15303831
  PAW double counting   =     20555.81899338   -21181.97516022
  entropy T*S    EENTRO =        -0.00000447
  eigenvalues    EBANDS =     -2261.27963562
  atomic energy  EATOM  =     28895.73697308
  Solvation  Ediel_sol  =         0.00000000
  ---------------------------------------------------
  free energy    TOTEN  =      -182.96155138 eV

  energy without entropy =     -182.96154691  energy(sigma->0) =     -182.96154914


--------------------------------------------------------------------------------------------------------




--------------------------------------- Iteration      1(  20)  ---------------------------------------


    POTLOK:  cpu time    0.0884: real time    0.0922
    SETDIJ:  cpu time    0.0069: real time    0.0069
     EDDAV:  cpu time    6.5390: real time    6.5646
       DOS:  cpu time    0.0037: real time    0.0037
    CHARGE:  cpu time    0.2374: real time    0.2374
    MIXING:  cpu time    0.0029: real time    0.0029
    --------------------------------------------
      LOOP:  cpu time    6.8784: real time    6.9077

 eigenvalue-minimisations  :  8520
 total energy-change (2. order) : 0.6409718E-06  (-0.1519336E-06)
 number of electron     320.0000827 magnetization       3.9999879
 augmentation part       64.4731589 magnetization       3.1247256

 Broyden mixing:
  rms(total) = 0.13251E-03    rms(broyden)= 0.13241E-03
  rms(prec ) = 0.18007E-03
  weight for this iteration     100.00

 eigenvalues of (default mixing * dielectric matrix)
  average eigenvalue GAMMA=   1.3263
  3.8734  2.9427  2.3419  1.9449  1.1766  1.1766  0.8761  0.8561  0.6670  0.6670
  0.7360  0.7360  0.6809  0.6341  0.5849

 Free energy of the ion-electron system (eV)
  ---------------------------------------------------
  alpha Z        PSCENC =      1278.33848294
  Ewald energy   TEWEN  =    -16011.11606870
  -Hartree energ DENC   =    -12698.62828494
  -exchange      EXHF   =         0.00000000
  -V(xc)+E(xc)   XCENC  =      1240.15201320
  PAW double counting   =     20555.83442760   -21181.99061772
  entropy T*S    EENTRO =        -0.00000454
  eigenvalues    EBANDS =     -2261.28847166
  atomic energy  EATOM  =     28895.73697308
  Solvation  Ediel_sol  =         0.00000000
  ---------------------------------------------------
  free energy    TOTEN  =      -182.96155074 eV

  energy without entropy =     -182.96154620  energy(sigma->0) =     -182.96154847


--------------------------------------------------------------------------------------------------------




--------------------------------------- Iteration      1(  21)  ---------------------------------------


    POTLOK:  cpu time    0.0862: real time    0.0908
    SETDIJ:  cpu time    0.0069: real time    0.0069
     EDDAV:  cpu time    6.1291: real time    6.1662
       DOS:  cpu time    0.0037: real time    0.0037
    --------------------------------------------
      LOOP:  cpu time    6.2258: real time    6.2676

 eigenvalue-minimisations  :  7672
 total energy-change (2. order) : 0.9872747E-07  (-0.7551649E-07)
 number of electron     320.0000827 magnetization       3.9999879
 augmentation part       64.4731589 magnetization       3.1247256

 Free energy of the ion-electron system (eV)
  ---------------------------------------------------
  alpha Z        PSCENC =      1278.33848294
  Ewald energy   TEWEN  =    -16011.11606870
  -Hartree energ DENC   =    -12698.62671597
  -exchange      EXHF   =         0.00000000
  -V(xc)+E(xc)   XCENC  =      1240.15180594
  PAW double counting   =     20555.85278052   -21182.01004109
  entropy T*S    EENTRO =        -0.00000456
  eigenvalues    EBANDS =     -2261.28876280
  atomic energy  EATOM  =     28895.73697308
  Solvation  Ediel_sol  =         0.00000000
  ---------------------------------------------------
  free energy    TOTEN  =      -182.96155064 eV

  energy without entropy =     -182.96154608  energy(sigma->0) =     -182.96154836


--------------------------------------------------------------------------------------------------------




 average (electrostatic) potential at core
  the test charge radii are     0.7167  0.9791  1.1312
  (the norm of the test charge is              1.0000)
       1 -78.4142       2 -78.4123       3 -78.4123       4 -78.4123       5 -78.4123
       6 -78.4123       7 -78.4124       8 -78.4142       9 -78.4122      10 -78.4122
      11 -78.4141      12 -78.4122      13 -78.4123      14 -78.4123      15 -78.4123
      16 -78.4142      17 -78.4142      18 -78.4124      19 -78.4123      20 -78.4123
      21 -78.4122      22 -78.4141      23 -78.4122      24 -78.4122      25 -46.8051
      26 -46.8051      27 -46.8051      28 -46.7707      29 -46.8050      30 -46.8050
      31 -46.8050      32 -46.7706      33 -49.4740      34 -49.4744      35 -49.4740
      36 -49.4740      37 -49.4740      38 -49.4740      39 -49.4744      40 -49.4740
 
 
 
 E-fermi :   1.0893     XC(G=0):  -8.6946     alpha+bet : -7.8451


 spin component 1

 k-point     1 :       0.0000    0.0000    0.0000
  band No.  band energies     occupation 
      1     -22.3666      1.00000
      2     -22.2789      1.00000
      3     -22.2566      1.00000
      4     -22.2566      1.00000
      5     -22.0354      1.00000
      6     -21.9382      1.00000
      7     -21.9301      1.00000
      8     -21.9301      1.00000
      9     -21.9082      1.00000
     10     -21.9082      1.00000
     11     -21.8578      1.00000
     12     -21.8577      1.00000
     13     -21.8212      1.00000
     14     -21.8093      1.00000
     15     -21.8093      1.00000
     16     -21.7947      1.00000
     17     -21.7936      1.00000
     18     -21.7935      1.00000
     19     -21.7565      1.00000
     20     -21.7524      1.00000
     21     -21.7524      1.00000
     22     -21.7462      1.00000
     23     -21.7461      1.00000
     24     -21.7459      1.00000
     25     -19.7358      1.00000
     26     -19.7358      1.00000
     27     -19.7354      1.00000
     28     -19.7348      1.00000
     29     -19.7327      1.00000
     30     -19.7327      1.00000
     31     -19.7327      1.00000
     32     -19.7098      1.00000
     33      -7.0051      1.00000
     34      -7.0051      1.00000
     35      -6.9204      1.00000
     36      -6.8536      1.00000
     37      -6.8536      1.00000
     38      -6.8533      1.00000
     39      -6.7060      1.00000
     40      -6.7060      1.00000
     41      -6.7043      1.00000
     42      -6.6346      1.00000
     43      -6.6305      1.00000
     44      -6.6304      1.00000
     45      -6.5997      1.00000
     46      -6.5997      1.00000
     47      -6.5865      1.00000
     48      -6.5860      1.00000
     49      -6.5860      1.00000
     50      -6.5631      1.00000
     51      -6.5631      1.00000
     52      -6.5612      1.00000
     53      -6.4944      1.00000
     54      -6.4944      1.00000
     55      -6.4943      1.00000
     56      -6.4316      1.00000
     57      -5.7240      1.00000
     58      -5.5874      1.00000
     59      -5.5227      1.00000
     60      -5.5227      1.00000
     61      -5.1630      1.00000
     62      -5.0741      1.00000
     63      -5.0741      1.00000
     64      -4.8135      1.00000
     65      -4.8087      1.00000
     66      -4.8087      1.00000
     67      -4.7258      1.00000
     68      -4.6818      1.00000
     69      -4.6232      1.00000
     70      -4.6232      1.00000
     71      -4.6011      1.00000
     72      -4.5518      1.00000
     73      -4.5459      1.00000
     74      -4.5458      1.00000
     75      -4.5161      1.00000
     76      -4.5159      1.00000
     77      -4.4936      1.00000
     78      -4.4936      1.00000
     79      -4.0834      1.00000
     80      -4.0583      1.00000
     81      -4.0583      1.00000
     82      -4.0309      1.00000
     83      -4.0309      1.00000
     84      -4.0122      1.00000
     85      -3.9643      1.00000
     86      -3.9624      1.00000
     87      -3.9623      1.00000
     88      -3.9511      1.00000
     89      -3.9511      1.00000
     90      -3.8290      1.00000
     91      -3.8290      1.00000
     92      -3.8122      1.00000
     93      -3.7559      1.00000
     94      -3.7558      1.00000
     95      -3.7030      1.00000
     96      -3.6468      1.00000
     97      -3.6467      1.00000
     98      -3.6067      1.00000
     99      -3.6067      1.00000
    100      -3.5763      1.00000
    101      -3.5371      1.00000
    102      -3.5370      1.00000
    103      -3.4893      1.00000
    104      -3.3745      1.00000
    105      -3.3745      1.00000
    106      -3.3133      1.00000
    107      -3.2372      1.00000
    108      -3.2371      1.00000
    109      -3.0921      1.00000
    110      -3.0106      1.00000
    111      -3.0106      1.00000
    112      -2.9731      1.00000
    113      -2.9731      1.00000
    114      -2.9729      1.00000
    115      -2.9577      1.00000
    116      -2.8554      1.00000
    117      -2.8309      1.00000
    118      -2.8309      1.00000
    119      -2.7561      1.00000
    120      -2.6537      1.00000
    121      -2.6536      1.00000
    122      -2.6139      1.00000
    123      -2.6138      1.00000
    124      -2.6134      1.00000
    125      -2.5099      1.00000
    126      -2.4639      1.00000
    127      -2.4638      1.00000
    128      -2.4293      1.00000
    129      -1.5640      1.00000
    130      -1.3358      1.00000
    131      -1.3193      1.00000
    132      -1.3193      1.00000
    133      -1.2897      1.00000
    134      -1.2897      1.00000
    135      -1.0486      1.00000
    136      -1.0437      1.00000
    137      -1.0437      1.00000
    138      -1.0348      1.00000
    139      -1.0348      1.00000
    140      -1.0346      1.00000
    141      -0.8345      1.00000
    142      -0.8344      1.00000
    143      -0.6869      1.00000
    144      -0.5670      1.00000
    145      -0.5570      1.00000
    146      -0.5569      1.00000
    147      -0.5242      1.00000
    148      -0.5225      1.00000
    149      -0.5225      1.00000
    150      -0.4146      1.00000
    151      -0.4145      1.00000
    152      -0.3808      1.00000
    153      -0.3808      1.00000
    154       0.1046      1.00000
    155       0.1070      1.00000
    156       0.1071      1.00000
    157       0.1422      1.00000
    158       0.1513      1.00000
    159       0.1513      1.00000
    160       0.1645      1.00000
    161       0.1645      1.00000
    162       0.1701      1.00000
    163       1.7954      0.00000
    164       1.8138      0.00000
    165       1.8138      0.00000
    166       1.8435      0.00000
    167       1.8435      0.00000
    168       1.8453      0.00000
    169       3.8750      0.00000
    170       5.4081      0.00000
    171       5.4732      0.00000
    172       5.4732      0.00000
    173       5.8049      0.00000
    174       5.8049      0.00000
    175       5.8107      0.00000
    176       6.1434      0.00000
    177       6.4610      0.00000
    178       6.4610      0.00000
    179       6.4708      0.00000
    180       6.9714      0.00000
    181       6.9715      0.00000
    182       6.9753      0.00000
    183       7.0355      0.00000
    184       7.0357      0.00000
    185       7.1459      0.00000
    186       7.1460      0.00000
    187       7.5097      0.00000
    188       7.5098      0.00000
    189       7.5856      0.00000
    190       7.5973      0.00000
    191       7.5974      0.00000
    192       7.6887      0.00000
    193       7.6905      0.00000
    194       7.6905      0.00000
    195       7.9858      0.00000
    196       8.0499      0.00000

 k-point     2 :       0.5000    0.0000    0.0000
  band No.  band energies     occupation 
      1     -22.3653      1.00000
[...]
   24        1.736   4.329   0.000   6.065
   25        0.296   0.368   8.172   8.837
   26        0.296   0.368   8.172   8.837
   27        0.296   0.368   8.172   8.837
   28        0.296   0.367   8.176   8.839
   29        0.296   0.368   8.172   8.837
   30        0.296   0.368   8.172   8.837
   31        0.296   0.368   8.172   8.837
   32        0.296   0.367   8.176   8.839
   33        1.838   4.719   0.017   6.574
   34        1.838   4.719   0.017   6.574
   35        1.838   4.719   0.017   6.574
   36        1.838   4.719   0.017   6.574
   37        1.838   4.719   0.017   6.574
   38        1.838   4.719   0.017   6.574
   39        1.838   4.719   0.017   6.574
   40        1.838   4.719   0.017   6.574
--------------------------------------------------
tot         58.730 144.589  65.526 268.845
 


 magnetization (x)
 
# of ion       s       p       d       tot
------------------------------------------
    1        0.004   0.101   0.000   0.105
    2        0.000   0.000   0.000   0.000
    3        0.000   0.000   0.000   0.000
    4        0.000   0.000   0.000   0.000
    5        0.000   0.000   0.000   0.000
    6        0.000   0.000   0.000   0.000
    7        0.000   0.000   0.000   0.000
    8        0.004   0.101   0.000   0.105
    9        0.000   0.000   0.000   0.000
   10        0.000   0.000   0.000   0.000
   11        0.004   0.101   0.000   0.105
   12        0.000   0.000   0.000   0.000
   13        0.000   0.000   0.000   0.000
   14        0.000   0.000   0.000   0.000
   15        0.000   0.000   0.000   0.000
   16        0.004   0.101   0.000   0.105
   17        0.004   0.101   0.000   0.105
   18        0.000   0.000   0.000   0.000
   19        0.000   0.000   0.000   0.000
   20        0.000   0.000   0.000   0.000
   21        0.000   0.000   0.000   0.000
   22        0.004   0.101   0.000   0.105
   23        0.000   0.000   0.000   0.000
   24        0.000   0.000   0.000   0.000
   25        0.002   0.002   1.647   1.651
   26        0.002   0.002   1.647   1.651
   27        0.002   0.002   1.647   1.651
   28        0.000  -0.001   1.644   1.642
   29       -0.002  -0.002  -1.646  -1.650
   30       -0.002  -0.002  -1.646  -1.650
   31       -0.002  -0.002  -1.646  -1.651
   32        0.000  -0.001   1.644   1.642
   33        0.000   0.000   0.000   0.001
   34       -0.000   0.000   0.000   0.000
   35        0.000   0.000   0.000   0.001
   36        0.000   0.000   0.000   0.001
   37        0.000   0.000   0.000   0.001
   38        0.000   0.000   0.000   0.001
   39       -0.000   0.000   0.000   0.000
   40        0.000   0.000   0.000   0.001
--------------------------------------------------
tot          0.025   0.604   3.288   3.917
 
    CHARGE:  cpu time    0.2885: real time    0.2888
    FORLOC:  cpu time    0.0028: real time    0.0028
    FORNL :  cpu time    0.8459: real time    0.8459
    STRESS:  cpu time    2.5483: real time    2.6185
    FORCOR:  cpu time    0.0748: real time    0.0748
    FORHAR:  cpu time    0.0110: real time    0.0110
    MIXING:  cpu time    0.0015: real time    0.0015
    OFIELD:  cpu time    0.0000: real time    0.0000

  FORCE on cell =-STRESS in cart. coord.  units (eV):
  Direction    XX          YY          ZZ          XY          YZ          ZX
  --------------------------------------------------------------------------------------
  Alpha Z  1278.33848  1278.33848  1278.33848
  Ewald   -7609.75632 -7610.00282  -791.44196    -0.20307    -0.00000     0.00000
  Hartree  2322.02469  2321.81827  8054.77749    -0.18069     0.00000    -0.00000
  E(xc)   -1677.15770 -1677.15877 -1675.09839    -0.00110     0.00000    -0.00000
  Local     556.73138   557.16251-11901.22843     0.37953    -0.00001     0.00001
  n-local -1126.62928 -1126.64985 -1112.78222     0.00598     0.00007     0.00005
  augment   750.36178   750.36641   727.80756     0.00187     0.00000     0.00001
  Kinetic  5506.21761  5506.40428  5419.48142    -0.04962    -0.00004    -0.00003
  Fock        0.00000     0.00000     0.00000     0.00000     0.00000     0.00000
  -------------------------------------------------------------------------------------
  Total       0.20649     0.20266    -0.14605    -0.00332    -0.00000     0.00001
  in kB       0.43964     0.43148    -0.31095    -0.00706    -0.00001     0.00001
  external pressure =        0.19 kB  Pullay stress =        0.00 kB


 VOLUME and BASIS-vectors are now :
 -----------------------------------------------------------------------------
  energy-cutoff  :      520.00
  volume of cell :      752.52
      direct lattice vectors                 reciprocal lattice vectors
    12.775245568  0.000000000  0.000000000     0.078276382  0.045192789  0.000000000
    -6.387622784 11.063711963  0.000000000     0.000000000  0.090385578  0.000000000
     0.000000000  0.000000000  5.324128930     0.000000000  0.000000000  0.187824152

  length of vectors
    12.775245568 12.775267012  5.324128930     0.090385730  0.090385578  0.187824152


 FORCES acting on ions
    electron-ion (+dipol)            ewald-force                    non-local-force                 convergence-correction
 -----------------------------------------------------------------------------------------------
   0.391E-03 -.392E+03 0.267E-03   -.107E-02 0.408E+03 -.641E-08   0.651E-03 -.163E+02 -.211E-03   -.560E-05 0.268E-04 0.139E-04
   0.390E-03 -.392E+03 0.213E-04   -.107E-02 0.408E+03 -.641E-08   0.653E-03 -.164E+02 -.523E-04   -.722E-05 0.831E-04 0.189E-05
   0.108E-03 -.392E+03 0.550E-03   -.107E-02 0.408E+03 -.641E-08   0.605E-03 -.164E+02 -.477E-03   0.300E-03 -.402E-03 0.185E-05
   0.676E-03 -.392E+03 0.535E-03   -.107E-02 0.408E+03 -.641E-08   0.702E-03 -.164E+02 -.483E-03   -.315E-03 -.384E-03 0.219E-04
   0.339E+03 0.196E+03 0.580E-03   -.354E+03 -.204E+03 -.641E-08   0.142E+02 0.818E+01 -.483E-03   0.175E-03 0.465E-03 0.219E-04
   0.339E+03 0.196E+03 0.668E-04   -.354E+03 -.204E+03 -.642E-08   0.142E+02 0.818E+01 -.523E-04   -.756E-04 -.353E-04 0.189E-05
   0.339E+03 0.196E+03 0.596E-03   -.354E+03 -.204E+03 -.642E-08   0.142E+02 0.818E+01 -.477E-03   0.498E-03 -.588E-04 0.185E-05
   0.339E+03 0.196E+03 0.313E-03   -.354E+03 -.204E+03 -.642E-08   0.142E+02 0.817E+01 -.211E-03   -.259E-04 -.855E-05 0.139E-04
   -.339E+03 0.196E+03 0.574E-03   0.354E+03 -.204E+03 -.641E-08   -.142E+02 0.818E+01 -.478E-03   -.175E-03 0.458E-03 0.114E-05
   -.339E+03 0.196E+03 0.295E-04   0.354E+03 -.204E+03 -.641E-08   -.142E+02 0.818E+01 -.582E-04   0.781E-04 -.451E-04 0.215E-04
   -.339E+03 0.196E+03 0.293E-03   0.354E+03 -.204E+03 -.641E-08   -.142E+02 0.817E+01 -.213E-03   0.307E-04 -.178E-04 0.116E-04
   -.339E+03 0.196E+03 0.574E-03   0.354E+03 -.204E+03 -.641E-08   -.142E+02 0.818E+01 -.478E-03   -.484E-03 -.772E-04 0.114E-05
   -.676E-03 0.392E+03 -.535E-03   0.107E-02 -.408E+03 -.641E-08   -.702E-03 0.164E+02 0.483E-03   0.315E-03 0.384E-03 -.219E-04
   -.108E-03 0.392E+03 -.550E-03   0.107E-02 -.408E+03 -.641E-08   -.605E-03 0.164E+02 0.477E-03   -.300E-03 0.402E-03 -.185E-05
   -.390E-03 0.392E+03 -.215E-04   0.107E-02 -.408E+03 -.641E-08   -.653E-03 0.164E+02 0.523E-04   0.722E-05 -.831E-04 -.189E-05
   -.391E-03 0.392E+03 -.268E-03   0.107E-02 -.408E+03 -.641E-08   -.651E-03 0.163E+02 0.211E-03   0.560E-05 -.268E-04 -.139E-04
   -.339E+03 -.196E+03 -.313E-03   0.354E+03 0.204E+03 -.642E-08   -.142E+02 -.817E+01 0.211E-03   0.259E-04 0.855E-05 -.139E-04
   -.339E+03 -.196E+03 -.596E-03   0.354E+03 0.204E+03 -.642E-08   -.142E+02 -.818E+01 0.477E-03   -.498E-03 0.588E-04 -.185E-05
   -.339E+03 -.196E+03 -.669E-04   0.354E+03 0.204E+03 -.642E-08   -.142E+02 -.818E+01 0.523E-04   0.756E-04 0.353E-04 -.189E-05
   -.339E+03 -.196E+03 -.580E-03   0.354E+03 0.204E+03 -.642E-08   -.142E+02 -.818E+01 0.483E-03   -.175E-03 -.465E-03 -.219E-04
   0.339E+03 -.196E+03 -.575E-03   -.354E+03 0.204E+03 -.641E-08   0.142E+02 -.818E+01 0.478E-03   0.484E-03 0.772E-04 -.114E-05
   0.339E+03 -.196E+03 -.293E-03   -.354E+03 0.204E+03 -.641E-08   0.142E+02 -.817E+01 0.213E-03   -.307E-04 0.178E-04 -.116E-04
   0.339E+03 -.196E+03 -.296E-04   -.354E+03 0.204E+03 -.641E-08   0.142E+02 -.818E+01 0.582E-04   -.781E-04 0.451E-04 -.215E-04
   0.339E+03 -.196E+03 -.575E-03   -.354E+03 0.204E+03 -.641E-08   0.142E+02 -.818E+01 0.478E-03   0.175E-03 -.458E-03 -.114E-05
   -.460E-10 0.972E-09 -.322E-08   0.265E-09 -.724E-08 0.206E-07   0.331E-23 0.000E+00 0.000E+00   0.791E-12 0.235E-09 0.367E-11
   -.452E-10 0.972E-09 -.322E-08   0.265E-09 -.724E-08 0.206E-07   0.000E+00 0.000E+00 0.000E+00   0.827E-12 0.235E-09 0.371E-11
   -.159E-08 0.665E-08 -.224E-08   0.874E-08 0.171E-08 0.100E-07   0.000E+00 0.000E+00 0.000E+00   0.384E-11 -.212E-09 -.585E-11
   -.158E-08 0.666E-08 -.221E-08   0.874E-08 0.171E-08 0.100E-07   0.331E-23 0.000E+00 0.000E+00   0.340E-11 -.211E-09 -.577E-11
   -.465E-10 0.972E-09 -.368E-08   0.267E-09 -.724E-08 0.181E-07   0.000E+00 0.000E+00 0.000E+00   0.713E-12 0.235E-09 -.392E-11
   -.457E-10 0.972E-09 -.368E-08   0.267E-09 -.724E-08 0.181E-07   0.000E+00 0.000E+00 0.000E+00   0.802E-12 0.235E-09 -.400E-11
   -.159E-08 0.665E-08 -.470E-08   0.874E-08 0.171E-08 0.287E-07   0.827E-24 0.000E+00 0.000E+00   0.379E-11 -.212E-09 0.560E-11
   -.159E-08 0.666E-08 -.468E-08   0.874E-08 0.171E-08 0.287E-07   0.414E-24 0.000E+00 0.000E+00   0.338E-11 -.211E-09 0.548E-11
   -.768E-02 0.372E-02 0.467E-04   0.754E-02 -.538E-02 -.113E-09   0.150E-03 0.285E-03 -.123E-03   -.989E-06 0.609E-03 -.106E-04
   -.768E-02 0.542E-02 0.678E-07   0.754E-02 -.538E-02 -.113E-09   0.149E-03 -.863E-04 0.617E-05   -.113E-04 0.648E-05 -.585E-05
   -.915E-02 0.627E-02 0.458E-04   0.754E-02 -.538E-02 -.113E-09   0.472E-03 -.272E-03 -.123E-03   0.519E-03 -.299E-03 -.973E-05
   -.621E-02 0.627E-02 0.467E-04   0.754E-02 -.538E-02 -.113E-09   -.172E-03 -.272E-03 -.123E-03   -.528E-03 -.304E-03 -.106E-04
   0.621E-02 -.627E-02 -.468E-04   -.754E-02 0.538E-02 -.113E-09   0.172E-03 0.272E-03 0.123E-03   0.528E-03 0.304E-03 0.106E-04
   0.915E-02 -.627E-02 -.459E-04   -.754E-02 0.538E-02 -.113E-09   -.472E-03 0.272E-03 0.123E-03   -.519E-03 0.299E-03 0.973E-05
   0.768E-02 -.542E-02 -.123E-06   -.754E-02 0.538E-02 -.113E-09   -.149E-03 0.863E-04 -.617E-05   0.113E-04 -.648E-05 0.585E-05
   0.768E-02 -.372E-02 -.468E-04   -.754E-02 0.538E-02 -.113E-09   -.150E-03 -.285E-03 0.123E-03   0.989E-06 -.609E-03 0.106E-04
 -----------------------------------------------------------------------------------------------
   0.289E-07 0.200E-05 -.239E-05   0.541E-12 0.107E-12 -.791E-14   -.533E-14 -.142E-13 0.000E+00   0.242E-10 0.105E-09 0.358E-10
 
 
 POSITION                                       TOTAL-FORCE (eV/Angst)
 -----------------------------------------------------------------------------------
      3.19377      7.08259      1.33103         0.000005      0.001823      0.000093
     -3.19385      7.08259      1.33103         0.000005      0.012707     -0.000006
      6.38758      1.55073      1.33103        -0.000019      0.012739      0.000098
     -0.00004      1.55073      1.33103         0.000031      0.012742      0.000097
      5.04463     10.28838      1.33103        -0.011020     -0.006398      0.000097
     -1.34299     10.28838      1.33103        -0.011002     -0.006358     -0.000006
      8.23844      4.75653      1.33103        -0.011042     -0.006353      0.000098
      1.85082      4.75653      1.33103        -0.001576     -0.000916      0.000093
      1.34300     10.28833      1.33103         0.010882     -0.006311      0.000098
     -5.04462     10.28833      1.33103         0.010855     -0.006267     -0.000007
      4.53681      4.75647      1.33103         0.001445     -0.000835      0.000092
     -1.85081      4.75647      1.33103         0.010906     -0.006269      0.000098
      6.38767      9.51298      3.99310        -0.000031     -0.012742     -0.000097
      0.00004      9.51298      3.99310         0.000019     -0.012739     -0.000098
      9.58148      3.98112      3.99310        -0.000005     -0.012707      0.000006
      3.19385      3.98112      3.99310        -0.000005     -0.001823     -0.000093
      4.53680      6.30718      3.99310         0.001576      0.000916     -0.000093
     -1.85082      6.30718      3.99310         0.011042      0.006353     -0.000098
      7.73061      0.77533      3.99310         0.011002      0.006358      0.000006
      1.34299      0.77533      3.99310         0.011020      0.006398     -0.000097
      8.23843      6.30724      3.99310        -0.010906      0.006269     -0.000098
      1.85081      6.30724      3.99310        -0.001445      0.000835     -0.000092
     11.43224      0.77538      3.99310        -0.010855      0.006267      0.000007
      5.04462      0.77538      3.99310        -0.010882      0.006311     -0.000098
      0.00000      0.00000      0.00000        -0.000000     -0.000000      0.000000
      6.38762      0.00000      0.00000        -0.000000     -0.000000      0.000000
      9.58143      5.53186      0.00000        -0.000000     -0.000000      0.000000
      3.19381      5.53186      0.00000        -0.000000     -0.000000      0.000000
      0.00000      0.00000      2.66206        -0.000000     -0.000000      0.000000
      6.38762      0.00000      2.66206        -0.000000     -0.000000      0.000000
      9.58143      5.53186      2.66206        -0.000000     -0.000000      0.000000
      3.19381      5.53186      2.66206        -0.000000     -0.000000      0.000000
      3.19382      9.21975      3.99310         0.000024     -0.000738     -0.000087
     -3.19380      9.21975      3.99310         0.000022     -0.000013      0.000000
      6.38763      3.68790      3.99310        -0.000603      0.000348     -0.000086
      0.00001      3.68790      3.99310         0.000651      0.000348     -0.000087
      6.38761      7.37581      1.33103        -0.000651     -0.000348      0.000087
     -0.00001      7.37581      1.33103         0.000603     -0.000348      0.000086
      9.58143      1.84396      1.33103        -0.000022      0.000013     -0.000000
      3.19380      1.84396      1.33103        -0.000024      0.000738      0.000087
 -----------------------------------------------------------------------------------
    total drift:                                0.000000      0.000002     -0.000002


--------------------------------------------------------------------------------------------------------



  FREE ENERGIE OF THE ION-ELECTRON SYSTEM (eV)
  ---------------------------------------------------
  free  energy   TOTEN  =      -182.96155064 eV

  energy  without entropy=     -182.96154608  energy(sigma->0) =     -182.96154836
 


--------------------------------------------------------------------------------------------------------


    POTLOK:  cpu time    0.0920: real time    0.0920


--------------------------------------------------------------------------------------------------------


     LOOP+:  cpu time  155.1640: real time  155.9053
    4ORBIT:  cpu time    0.0000: real time    0.0000
 


 total charge     
 
# of ion       s       p       d       tot
------------------------------------------
    1        1.736   4.328   0.000   6.064
    2        1.736   4.329   0.000   6.065
    3        1.736   4.329   0.000   6.065
    4        1.736   4.329   0.000   6.065
    5        1.736   4.329   0.000   6.065
    6        1.736   4.329   0.000   6.065
    7        1.736   4.329   0.000   6.065
    8        1.736   4.329   0.000   6.065
    9        1.736   4.329   0.000   6.065
   10        1.736   4.329   0.000   6.065
   11        1.736   4.329   0.000   6.064
   12        1.736   4.329   0.000   6.065
   13        1.736   4.329   0.000   6.065
   14        1.736   4.329   0.000   6.065
   15        1.736   4.329   0.000   6.065
   16        1.736   4.328   0.000   6.064
   17        1.736   4.329   0.000   6.065
   18        1.736   4.329   0.000   6.065
   19        1.736   4.329   0.000   6.065
   20        1.736   4.329   0.000   6.065
   21        1.736   4.329   0.000   6.065
   22        1.736   4.329   0.000   6.064
   23        1.736   4.329   0.000   6.065
   24        1.736   4.329   0.000   6.065
   25        0.296   0.368   8.172   8.837
   26        0.296   0.368   8.172   8.837
   27        0.296   0.368   8.172   8.837
   28        0.296   0.367   8.176   8.839
   29        0.296   0.368   8.172   8.837
   30        0.296   0.368   8.172   8.837
   31        0.296   0.368   8.172   8.837
   32        0.296   0.367   8.176   8.839
   33        1.838   4.719   0.017   6.574
   34        1.838   4.719   0.017   6.574
   35        1.838   4.719   0.017   6.574
   36        1.838   4.719   0.017   6.574
   37        1.838   4.719   0.017   6.574
   38        1.838   4.719   0.017   6.574
   39        1.838   4.719   0.017   6.574
   40        1.838   4.719   0.017   6.574
--------------------------------------------------
tot         58.730 144.589  65.526 268.845
 


 magnetization (x)
 
# of ion       s       p       d       tot
------------------------------------------
    1        0.004   0.101   0.000   0.105
    2        0.000   0.000   0.000   0.000
    3        0.000   0.000   0.000   0.000
    4        0.000   0.000   0.000   0.000
    5        0.000   0.000   0.000   0.000
    6        0.000   0.000   0.000   0.000
    7        0.000   0.000   0.000   0.000
    8        0.004   0.101   0.000   0.105
    9        0.000   0.000   0.000   0.000
   10        0.000   0.000   0.000   0.000
   11        0.004   0.101   0.000   0.105
   12        0.000   0.000   0.000   0.000
   13        0.000   0.000   0.000   0.000
   14        0.000   0.000   0.000   0.000
   15        0.000   0.000   0.000   0.000
   16        0.004   0.101   0.000   0.105
   17        0.004   0.101   0.000   0.105
   18        0.000   0.000   0.000   0.000
   19        0.000   0.000   0.000   0.000
   20        0.000   0.000   0.000   0.000
   21        0.000   0.000   0.000   0.000
   22        0.004   0.101   0.000   0.105
   23        0.000   0.000   0.000   0.000
   24        0.000   0.000   0.000   0.000
   25        0.002   0.002   1.647   1.651
   26        0.002   0.002   1.647   1.651
   27        0.002   0.002   1.647   1.651
   28        0.000  -0.001   1.644   1.642
   29       -0.002  -0.002  -1.646  -1.650
   30       -0.002  -0.002  -1.646  -1.650
   31       -0.002  -0.002  -1.646  -1.651
   32        0.000  -0.001   1.644   1.642
   33        0.000   0.000   0.000   0.001
   34       -0.000   0.000   0.000   0.000
   35        0.000   0.000   0.000   0.001
   36        0.000   0.000   0.000   0.001
   37        0.000   0.000   0.000   0.001
   38        0.000   0.000   0.000   0.001
   39       -0.000   0.000   0.000   0.000
   40        0.000   0.000   0.000   0.001
--------------------------------------------------
tot          0.025   0.604   3.288   3.917
 

 total amount of memory used by VASP MPI-rank0    53603. kBytes
=======================================================================

   base      :      30000. kBytes
   nonlr-proj:       7318. kBytes
   fftplans  :       1046. kBytes
   grid      :       2759. kBytes
   one-center:         62. kBytes
   wavefun   :      12418. kBytes
 
  
  
 General timing and accounting informations for this job:
 ========================================================
  
                  Total CPU time used (sec):      166.166
                            User time (sec):      162.433
                          System time (sec):        3.733
                         Elapsed time (sec):      169.596
  
                   Maximum memory used (kb):      125560.
                   Average memory used (kb):           0.
  
                          Minor page faults:        55925
                          Major page faults:           15
                 Voluntary context switches:         3378
