 vasp.5.4.4.18Apr17-6-g9f103f2a35 (build Dec 20 2018 12:05:58) complex          
  
 executed on             LinuxIFC date 2019.06.21  00:01:15
 running on   32 total cores
 distrk:  each k-point on    8 cores,    4 groups
 distr:  one band on NCORES_PER_BAND=   4 cores,    2 groups


--------------------------------------------------------------------------------------------------------


 INCAR:
 POTCAR:    PAW_PBE Al 04Jan2001                  
 POTCAR:    PAW_PBE Mn 06Sep2000                  

 ----------------------------------------------------------------------------- 
|                                                                             |
|           W    W    AA    RRRRR   N    N  II  N    N   GGGG   !!!           |
|           W    W   A  A   R    R  NN   N  II  NN   N  G    G  !!!           |
|           W    W  A    A  R    R  N N  N  II  N N  N  G       !!!           |
|           W WW W  AAAAAA  RRRRR   N  N N  II  N  N N  G  GGG   !            |
|           WW  WW  A    A  R   R   N   NN  II  N   NN  G    G                |
|           W    W  A    A  R    R  N    N  II  N    N   GGGG   !!!           |
|                                                                             |
|      You have enabled k-point parallelism (KPAR>1).                         |
|      This developmental code was originally  written by Paul Kent at ORNL,  |
|      and carefully double checked in Vienna.                                |
|      GW as well as linear response parallelism added by Martijn Marsman     |
|      and Georg Kresse.                                                      |
|      Carefully verify results versus KPAR=1.                                |
|      Report problems to Paul Kent and Vienna.                               |
|                                                                             |
 ----------------------------------------------------------------------------- 

 POTCAR:    PAW_PBE Al 04Jan2001                  
   VRHFIN =Al: s2p1                                                             
   LEXCH  = PE                                                                  
   EATOM  =    53.5387 eV,    3.9350 Ry                                         
                                                                                
   TITEL  = PAW_PBE Al 04Jan2001                                                
   LULTRA =        F    use ultrasoft PP ?                                      
   IUNSCR =        1    unscreen: 0-lin 1-nonlin 2-no                           
   RPACOR =    1.500    partial core radius                                     
   POMASS =   26.981; ZVAL   =    3.000    mass and valenz                      
   RCORE  =    1.900    outmost cutoff radius                                   
   RWIGS  =    2.650; RWIGS  =    1.402    wigner-seitz radius (au A)           
   ENMAX  =  240.300; ENMIN  =  180.225 eV                                      
   ICORE  =        2    local potential                                         
   LCOR   =        T    correct aug charges                                     
   LPAW   =        T    paw PP                                                  
   EAUG   =  291.052                                                            
   DEXC   =    0.000                                                            
   RMAX   =    1.939    core radius for proj-oper                               
   RAUG   =    1.300    factor for augmentation sphere                          
   RDEP   =    1.966    radius for radial grids                                 
   RDEPT  =    1.856    core radius for aug-charge                              
                                                                                
   Atomic configuration                                                         
    6 entries                                                                   
     n  l   j            E        occ.                                          
     1  0  0.50     -1511.1048   2.0000                                         
     2  0  0.50      -108.1629   2.0000                                         
     2  1  1.50       -69.6402   6.0000                                         
     3  0  0.50        -7.7528   2.0000                                         
     3  1  1.50        -2.7121   1.0000                                         
     3  2  2.50        -2.7212   0.0000                                         
   Description                                                                  
     l       E           TYP  RCUT    TYP  RCUT                                 
     0     -7.7528455     23  1.900                                             
     0     -3.3096929     23  1.900                                             
     1     -2.7120682     23  1.900                                             
     1     13.6058260     23  1.900                                             
     2     -2.7211652      7  1.900                                             
  local pseudopotential read in
  partial core-charges read in
  partial kinetic energy density read in
  atomic valenz-charges read in
  non local Contribution for L=           0  read in
    real space projection operators read in
  non local Contribution for L=           0  read in
    real space projection operators read in
  non local Contribution for L=           1  read in
    real space projection operators read in
  non local Contribution for L=           1  read in
    real space projection operators read in
    PAW grid and wavefunctions read in
 
   number of l-projection  operators is LMAX  =           4
   number of lm-projection operators is LMMAX =           8
 
 POTCAR:    PAW_PBE Mn 06Sep2000                  
   VRHFIN =Mn: d6 s1                                                            
   LEXCH  = PE                                                                  
   EATOM  =   416.7541 eV,   30.6306 Ry                                         
                                                                                
   TITEL  = PAW_PBE Mn 06Sep2000                                                
   LULTRA =        F    use ultrasoft PP ?                                      
   IUNSCR =        1    unscreen: 0-lin 1-nonlin 2-no                           
   RPACOR =    2.000    partial core radius                                     
   POMASS =   54.938; ZVAL   =    7.000    mass and valenz                      
   RCORE  =    2.300    outmost cutoff radius                                   
   RWIGS  =    2.500; RWIGS  =    1.323    wigner-seitz radius (au A)           
   ENMAX  =  269.864; ENMIN  =  202.398 eV                                      
   RCLOC  =    1.725    cutoff for local pot                                    
   LCOR   =        T    correct aug charges                                     
   LPAW   =        T    paw PP                                                  
   EAUG   =  500.711                                                            
   DEXC   =    0.000                                                            
   RMAX   =    2.343    core radius for proj-oper                               
   RAUG   =    1.300    factor for augmentation sphere                          
   RDEP   =    2.338    radius for radial grids                                 
   RDEPT  =    1.911    core radius for aug-charge                              
                                                                                
   Atomic configuration                                                         
    9 entries                                                                   
     n  l   j            E        occ.                                          
     1  0  0.50     -6424.8288   2.0000                                         
     2  0  0.50      -739.1154   2.0000                                         
     2  1  1.50      -625.3949   6.0000                                         
     3  0  0.50       -81.6100   2.0000                                         
     3  1  1.50       -50.4667   6.0000                                         
     3  2  2.50        -3.3745   6.0000                                         
     4  0  0.50        -4.1331   1.0000                                         
     4  1  0.50        -4.0817   0.0000                                         
     4  3  2.50        -1.3606   0.0000                                         
   Description                                                                  
     l       E           TYP  RCUT    TYP  RCUT                                 
     2     -3.3744664     23  2.300                                             
     2     -4.7350490     23  2.300                                             
     0     -4.1331408     23  2.300                                             
     0      7.6656614     23  2.300                                             
     1     -2.7211652     23  2.300                                             
     1     20.4087390     23  2.300                                             
  local pseudopotential read in
  partial core-charges read in
  partial kinetic energy density read in
  atomic valenz-charges read in
  non local Contribution for L=           2  read in
    real space projection operators read in
  non local Contribution for L=           2  read in
    real space projection operators read in
  non local Contribution for L=           0  read in
    real space projection operators read in
  non local Contribution for L=           0  read in
    real space projection operators read in
  non local Contribution for L=           1  read in
    real space projection operators read in
  non local Contribution for L=           1  read in
    real space projection operators read in
    PAW grid and wavefunctions read in
 
   number of l-projection  operators is LMAX  =           6
   number of lm-projection operators is LMMAX =          18
 

 ----------------------------------------------------------------------------- 
|                                                                             |
|  ADVICE TO THIS USER RUNNING 'VASP/VAMP'   (HEAR YOUR MASTER'S VOICE ...):  |
|                                                                             |
|      You have a (more or less) 'large supercell' and for larger cells       |
|      it might be more efficient to use real space projection opertators     |
|      So try LREAL= Auto  in the INCAR   file.                               |
|      Mind:          For very  accurate calculation you might also keep the  |
|      reciprocal projection scheme          (i.e. LREAL=.FALSE.)             |
|                                                                             |
 ----------------------------------------------------------------------------- 

  PAW_PBE Al 04Jan2001                  :
 energy of atom  1       EATOM=  -53.5387
 kinetic energy error for atom=    0.0005 (will be added to EATOM!!)
  PAW_PBE Mn 06Sep2000                  :
 energy of atom  2       EATOM= -416.7541
 kinetic energy error for atom=    0.0080 (will be added to EATOM!!)
 
 
 POSCAR: NewRef: 27, @ ['Mn', array([1.37502469, 
  positions in cartesian coordinates
  velocities in cartesian coordinates
  No initial velocities read in
 exchange correlation table for  LEXCH =        8
   RHO(1)=    0.500       N(1)  =     2000
   RHO(2)=  100.500       N(2)  =     4000
 


--------------------------------------------------------------------------------------------------------


 ion  position               nearest neighbor table
   1  0.000  0.000  0.000-  28 2.61  30 2.61  34 2.61  36 2.61  46 2.61  48 2.61  52 2.61  54 2.61
                             4 2.75  10 2.75   7 2.75  19 2.75
   2  0.000  0.000  0.333-  28 2.61  34 2.61  46 2.61  52 2.61  29 2.61  47 2.61  35 2.61  53 2.61
                             5 2.75  11 2.75   8 2.75  20 2.75
   3  0.000  0.000  0.667-  29 2.61  35 2.61  47 2.61  53 2.61  30 2.61  48 2.61  36 2.61  54 2.61
                             6 2.75  12 2.75   9 2.75  21 2.75
   4  0.000  0.333  0.000-  28 2.61  30 2.61  46 2.61  48 2.61  31 2.61  33 2.61  49 2.61  51 2.61
                            13 2.75   1 2.75   7 2.75  22 2.75
   5  0.000  0.333  0.333-  28 2.61  46 2.61  31 2.61  49 2.61  47 2.61  29 2.61  32 2.61  50 2.61
                            14 2.75   2 2.75   8 2.75  23 2.75
   6  0.000  0.333  0.667-  29 2.61  47 2.61  32 2.61  50 2.61  48 2.61  30 2.61  33 2.61  51 2.61
                            15 2.75   3 2.75   9 2.75  24 2.75
   7  0.000  0.667  0.000-  31 2.61  33 2.61  49 2.61  51 2.61  34 2.61  36 2.61  52 2.61  54 2.61
                             4 2.75  16 2.75   1 2.75  25 2.75
   8  0.000  0.667  0.333-  31 2.61  49 2.61  34 2.61  52 2.61  50 2.61  32 2.61  35 2.61  53 2.61
                             5 2.75  17 2.75   2 2.75  26 2.75
   9  0.000  0.667  0.667-  32 2.61  50 2.61  35 2.61  53 2.61  51 2.61  33 2.61  36 2.61  54 2.61
                             6 2.75  18 2.75   3 2.75  27 2.75
  10  0.333  0.000  0.000-  28 2.61  30 2.61  34 2.61  36 2.61  37 2.61  39 2.61  43 2.61  45 2.61
                            19 2.75   1 2.75  13 2.75  16 2.75
  11  0.333  0.000  0.333-  28 2.61  34 2.61  37 2.61  43 2.61  29 2.61  35 2.61  38 2.61  44 2.61
                            20 2.75   2 2.75  14 2.75  17 2.75
  12  0.333  0.000  0.667-  29 2.61  35 2.61  38 2.61  44 2.61  30 2.61  36 2.61  39 2.61  45 2.61
                            21 2.75   3 2.75  15 2.75  18 2.75
  13  0.333  0.333  0.000-  28 2.61  30 2.61  31 2.61  33 2.61  37 2.61  39 2.61  40 2.61  42 2.61
                             4 2.75  10 2.75  16 2.75  22 2.75
  14  0.333  0.333  0.333-  28 2.61  31 2.61  37 2.61  29 2.61  40 2.61  38 2.61  32 2.61  41 2.61
                             5 2.75  11 2.75  17 2.75  23 2.75
  15  0.333  0.333  0.667-  29 2.61  32 2.61  38 2.61  30 2.61  41 2.61  39 2.61  33 2.61  42 2.61
                             6 2.75  12 2.75  18 2.75  24 2.75
  16  0.333  0.667  0.000-  31 2.61  33 2.61  34 2.61  36 2.61  40 2.61  42 2.61  43 2.61  45 2.61
                            25 2.75   7 2.75  13 2.75  10 2.75
  17  0.333  0.667  0.333-  31 2.61  34 2.61  40 2.61  32 2.61  43 2.61  41 2.61  35 2.61  44 2.61
                            26 2.75   8 2.75  14 2.75  11 2.75
  18  0.333  0.667  0.667-  32 2.61  35 2.61  41 2.61  33 2.61  44 2.61  42 2.61  36 2.61  45 2.61
                            27 2.75   9 2.75  15 2.75  12 2.75
  19  0.667  0.000  0.000-  37 2.61  39 2.61  43 2.61  45 2.61  46 2.61  48 2.61  52 2.61  54 2.61
                            10 2.75  22 2.75   1 2.75  25 2.75
  20  0.667  0.000  0.333-  37 2.61  43 2.61  46 2.61  52 2.61  38 2.61  44 2.61  47 2.61  53 2.61
                            11 2.75  23 2.75   2 2.75  26 2.75
  21  0.667  0.000  0.667-  38 2.61  44 2.61  47 2.61  53 2.61  39 2.61  45 2.61  48 2.61  54 2.61
                            12 2.75  24 2.75   3 2.75  27 2.75
  22  0.667  0.333  0.000-  37 2.61  39 2.61  40 2.61  42 2.61  46 2.61  48 2.61  49 2.61  51 2.61
                            25 2.75  13 2.75  19 2.75   4 2.75
  23  0.667  0.333  0.333-  37 2.61  40 2.61  46 2.61  38 2.61  49 2.61  47 2.61  41 2.61  50 2.61
                            26 2.75  14 2.75  20 2.75   5 2.75
  24  0.667  0.333  0.667-  38 2.61  41 2.61  47 2.61  39 2.61  50 2.61  48 2.61  42 2.61  51 2.61
                            27 2.75  15 2.75  21 2.75   6 2.75
  25  0.667  0.667  0.000-  40 2.61  42 2.61  43 2.61  45 2.61  49 2.61  51 2.61  52 2.61  54 2.61
                            16 2.75  22 2.75  19 2.75   7 2.75
  26  0.667  0.667  0.333-  40 2.61  43 2.61  49 2.61  41 2.61  52 2.61  50 2.61  44 2.61  53 2.61
                            17 2.75  23 2.75  20 2.75   8 2.75
  27  0.667  0.667  0.667-  41 2.61  44 2.61  50 2.61  42 2.61  53 2.61  51 2.61  45 2.61  54 2.61
                            18 2.75  24 2.75  21 2.75   9 2.75
  28  0.167  0.167  0.167-  14 2.61  11 2.61   5 2.61  13 2.61   2 2.61  10 2.61   4 2.61   1 2.61
                            31 2.75  37 2.75  34 2.75  46 2.75
  29  0.167  0.167  0.500-  15 2.61  12 2.61   6 2.61  14 2.61   3 2.61  11 2.61   5 2.61   2 2.61
                            32 2.75  38 2.75  35 2.75  47 2.75
  30  0.167  0.167  0.833-  13 2.61  15 2.61  10 2.61  12 2.61   4 2.61   6 2.61   1 2.61   3 2.61
                            33 2.75  39 2.75  36 2.75  48 2.75
  31  0.167  0.500  0.167-  17 2.61  14 2.61   8 2.61  16 2.61   5 2.61  13 2.61   7 2.61   4 2.61
                            28 2.75  34 2.75  40 2.75  49 2.75
  32  0.167  0.500  0.500-  18 2.61  15 2.61   9 2.61  17 2.61   6 2.61  14 2.61   8 2.61   5 2.61
                            29 2.75  35 2.75  41 2.75  50 2.75
  33  0.167  0.500  0.833-  16 2.61  18 2.61  13 2.61  15 2.61   7 2.61   9 2.61   4 2.61   6 2.61
                            30 2.75  36 2.75  42 2.75  51 2.75
  34  0.167  0.833  0.167-  11 2.61  17 2.61   2 2.61   8 2.61  16 2.61  10 2.61   7 2.61   1 2.61
                            31 2.75  43 2.75  28 2.75  52 2.75
  35  0.167  0.833  0.500-  12 2.61  18 2.61   3 2.61   9 2.61  17 2.61  11 2.61   8 2.61   2 2.61
                            32 2.75  44 2.75  29 2.75  53 2.75
  36  0.167  0.833  0.833-  10 2.61  12 2.61  16 2.61  18 2.61   1 2.61   3 2.61   7 2.61   9 2.61
                            33 2.75  45 2.75  30 2.75  54 2.75
  37  0.500  0.167  0.167-  23 2.61  20 2.61  14 2.61  22 2.61  11 2.61  19 2.61  13 2.61  10 2.61
                            28 2.75  40 2.75  46 2.75  43 2.75
  38  0.500  0.167  0.500-  24 2.61  21 2.61  15 2.61  23 2.61  12 2.61  20 2.61  14 2.61  11 2.61
                            29 2.75  41 2.75  47 2.75  44 2.75
  39  0.500  0.167  0.833-  22 2.61  24 2.61  19 2.61  21 2.61  13 2.61  15 2.61  10 2.61  12 2.61
                            30 2.75  42 2.75  48 2.75  45 2.75
  40  0.500  0.500  0.167-  26 2.61  23 2.61  17 2.61  25 2.61  14 2.61  22 2.61  16 2.61  13 2.61
                            31 2.75  37 2.75  43 2.75  49 2.75
  41  0.500  0.500  0.500-  27 2.61  24 2.61  18 2.61  26 2.61  15 2.61  23 2.61  17 2.61  14 2.61
                            32 2.75  38 2.75  44 2.75  50 2.75
  42  0.500  0.500  0.833-  25 2.61  27 2.61  22 2.61  24 2.61  16 2.61  18 2.61  13 2.61  15 2.61
                            33 2.75  39 2.75  45 2.75  51 2.75
  43  0.500  0.833  0.167-  20 2.61  26 2.61  11 2.61  17 2.61  25 2.61  19 2.61  16 2.61  10 2.61
                            34 2.75  40 2.75  52 2.75  37 2.75
  44  0.500  0.833  0.500-  21 2.61  27 2.61  12 2.61  18 2.61  26 2.61  20 2.61  17 2.61  11 2.61
                            35 2.75  41 2.75  53 2.75  38 2.75
  45  0.500  0.833  0.833-  19 2.61  21 2.61  25 2.61  27 2.61  10 2.61  12 2.61  16 2.61  18 2.61
                            36 2.75  42 2.75  54 2.75  39 2.75
  46  0.833  0.167  0.167-   5 2.61  23 2.61  20 2.61   2 2.61  22 2.61   4 2.61  19 2.61   1 2.61
                            37 2.75  49 2.75  28 2.75  52 2.75
  47  0.833  0.167  0.500-   6 2.61  24 2.61  21 2.61   3 2.61  23 2.61   5 2.61  20 2.61   2 2.61
                            38 2.75  50 2.75  29 2.75  53 2.75
  48  0.833  0.167  0.833-   4 2.61   6 2.61  22 2.61  24 2.61  19 2.61  21 2.61   1 2.61   3 2.61
                            39 2.75  51 2.75  30 2.75  54 2.75
  49  0.833  0.500  0.167-   8 2.61  26 2.61  23 2.61   5 2.61  25 2.61   7 2.61  22 2.61   4 2.61
                            40 2.75  46 2.75  52 2.75  31 2.75
  50  0.833  0.500  0.500-   9 2.61  27 2.61  24 2.61   6 2.61  26 2.61   8 2.61  23 2.61   5 2.61
                            41 2.75  47 2.75  53 2.75  32 2.75
  51  0.833  0.500  0.833-   7 2.61   9 2.61  25 2.61  27 2.61  22 2.61  24 2.61   4 2.61   6 2.61
                            42 2.75  48 2.75  54 2.75  33 2.75
  52  0.833  0.833  0.167-   2 2.61   8 2.61  20 2.61  26 2.61  19 2.61   7 2.61  25 2.61   1 2.61
                            43 2.75  49 2.75  46 2.75  34 2.75
  53  0.833  0.833  0.500-   3 2.61   9 2.61  21 2.61  27 2.61  20 2.61   8 2.61  26 2.61   2 2.61
                            44 2.75  50 2.75  47 2.75  35 2.75
  54  0.833  0.833  0.833-   1 2.61   3 2.61   7 2.61   9 2.61  19 2.61  21 2.61  25 2.61  27 2.61
                            45 2.75  51 2.75  48 2.75  36 2.75
 
  LATTYP: Found a simple tetragonal cell.
 ALAT       =     8.2501481662
 C/A-ratio  =     1.2642089792
  
  Lattice vectors:
  
 A1 = (   8.2501481662,   0.0000000000,   0.0000000000)
 A2 = (   0.0000000000,   8.2501481662,   0.0000000000)
 A3 = (   0.0000000000,   0.0000000000,  10.4299113916)


Analysis of symmetry for initial positions (statically):
=====================================================================
 Subroutine PRICEL returns following result:
 
  LATTYP: Found a simple tetragonal cell.
 ALAT       =     2.7500493888
 C/A-ratio  =     1.2642089792
  
  Lattice vectors:
  
 A1 = (   2.7500493888,   0.0000000000,   0.0000000000)
 A2 = (   0.0000000000,   2.7500493888,   0.0000000000)
 A3 = (   0.0000000000,   0.0000000000,   3.4766371306)
 
  27 primitive cells build up your supercell.
 

 Routine SETGRP: Setting up the symmetry group for a 
 simple tetragonal supercell.


 Subroutine GETGRP returns: Found 16 space group operations
 (whereof 16 operations were pure point group operations)
 out of a pool of 16 trial point group operations.


The static configuration has the point symmetry D_4h.


Analysis of symmetry for dynamics (positions and initial velocities):
=====================================================================
 Subroutine PRICEL returns following result:
 
  LATTYP: Found a simple tetragonal cell.
 ALAT       =     2.7500493888
 C/A-ratio  =     1.2642089792
  
  Lattice vectors:
  
 A1 = (   2.7500493888,   0.0000000000,   0.0000000000)
 A2 = (   0.0000000000,   2.7500493888,   0.0000000000)
 A3 = (   0.0000000000,   0.0000000000,   3.4766371306)
 
  27 primitive cells build up your supercell.
 

 Routine SETGRP: Setting up the symmetry group for a 
 simple tetragonal supercell.


 Subroutine GETGRP returns: Found 16 space group operations
 (whereof 16 operations were pure point group operations)
 out of a pool of 16 trial point group operations.


The dynamic configuration has the point symmetry D_4h.


Analysis of structural, dynamic, and magnetic symmetry:
=====================================================================
 Subroutine PRICEL returns:
 Original cell was already a primitive cell.
 

 Routine SETGRP: Setting up the symmetry group for a 
 simple tetragonal supercell.


 Subroutine GETGRP returns: Found  8 space group operations
 (whereof  2 operations were pure point group operations)
 out of a pool of 16 trial point group operations.


The magnetic configuration has the point symmetry C_1h.
 The point group associated with its full space group is C_4v.


 Subroutine INISYM returns: Found  8 space group operations
 (whereof  2 operations are pure point group operations),
 and found     1 'primitive' translations

 
 
 KPOINTS: automatic KPOINTS                       

Automatic generation of k-mesh.
 generate k-points for:    5    5    4
Space group operators:
 irot       det(A)        alpha          n_x          n_y          n_z        tau_x        tau_y        tau_z
    1     1.000000     0.000001     1.000000     0.000000     0.000000     0.000000     0.000000     0.000000
    2    -1.000000   180.000000     1.000000     0.000000     0.000000     0.000000     0.000000     0.000000
    3     1.000000    90.000000     0.000000     0.000000    -1.000000     0.333333     0.333333     0.000000
    4     1.000000   180.000000     0.000000     0.000000     1.000000     0.000000     0.666667     0.000000
    5     1.000000    90.000000     0.000000     0.000000     1.000000     0.666667     0.333333     0.000000
    6    -1.000000   180.000000     0.000000     1.000000     0.000000     0.000000     0.666667     0.000000
    7    -1.000000   180.000000     0.707107     0.707107     0.000000     0.333333     0.333333     0.000000
    8    -1.000000   180.000000     0.707107    -0.707107     0.000000     0.666667     0.333333     0.000000
 
 Subroutine IBZKPT returns following result:
 ===========================================
 
 Found     18 irreducible k-points:
 
 Following reciprocal coordinates:
            Coordinates               Weight
  0.000000  0.000000  0.000000      1.000000
  0.200000  0.000000  0.000000      4.000000
  0.400000  0.000000  0.000000      4.000000
  0.200000  0.200000  0.000000      4.000000
  0.400000  0.200000  0.000000      8.000000
  0.400000  0.400000  0.000000      4.000000
  0.000000  0.000000  0.250000      2.000000
  0.200000  0.000000  0.250000      8.000000
  0.400000  0.000000  0.250000      8.000000
  0.200000  0.200000  0.250000      8.000000
  0.400000  0.200000  0.250000     16.000000
  0.400000  0.400000  0.250000      8.000000
  0.000000  0.000000  0.500000      1.000000
  0.200000  0.000000  0.500000      4.000000
  0.400000  0.000000  0.500000      4.000000
  0.200000  0.200000  0.500000      4.000000
  0.400000  0.200000  0.500000      8.000000
  0.400000  0.400000  0.500000      4.000000
 
 Following cartesian coordinates:
            Coordinates               Weight
  0.000000  0.000000  0.000000      1.000000
  0.024242  0.000000  0.000000      4.000000
  0.048484  0.000000  0.000000      4.000000
  0.024242  0.024242  0.000000      4.000000
  0.048484  0.024242  0.000000      8.000000
  0.048484  0.048484  0.000000      4.000000
  0.000000  0.000000  0.023970      2.000000
  0.024242  0.000000  0.023970      8.000000
  0.048484  0.000000  0.023970      8.000000
  0.024242  0.024242  0.023970      8.000000
  0.048484  0.024242  0.023970     16.000000
  0.048484  0.048484  0.023970      8.000000
  0.000000  0.000000  0.047939      1.000000
  0.024242  0.000000  0.047939      4.000000
  0.048484  0.000000  0.047939      4.000000
  0.024242  0.024242  0.047939      4.000000
  0.048484  0.024242  0.047939      8.000000
  0.048484  0.048484  0.047939      4.000000
 


--------------------------------------------------------------------------------------------------------




 Dimension of arrays:
   k-points           NKPTS =     18   k-points in BZ     NKDIM =     18   number of bands    NBANDS=    174
   number of dos      NEDOS =    301   number of ions     NIONS =     54
   non local maximal  LDIM  =      6   non local SUM 2l+1 LMDIM =     18
   total plane-waves  NPLWV = 204120
   max r-space proj   IRMAX =      1   max aug-charges    IRDMAX=  89713
   dimension x,y,z NGX =    54 NGY =   54 NGZ =   70
   dimension x,y,z NGXF=   108 NGYF=  108 NGZF=  140
   support grid    NGXF=   216 NGYF=  216 NGZF=  280
   ions per type =              27  27
   NGX,Y,Z   is equivalent  to a cutoff of  10.88, 10.88, 11.16 a.u.
   NGXF,Y,Z  is equivalent  to a cutoff of  21.76, 21.76, 22.32 a.u.

 SYSTEM =  AlMn_pv                                 
 POSCAR =  NewRef: 27, @ ['Mn', array([1.37502469, 

 Startparameter for this run:
   NWRITE =      2    write-flag & timer
   PREC   = accura    normal or accurate (medium, high low for compatibility)
   ISTART =      0    job   : 0-new  1-cont  2-samecut
   ICHARG =      2    charge: 1-file 2-atom 10-const
   ISPIN  =      2    spin polarized calculation?
   LNONCOLLINEAR =      F non collinear calculations
   LSORBIT =      F    spin-orbit coupling
   INIWAV =      1    electr: 0-lowe 1-rand  2-diag
   LASPH  =      F    aspherical Exc in radial PAW
   METAGGA=      F    non-selfconsistent MetaGGA calc.

 Electronic Relaxation 1
   ENCUT  =  404.8 eV  29.75 Ry    5.45 a.u.  13.53 13.53 17.11*2*pi/ulx,y,z
   ENINI  =  404.8     initial cutoff
   ENAUG  =  500.7 eV  augmentation charge cutoff
   NELM   =    100;   NELMIN=  4; NELMDL= -8     # of ELM steps 
   EDIFF  = 0.1E-06   stopping-criterion for ELM
   LREAL  =      F    real-space projection
   NLSPLINE    = F    spline interpolate recip. space projectors
   LCOMPAT=      F    compatible to vasp.4.4
   GGA_COMPAT  = T    GGA compatible to vasp.4.4-vasp.4.6
   LMAXPAW     = -100 max onsite density
   LMAXMIX     =    2 max onsite mixed and CHGCAR
   VOSKOWN=      0    Vosko Wilk Nusair interpolation
   ROPT   =    0.00000   0.00000
 Ionic relaxation
   EDIFFG = 0.1E-05   stopping-criterion for IOM
   NSW    =      0    number of steps for IOM
   NBLOCK =      1;   KBLOCK =      1    inner block; outer block 
   IBRION =     -1    ionic relax: 0-MD 1-quasi-New 2-CG
   NFREE  =      0    steps in history (QN), initial steepest desc. (CG)
   ISIF   =      2    stress and relaxation
   IWAVPR =     10    prediction:  0-non 1-charg 2-wave 3-comb
   ISYM   =      2    0-nonsym 1-usesym 2-fastsym
   LCORR  =      T    Harris-Foulkes like correction to forces

   POTIM  = 0.2000    time-step for ionic-motion
   TEIN   =    0.0    initial temperature
   TEBEG  =    0.0;   TEEND  =   0.0 temperature during run
   SMASS  =  -3.00    Nose mass-parameter (am)
   estimated Nose-frequenzy (Omega)   =  0.10E-29 period in steps =****** mass=  -0.156E-26a.u.
   SCALEE = 1.0000    scale energy and forces
   NPACO  =    256;   APACO  = 16.0  distance and # of slots for P.C.
   PSTRESS=    0.0 pullay stress

  Mass of Ions in am
   POMASS =  26.98 54.94
  Ionic Valenz
   ZVAL   =   3.00  7.00
  Atomic Wigner-Seitz radii
   RWIGS  =  -1.00 -1.00
  virtual crystal weights 
   VCA    =   1.00  1.00
   NELECT =     270.0000    total number of electrons
   NUPDOWN=      -1.0000    fix difference up-down

 DOS related values:
   EMIN   =  10.00;   EMAX   =-10.00  energy-range for DOS
   EFERMI =   0.00
   ISMEAR =     1;   SIGMA  =   0.20  broadening in eV -4-tet -1-fermi 0-gaus

 Electronic relaxation 2 (details)
   IALGO  =     58    algorithm
   LDIAG  =      T    sub-space diagonalisation (order eigenvalues)
   LSUBROT=      F    optimize rotation matrix (better conditioning)
   TURBO    =      0    0=normal 1=particle mesh
   IRESTART =      0    0=no restart 2=restart with 2 vectors
   NREBOOT  =      0    no. of reboots
   NMIN     =      0    reboot dimension
   EREF     =   0.00    reference energy to select bands
   IMIX   =      4    mixing-type and parameters
     AMIX     =   0.40;   BMIX     =  1.00
     AMIX_MAG =   1.60;   BMIX_MAG =  1.00
     AMIN     =   0.10
     WC   =   100.;   INIMIX=   1;  MIXPRE=   1;  MAXMIX= -45

 Intra band minimization:
   WEIMIN = 0.0000     energy-eigenvalue tresh-hold
   EBREAK =  0.14E-09  absolut break condition
   DEPER  =   0.30     relativ break condition  

   TIME   =   0.40     timestep for ELM

  volume/ion in A,a.u.               =      13.15        88.72
  Fermi-wavevector in a.u.,A,eV,Ry     =   1.186118  2.241439 19.141722  1.406877
  Thomas-Fermi vector in A             =   2.322298
 
 Write flags
   LWAVE        =      F    write WAVECAR
   LDOWNSAMPLE  =      F    k-point downsampling of WAVECAR
   LCHARG       =      F    write CHGCAR
   LVTOT        =      F    write LOCPOT, total local potential
   LVHAR        =      F    write LOCPOT, Hartree potential only
   LELF         =      F    write electronic localiz. function (ELF)
   LORBIT       =     10    0 simple, 1 ext, 2 COOP (PROOUT), +10 PAW based schemes


 Dipole corrections
   LMONO  =      F    monopole corrections only (constant potential shift)
   LDIPOL =      F    correct potential (dipole corrections)
   IDIPOL =      0    1-x, 2-y, 3-z, 4-all directions 
   EPSILON=  1.0000000 bulk dielectric constant

 Exchange correlation treatment:
   GGA     =    --    GGA type
   LEXCH   =     8    internal setting for exchange type
   VOSKOWN=      0    Vosko Wilk Nusair interpolation
   LHFCALC =     F    Hartree Fock is set to
   LHFONE  =     F    Hartree Fock one center treatment
   AEXX    =    0.0000 exact exchange contribution

 Linear response parameters
   LEPSILON=     F    determine dielectric tensor
   LRPA    =     F    only Hartree local field effects (RPA)
   LNABLA  =     F    use nabla operator in PAW spheres
   LVEL    =     F    velocity operator in full k-point grid
   LINTERFAST=   F  fast interpolation
   KINTER  =     0    interpolate to denser k-point grid
   CSHIFT  =0.1000    complex shift for real part using Kramers Kronig
   OMEGAMAX=  -1.0    maximum frequency
   DEG_THRESHOLD= 0.2000000E-02 threshold for treating states as degnerate
   RTIME   =   -0.100 relaxation time in fs
  (WPLASMAI=    0.000 imaginary part of plasma frequency in eV, 0.658/RTIME)
   DFIELD  = 0.0000000 0.0000000 0.0000000 field for delta impulse in time
 
 Orbital magnetization related:
   ORBITALMAG=     F  switch on orbital magnetization
   LCHIMAG   =     F  perturbation theory with respect to B field
   DQ        =  0.001000  dq finite difference perturbation B field
   LLRAUG    =     F  two centre corrections for induced B field



--------------------------------------------------------------------------------------------------------


 Static calculation
 charge density and potential will be updated during run
 spin polarized calculation
 Conjugate gradient for all bands (Freysoldt, et al. PRB 79, 241103 (2009))
 preconditioned conjugated gradient                                        
 perform sub-space diagonalisation
    before iterative eigenvector-optimisation
 modified Broyden-mixing scheme, WC =      100.0
 initial mixing is a Kerker type mixing with AMIX =  0.4000 and BMIX =      1.0000
 Hartree-type preconditioning will be used
 using additional bands           39
 reciprocal scheme for non local part
 use partial core corrections
 no Harris-corrections to forces 
 use gradient corrections 
 use of overlap-Matrix (Vanderbilt PP)
 Methfessel and Paxton  Order N= 1 SIGMA  =   0.20


--------------------------------------------------------------------------------------------------------


  energy-cutoff  :      404.80
  volume of cell :      709.91
      direct lattice vectors                 reciprocal lattice vectors
     8.250148166  0.000000000  0.000000000     0.121209944  0.000000000  0.000000000
     0.000000000  8.250148166  0.000000000     0.000000000  0.121209944  0.000000000
     0.000000000  0.000000000 10.429911392     0.000000000  0.000000000  0.095878092

  length of vectors
     8.250148166  8.250148166 10.429911392     0.121209944  0.121209944  0.095878092


 
 k-points in units of 2pi/SCALE and weight: automatic KPOINTS                       
   0.00000000  0.00000000  0.00000000       0.010
   0.02424199  0.00000000  0.00000000       0.040
   0.04848398  0.00000000  0.00000000       0.040
   0.02424199  0.02424199  0.00000000       0.040
   0.04848398  0.02424199  0.00000000       0.080
   0.04848398  0.04848398  0.00000000       0.040
   0.00000000  0.00000000  0.02396952       0.020
   0.02424199  0.00000000  0.02396952       0.080
   0.04848398  0.00000000  0.02396952       0.080
   0.02424199  0.02424199  0.02396952       0.080
   0.04848398  0.02424199  0.02396952       0.160
   0.04848398  0.04848398  0.02396952       0.080
   0.00000000  0.00000000  0.04793905       0.010
   0.02424199  0.00000000  0.04793905       0.040
   0.04848398  0.00000000  0.04793905       0.040
   0.02424199  0.02424199  0.04793905       0.040
   0.04848398  0.02424199  0.04793905       0.080
   0.04848398  0.04848398  0.04793905       0.040
 
 k-points in reciprocal lattice and weights: automatic KPOINTS                       
   0.00000000  0.00000000  0.00000000       0.010
   0.20000000  0.00000000  0.00000000       0.040
   0.40000000  0.00000000  0.00000000       0.040
   0.20000000  0.20000000  0.00000000       0.040
   0.40000000  0.20000000  0.00000000       0.080
   0.40000000  0.40000000  0.00000000       0.040
   0.00000000  0.00000000  0.25000000       0.020
   0.20000000  0.00000000  0.25000000       0.080
   0.40000000  0.00000000  0.25000000       0.080
   0.20000000  0.20000000  0.25000000       0.080
   0.40000000  0.20000000  0.25000000       0.160
   0.40000000  0.40000000  0.25000000       0.080
   0.00000000  0.00000000  0.50000000       0.010
   0.20000000  0.00000000  0.50000000       0.040
   0.40000000  0.00000000  0.50000000       0.040
   0.20000000  0.20000000  0.50000000       0.040
   0.40000000  0.20000000  0.50000000       0.080
   0.40000000  0.40000000  0.50000000       0.040
 
 position of ions in fractional coordinates (direct lattice) 
   0.00000000  0.00000000  0.00000000
   0.00000000  0.00000000  0.33333333
   0.00000000  0.00000000  0.66666667
   0.00000000  0.33333333  0.00000000
   0.00000000  0.33333333  0.33333333
   0.00000000  0.33333333  0.66666667
   0.00000000  0.66666667  0.00000000
   0.00000000  0.66666667  0.33333333
   0.00000000  0.66666667  0.66666667
   0.33333333  0.00000000  0.00000000
   0.33333333  0.00000000  0.33333333
   0.33333333  0.00000000  0.66666667
   0.33333333  0.33333333  0.00000000
   0.33333333  0.33333333  0.33333333
   0.33333333  0.33333333  0.66666667
   0.33333333  0.66666667  0.00000000
   0.33333333  0.66666667  0.33333333
   0.33333333  0.66666667  0.66666667
   0.66666667  0.00000000  0.00000000
   0.66666667  0.00000000  0.33333333
   0.66666667  0.00000000  0.66666667
   0.66666667  0.33333333  0.00000000
   0.66666667  0.33333333  0.33333333
   0.66666667  0.33333333  0.66666667
   0.66666667  0.66666667  0.00000000
   0.66666667  0.66666667  0.33333333
   0.66666667  0.66666667  0.66666667
   0.16666667  0.16666667  0.16666667
   0.16666667  0.16666667  0.50000000
   0.16666667  0.16666667  0.83333333
   0.16666667  0.50000000  0.16666667
   0.16666667  0.50000000  0.50000000
   0.16666667  0.50000000  0.83333333
   0.16666667  0.83333333  0.16666667
   0.16666667  0.83333333  0.50000000
   0.16666667  0.83333333  0.83333333
   0.50000000  0.16666667  0.16666667
   0.50000000  0.16666667  0.50000000
   0.50000000  0.16666667  0.83333333
   0.50000000  0.50000000  0.16666667
   0.50000000  0.50000000  0.50000000
   0.50000000  0.50000000  0.83333333
   0.50000000  0.83333333  0.16666667
   0.50000000  0.83333333  0.50000000
   0.50000000  0.83333333  0.83333333
   0.83333333  0.16666667  0.16666667
   0.83333333  0.16666667  0.50000000
   0.83333333  0.16666667  0.83333333
   0.83333333  0.50000000  0.16666667
   0.83333333  0.50000000  0.50000000
   0.83333333  0.50000000  0.83333333
   0.83333333  0.83333333  0.16666667
   0.83333333  0.83333333  0.50000000
   0.83333333  0.83333333  0.83333333
 
 position of ions in cartesian coordinates  (Angst):
   0.00000000  0.00000000  0.00000000
   0.00000000  0.00000000  3.47663713
   0.00000000  0.00000000  6.95327426
   0.00000000  2.75004939  0.00000000
   0.00000000  2.75004939  3.47663713
   0.00000000  2.75004939  6.95327426
   0.00000000  5.50009878  0.00000000
   0.00000000  5.50009878  3.47663713
   0.00000000  5.50009878  6.95327426
   2.75004939  0.00000000  0.00000000
   2.75004939  0.00000000  3.47663713
   2.75004939  0.00000000  6.95327426
   2.75004939  2.75004939  0.00000000
   2.75004939  2.75004939  3.47663713
   2.75004939  2.75004939  6.95327426
   2.75004939  5.50009878  0.00000000
   2.75004939  5.50009878  3.47663713
   2.75004939  5.50009878  6.95327426
   5.50009878  0.00000000  0.00000000
   5.50009878  0.00000000  3.47663713
   5.50009878  0.00000000  6.95327426
   5.50009878  2.75004939  0.00000000
   5.50009878  2.75004939  3.47663713
   5.50009878  2.75004939  6.95327426
   5.50009878  5.50009878  0.00000000
   5.50009878  5.50009878  3.47663713
   5.50009878  5.50009878  6.95327426
   1.37502469  1.37502469  1.73831857
   1.37502469  1.37502469  5.21495570
   1.37502469  1.37502469  8.69159283
   1.37502469  4.12507408  1.73831857
   1.37502469  4.12507408  5.21495570
   1.37502469  4.12507408  8.69159283
   1.37502469  6.87512347  1.73831857
   1.37502469  6.87512347  5.21495570
   1.37502469  6.87512347  8.69159283
   4.12507408  1.37502469  1.73831857
   4.12507408  1.37502469  5.21495570
   4.12507408  1.37502469  8.69159283
   4.12507408  4.12507408  1.73831857
   4.12507408  4.12507408  5.21495570
   4.12507408  4.12507408  8.69159283
   4.12507408  6.87512347  1.73831857
   4.12507408  6.87512347  5.21495570
   4.12507408  6.87512347  8.69159283
   6.87512347  1.37502469  1.73831857
   6.87512347  1.37502469  5.21495570
   6.87512347  1.37502469  8.69159283
   6.87512347  4.12507408  1.73831857
   6.87512347  4.12507408  5.21495570
   6.87512347  4.12507408  8.69159283
   6.87512347  6.87512347  1.73831857
   6.87512347  6.87512347  5.21495570
   6.87512347  6.87512347  8.69159283
 


--------------------------------------------------------------------------------------------------------


 k-point  1 :   0.0000 0.0000 0.0000  plane waves:   13099
 k-point  2 :   0.2000 0.0000 0.0000  plane waves:   13101
 k-point  3 :   0.4000 0.0000 0.0000  plane waves:   13111
 k-point  4 :   0.2000 0.2000 0.0000  plane waves:   13137
 k-point  5 :   0.4000 0.2000 0.0000  plane waves:   13119
 k-point  6 :   0.4000 0.4000 0.0000  plane waves:   13129
 k-point  7 :   0.0000 0.0000 0.2500  plane waves:   13134
 k-point  8 :   0.2000 0.0000 0.2500  plane waves:   13149
 k-point  9 :   0.4000 0.0000 0.2500  plane waves:   13119
 k-point 10 :   0.2000 0.2000 0.2500  plane waves:   13145
 k-point 11 :   0.4000 0.2000 0.2500  plane waves:   13134
 k-point 12 :   0.4000 0.4000 0.2500  plane waves:   13108
 k-point 13 :   0.0000 0.0000 0.5000  plane waves:   13186
 k-point 14 :   0.2000 0.0000 0.5000  plane waves:   13124
 k-point 15 :   0.4000 0.0000 0.5000  plane waves:   13152
 k-point 16 :   0.2000 0.2000 0.5000  plane waves:   13136
 k-point 17 :   0.4000 0.2000 0.5000  plane waves:   13128
 k-point 18 :   0.4000 0.4000 0.5000  plane waves:   13112

 maximum and minimum number of plane-waves per node :      3304     3246

 maximum number of plane-waves:     13186
 maximum index in each direction: 
   IXMAX=   13   IYMAX=   13   IZMAX=   17
   IXMIN=  -13   IYMIN=  -13   IZMIN=  -17


 parallel 3D FFT for wavefunctions:
    minimum data exchange during FFTs selected (reduces bandwidth)
 parallel 3D FFT for charge:
    minimum data exchange during FFTs selected (reduces bandwidth)


 total amount of memory used by VASP MPI-rank0   626513. kBytes
=======================================================================

   base      :      30000. kBytes
   nonl-proj :      19946. kBytes
   fftplans  :      31580. kBytes
   grid      :      21385. kBytes
   one-center:        435. kBytes
   wavefun   :     523167. kBytes
 
     INWAV:  cpu time    0.0000: real time    0.0000
 Broyden mixing: mesh for mixing (old mesh)
   NGX = 27   NGY = 27   NGZ = 35
  (NGX  =108   NGY  =108   NGZ  =140)
  gives a total of  25515 points

 initial charge density was supplied:
 charge density of overlapping atoms calculated
 number of electron     270.0000000 magnetization      21.0000000
 keeping initial charge density in first step


--------------------------------------------------------------------------------------------------------


 Maximum index for augmentation-charges        10967 (set IRDMAX)


--------------------------------------------------------------------------------------------------------


 First call to EWALD:  gamma=   0.199
 Maximum number of real-space cells 3x 3x 2
 Maximum number of reciprocal cells 3x 3x 3

    FEWALD:  cpu time    0.0063: real time    0.0063


--------------------------------------- Iteration      1(   1)  ---------------------------------------


    POTLOK:  cpu time    0.4160: real time    0.4169
    SETDIJ:  cpu time    0.4520: real time    0.4532
    TRIAL :  cpu time   21.9711: real time   22.0407
    CORREC:  cpu time    0.0039: real time    0.0040
    --------------------------------------------
      LOOP:  cpu time   23.0229: real time   23.1024

 eigenvalue-minimisations  : 12528
 total energy-change (2. order) : 0.2034233E+04  (-0.8848372E+04)
 number of electron     270.0000000 magnetization      21.0000000
 augmentation part      270.0000000 magnetization      21.0000000

 Free energy of the ion-electron system (eV)
  ---------------------------------------------------
  alpha Z        PSCENC =       798.38614055
  Ewald energy   TEWEN  =    -12901.57693327
  -Hartree energ DENC   =     -2855.60785864
  -exchange      EXHF   =         0.00000000
  -V(xc)+E(xc)   XCENC  =      -995.96582446
  PAW double counting   =     12741.82587617   -11476.22345381
  entropy T*S    EENTRO =         0.00052086
  eigenvalues    EBANDS =      4025.72009500
  atomic energy  EATOM  =     12697.67401269
  ---------------------------------------------------
  free energy    TOTEN  =      2034.23257507 eV

  energy without entropy =     2034.23205421  energy(sigma->0) =     2034.23240145


--------------------------------------------------------------------------------------------------------




--------------------------------------- Iteration      1(   2)  ---------------------------------------


    TRIAL :  cpu time   22.2467: real time   23.2600
    CORREC:  cpu time    0.0049: real time    0.0058
    --------------------------------------------
      LOOP:  cpu time   22.2544: real time   23.2691

 eigenvalue-minimisations  : 12528
 total energy-change (2. order) :-0.2130791E+04  (-0.2072599E+04)
 number of electron     270.0000000 magnetization      21.0000000
 augmentation part      270.0000000 magnetization      21.0000000

 Free energy of the ion-electron system (eV)
  ---------------------------------------------------
  alpha Z        PSCENC =       798.38614055
  Ewald energy   TEWEN  =    -12901.57693327
  -Hartree energ DENC   =     -2855.60785864
  -exchange      EXHF   =         0.00000000
  -V(xc)+E(xc)   XCENC  =      -995.96582446
  PAW double counting   =     12741.82587617   -11476.22345381
  entropy T*S    EENTRO =         0.00143444
  eigenvalues    EBANDS =      1894.92847816
  atomic energy  EATOM  =     12697.67401269
  ---------------------------------------------------
  free energy    TOTEN  =       -96.55812818 eV

  energy without entropy =      -96.55956262  energy(sigma->0) =      -96.55860633


--------------------------------------------------------------------------------------------------------




--------------------------------------- Iteration      1(   3)  ---------------------------------------


    TRIAL :  cpu time   30.6693: real time   30.8256
    CORREC:  cpu time    0.0056: real time    0.0057
    --------------------------------------------
      LOOP:  cpu time   30.6756: real time   30.8348

 eigenvalue-minimisations  : 18792
 total energy-change (2. order) :-0.2601278E+03  (-0.2291700E+03)
 number of electron     270.0000000 magnetization      21.0000000
 augmentation part      270.0000000 magnetization      21.0000000

 Free energy of the ion-electron system (eV)
  ---------------------------------------------------
  alpha Z        PSCENC =       798.38614055
  Ewald energy   TEWEN  =    -12901.57693327
  -Hartree energ DENC   =     -2855.60785864
  -exchange      EXHF   =         0.00000000
  -V(xc)+E(xc)   XCENC  =      -995.96582446
  PAW double counting   =     12741.82587617   -11476.22345381
  entropy T*S    EENTRO =         0.01119939
  eigenvalues    EBANDS =      1634.79095471
  atomic energy  EATOM  =     12697.67401269
  ---------------------------------------------------
  free energy    TOTEN  =      -356.68588669 eV

  energy without entropy =     -356.69708608  energy(sigma->0) =     -356.68961982


--------------------------------------------------------------------------------------------------------




--------------------------------------- Iteration      1(   4)  ---------------------------------------


    TRIAL :  cpu time   32.8672: real time   33.8271
    CORREC:  cpu time    0.0057: real time    0.0066
    --------------------------------------------
      LOOP:  cpu time   32.8747: real time   33.8375

 eigenvalue-minimisations  : 20360
 total energy-change (2. order) :-0.4289015E+02  (-0.3775495E+02)
 number of electron     270.0000000 magnetization      21.0000000
 augmentation part      270.0000000 magnetization      21.0000000

 Free energy of the ion-electron system (eV)
  ---------------------------------------------------
  alpha Z        PSCENC =       798.38614055
  Ewald energy   TEWEN  =    -12901.57693327
  -Hartree energ DENC   =     -2855.60785864
  -exchange      EXHF   =         0.00000000
  -V(xc)+E(xc)   XCENC  =      -995.96582446
  PAW double counting   =     12741.82587617   -11476.22345381
  entropy T*S    EENTRO =         0.02054733
  eigenvalues    EBANDS =      1591.89145211
  atomic energy  EATOM  =     12697.67401269
  ---------------------------------------------------
  free energy    TOTEN  =      -399.57604134 eV

  energy without entropy =     -399.59658867  energy(sigma->0) =     -399.58289045


--------------------------------------------------------------------------------------------------------




--------------------------------------- Iteration      1(   5)  ---------------------------------------


    TRIAL :  cpu time   33.2258: real time   33.4156
    CORREC:  cpu time    0.0058: real time    0.0060
    --------------------------------------------
      LOOP:  cpu time   33.2325: real time   33.4248

 eigenvalue-minimisations  : 20688
 total energy-change (2. order) :-0.4323257E+01  (-0.4138759E+01)
 number of electron     270.0000000 magnetization      21.0000000
 augmentation part      270.0000000 magnetization      21.0000000

 Free energy of the ion-electron system (eV)
  ---------------------------------------------------
  alpha Z        PSCENC =       798.38614055
  Ewald energy   TEWEN  =    -12901.57693327
  -Hartree energ DENC   =     -2855.60785864
  -exchange      EXHF   =         0.00000000
  -V(xc)+E(xc)   XCENC  =      -995.96582446
  PAW double counting   =     12741.82587617   -11476.22345381
  entropy T*S    EENTRO =         0.02618558
  eigenvalues    EBANDS =      1587.56255727
  atomic energy  EATOM  =     12697.67401269
  ---------------------------------------------------
  free energy    TOTEN  =      -403.89929793 eV

  energy without entropy =     -403.92548351  energy(sigma->0) =     -403.90802646


--------------------------------------------------------------------------------------------------------




--------------------------------------- Iteration      1(   6)  ---------------------------------------


    TRIAL :  cpu time   33.1226: real time   34.1623
    CORREC:  cpu time    0.0060: real time    0.0069
    --------------------------------------------
      LOOP:  cpu time   33.1293: real time   34.1724

 eigenvalue-minimisations  : 20656
 total energy-change (2. order) :-0.3601333E+00  (-0.3531241E+00)
 number of electron     270.0000000 magnetization      21.0000000
 augmentation part      270.0000000 magnetization      21.0000000

 Free energy of the ion-electron system (eV)
  ---------------------------------------------------
  alpha Z        PSCENC =       798.38614055
  Ewald energy   TEWEN  =    -12901.57693327
  -Hartree energ DENC   =     -2855.60785864
  -exchange      EXHF   =         0.00000000
  -V(xc)+E(xc)   XCENC  =      -995.96582446
  PAW double counting   =     12741.82587617   -11476.22345381
  entropy T*S    EENTRO =         0.02792092
  eigenvalues    EBANDS =      1587.20068866
  atomic energy  EATOM  =     12697.67401269
  ---------------------------------------------------
  free energy    TOTEN  =      -404.25943121 eV

  energy without entropy =     -404.28735213  energy(sigma->0) =     -404.26873818


--------------------------------------------------------------------------------------------------------




--------------------------------------- Iteration      1(   7)  ---------------------------------------


    TRIAL :  cpu time   33.8151: real time   34.0258
    CORREC:  cpu time    0.0058: real time    0.0060
    --------------------------------------------
      LOOP:  cpu time   33.8221: real time   34.0348

 eigenvalue-minimisations  : 21040
 total energy-change (2. order) :-0.4216668E-01  (-0.4178804E-01)
 number of electron     270.0000000 magnetization      21.0000000
 augmentation part      270.0000000 magnetization      21.0000000

 Free energy of the ion-electron system (eV)
  ---------------------------------------------------
  alpha Z        PSCENC =       798.38614055
  Ewald energy   TEWEN  =    -12901.57693327
  -Hartree energ DENC   =     -2855.60785864
  -exchange      EXHF   =         0.00000000
  -V(xc)+E(xc)   XCENC  =      -995.96582446
  PAW double counting   =     12741.82587617   -11476.22345381
  entropy T*S    EENTRO =         0.02836143
  eigenvalues    EBANDS =      1587.15808147
  atomic energy  EATOM  =     12697.67401269
  ---------------------------------------------------
  free energy    TOTEN  =      -404.30159789 eV

  energy without entropy =     -404.32995931  energy(sigma->0) =     -404.31105170


--------------------------------------------------------------------------------------------------------




--------------------------------------- Iteration      1(   8)  ---------------------------------------


    TRIAL :  cpu time   32.6187: real time   33.5467
    CORREC:  cpu time    0.0061: real time    0.0070
    CHARGE:  cpu time    1.2841: real time    1.2840
    --------------------------------------------
      LOOP:  cpu time   33.9102: real time   34.8414

 eigenvalue-minimisations  : 20264
 total energy-change (2. order) :-0.3065698E-02  (-0.3047602E-02)
 number of electron     269.9999995 magnetization      14.5119780
 augmentation part       64.2489161 magnetization       8.4044720

 Free energy of the ion-electron system (eV)
  ---------------------------------------------------
  alpha Z        PSCENC =       798.38614055
  Ewald energy   TEWEN  =    -12901.57693327
  -Hartree energ DENC   =     -2855.60785864
  -exchange      EXHF   =         0.00000000
  -V(xc)+E(xc)   XCENC  =      -995.96582446
  PAW double counting   =     12741.82587617   -11476.22345381
  entropy T*S    EENTRO =         0.02843239
  eigenvalues    EBANDS =      1587.15494481
  atomic energy  EATOM  =     12697.67401269
  ---------------------------------------------------
  free energy    TOTEN  =      -404.30466358 eV

  energy without entropy =     -404.33309597  energy(sigma->0) =     -404.31414105


--------------------------------------------------------------------------------------------------------




--------------------------------------- Iteration      1(   9)  ---------------------------------------


    POTLOK:  cpu time    0.3976: real time    0.3976
    SETDIJ:  cpu time    0.4882: real time    0.4882
    TRIAL :  cpu time   12.0279: real time   12.0489
    CORREC:  cpu time    3.9952: real time    4.0899
    CHARGE:  cpu time    1.2726: real time    1.2784
    --------------------------------------------
      LOOP:  cpu time   18.1846: real time   18.3081

 eigenvalue-minimisations  :     0
 total energy-change (2. order) : 0.2985238E+03  (-0.2173087E+03)
 number of electron     269.9999993 magnetization      15.4927471
 augmentation part       82.6664200 magnetization      10.2880460

 Free energy of the ion-electron system (eV)
  ---------------------------------------------------
  alpha Z        PSCENC =       798.38614055
  Ewald energy   TEWEN  =    -12901.57693327
  -Hartree energ DENC   =     -1274.57858729
  -exchange      EXHF   =         0.00000000
  -V(xc)+E(xc)   XCENC  =     -1041.52175120
  PAW double counting   =     19174.39887161   -17754.96641785
  entropy T*S    EENTRO =         0.01927809
  eigenvalues    EBANDS =       196.37532697
  atomic energy  EATOM  =     12697.67401269
  ---------------------------------------------------
  free energy    TOTEN  =      -105.78090540 eV

  energy without entropy =     -105.80018349  energy(sigma->0) =     -105.78733143


--------------------------------------------------------------------------------------------------------




--------------------------------------- Iteration      1(  10)  ---------------------------------------


    POTLOK:  cpu time    0.3916: real time    0.3916
    SETDIJ:  cpu time    0.5171: real time    0.5171
    TRIAL :  cpu time   11.3040: real time   12.0969
    CORREC:  cpu time    3.9908: real time    4.0042
    CHARGE:  cpu time    1.2713: real time    1.2716
    --------------------------------------------
      LOOP:  cpu time   17.4781: real time   18.2862

 eigenvalue-minimisations  :     0
 total energy-change (2. order) :-0.2131878E+03  (-0.1186753E+02)
 number of electron     269.9999993 magnetization      15.7484922
 augmentation part       86.3445024 magnetization      10.5806102

 Free energy of the ion-electron system (eV)
  ---------------------------------------------------
  alpha Z        PSCENC =       798.38614055
  Ewald energy   TEWEN  =    -12901.57693327
  -Hartree energ DENC   =     -2116.77915366
  -exchange      EXHF   =         0.00000000
  -V(xc)+E(xc)   XCENC  =     -1012.03718801
  PAW double counting   =     20686.75161109   -19449.96115486
  entropy T*S    EENTRO =         0.00827796
  eigenvalues    EBANDS =       978.55468848
  atomic energy  EATOM  =     12697.67401269
  ---------------------------------------------------
  free energy    TOTEN  =      -318.96869890 eV

  energy without entropy =     -318.97697686  energy(sigma->0) =     -318.97145822


--------------------------------------------------------------------------------------------------------




--------------------------------------- Iteration      1(  11)  ---------------------------------------


    POTLOK:  cpu time    0.3963: real time    0.4033
    SETDIJ:  cpu time    0.4549: real time    0.4615
    TRIAL :  cpu time   11.3394: real time   11.4911
    CORREC:  cpu time    4.0369: real time    4.0483
    CHARGE:  cpu time    1.2570: real time    1.2571
    --------------------------------------------
      LOOP:  cpu time   17.5068: real time   17.6846

 eigenvalue-minimisations  :     0
 total energy-change (2. order) :-0.1121943E+02  (-0.1111909E+02)
 number of electron     269.9999993 magnetization      15.9572195
 augmentation part       88.9968034 magnetization      11.0459136

 Free energy of the ion-electron system (eV)
  ---------------------------------------------------
  alpha Z        PSCENC =       798.38614055
  Ewald energy   TEWEN  =    -12901.57693327
  -Hartree energ DENC   =     -2335.98940709
  -exchange      EXHF   =         0.00000000
  -V(xc)+E(xc)   XCENC  =     -1003.90961797
  PAW double counting   =     21533.70911862   -20333.17964420
  entropy T*S    EENTRO =         0.00191779
  eigenvalues    EBANDS =      1214.68992681
  atomic energy  EATOM  =     12697.67401269
  ---------------------------------------------------
  free energy    TOTEN  =      -330.18812590 eV

  energy without entropy =     -330.19004369  energy(sigma->0) =     -330.18876516


--------------------------------------------------------------------------------------------------------




--------------------------------------- Iteration      1(  12)  ---------------------------------------


    POTLOK:  cpu time    0.4023: real time    0.4111
    SETDIJ:  cpu time    0.4549: real time    0.4549
    TRIAL :  cpu time   11.3319: real time   11.3719
    CORREC:  cpu time    4.0581: real time    4.0593
    CHARGE:  cpu time    1.7974: real time    1.7975
    --------------------------------------------
      LOOP:  cpu time   18.0463: real time   18.0974

 eigenvalue-minimisations  :     0
 total energy-change (2. order) :-0.1132839E+02  (-0.1199451E+02)
 number of electron     269.9999993 magnetization      16.3217416
 augmentation part       86.7869838 magnetization      11.3056299

 Free energy of the ion-electron system (eV)
  ---------------------------------------------------
  alpha Z        PSCENC =       798.38614055
  Ewald energy   TEWEN  =    -12901.57693327
  -Hartree energ DENC   =     -2546.51023813
  -exchange      EXHF   =         0.00000000
  -V(xc)+E(xc)   XCENC  =      -996.75675984
  PAW double counting   =     21846.66646192   -20660.04094642
  entropy T*S    EENTRO =        -0.02615900
  eigenvalues    EBANDS =      1420.63982608
  atomic energy  EATOM  =     12697.67401269
  ---------------------------------------------------
  free energy    TOTEN  =      -341.51651863 eV

  energy without entropy =     -341.49035964  energy(sigma->0) =     -341.50779897


--------------------------------------------------------------------------------------------------------




--------------------------------------- Iteration      1(  13)  ---------------------------------------


    POTLOK:  cpu time    0.3916: real time    0.3917
    SETDIJ:  cpu time    0.4593: real time    0.4592
    TRIAL :  cpu time   11.2800: real time   11.4383
    CORREC:  cpu time    3.9694: real time    4.0263
    CHARGE:  cpu time    1.4665: real time    2.1295
    --------------------------------------------
      LOOP:  cpu time   17.5684: real time   18.4480

 eigenvalue-minimisations  :     0
 total energy-change (2. order) :-0.1193172E+02  (-0.8719140E+00)
 number of electron     269.9999993 magnetization      16.6255886
 augmentation part       86.2675704 magnetization      11.3280264

 Free energy of the ion-electron system (eV)
  ---------------------------------------------------
  alpha Z        PSCENC =       798.38614055
  Ewald energy   TEWEN  =    -12901.57693327
  -Hartree energ DENC   =     -2519.51261647
  -exchange      EXHF   =         0.00000000
  -V(xc)+E(xc)   XCENC  =      -998.63303020
  PAW double counting   =     21227.39413041   -19989.32611170
  entropy T*S    EENTRO =        -0.02834219
  eigenvalues    EBANDS =      1332.17232504
  atomic energy  EATOM  =     12697.67401269
  ---------------------------------------------------
  free energy    TOTEN  =      -353.44824195 eV

  energy without entropy =     -353.41989976  energy(sigma->0) =     -353.43879456


--------------------------------------------------------------------------------------------------------




--------------------------------------- Iteration      1(  14)  ---------------------------------------


    POTLOK:  cpu time    0.3926: real time    0.3926
    SETDIJ:  cpu time    0.4607: real time    0.4607
    TRIAL :  cpu time   11.3091: real time   11.3678
    CORREC:  cpu time    4.1042: real time    4.1541
    CHARGE:  cpu time    1.2456: real time    1.2457
    --------------------------------------------
      LOOP:  cpu time   17.5137: real time   17.6236

 eigenvalue-minimisations  :     0
 total energy-change (2. order) :-0.8665581E+00  (-0.1255587E+01)
 number of electron     269.9999993 magnetization      16.6014439
 augmentation part       85.9903164 magnetization      11.2594937

 Free energy of the ion-electron system (eV)
  ---------------------------------------------------
  alpha Z        PSCENC =       798.38614055
  Ewald energy   TEWEN  =    -12901.57693327
  -Hartree energ DENC   =     -2491.63590534
  -exchange      EXHF   =         0.00000000
  -V(xc)+E(xc)   XCENC  =      -999.66190737
  PAW double counting   =     20897.62750199   -19650.64311871
  entropy T*S    EENTRO =        -0.02976415
  eigenvalues    EBANDS =      1295.54375163
  atomic energy  EATOM  =     12697.67401269
  ---------------------------------------------------
  free energy    TOTEN  =      -354.31480002 eV

  energy without entropy =     -354.28503587  energy(sigma->0) =     -354.30487863


--------------------------------------------------------------------------------------------------------




--------------------------------------- Iteration      1(  15)  ---------------------------------------


    POTLOK:  cpu time    0.3835: real time    0.4007
    SETDIJ:  cpu time    0.4964: real time    0.4964
    TRIAL :  cpu time   11.3000: real time   11.3448
    CORREC:  cpu time    4.0264: real time    4.0275
    CHARGE:  cpu time    1.2487: real time    1.2695
    --------------------------------------------
      LOOP:  cpu time   17.4620: real time   17.5459

 eigenvalue-minimisations  :     0
 total energy-change (2. order) :-0.1254378E+01  (-0.5206744E+00)
 number of electron     269.9999992 magnetization      16.6219981
 augmentation part       86.6085668 magnetization      11.3055859

 Free energy of the ion-electron system (eV)
  ---------------------------------------------------
  alpha Z        PSCENC =       798.38614055
  Ewald energy   TEWEN  =    -12901.57693327
  -Hartree energ DENC   =     -2462.40908560
  -exchange      EXHF   =         0.00000000
  -V(xc)+E(xc)   XCENC  =     -1000.67606250
  PAW double counting   =     20057.68925033   -18801.68263720
  entropy T*S    EENTRO =        -0.03283344
  eigenvalues    EBANDS =      1257.05590077
  atomic energy  EATOM  =     12697.67401269
  ---------------------------------------------------
  free energy    TOTEN  =      -355.56917838 eV

  energy without entropy =     -355.53634495  energy(sigma->0) =     -355.55823390


--------------------------------------------------------------------------------------------------------




--------------------------------------- Iteration      1(  16)  ---------------------------------------


    POTLOK:  cpu time    0.3959: real time    0.3960
    SETDIJ:  cpu time    0.4546: real time    0.4546
    TRIAL :  cpu time   11.3294: real time   11.4336
    CORREC:  cpu time    3.9989: real time    4.0089
    CHARGE:  cpu time    1.2710: real time    1.2712
    --------------------------------------------
      LOOP:  cpu time   17.4554: real time   17.5708

 eigenvalue-minimisations  :     0
 total energy-change (2. order) :-0.5195549E+00  (-0.2390551E+00)
 number of electron     269.9999992 magnetization      16.7462871
 augmentation part       87.1292420 magnetization      11.4051882

 Free energy of the ion-electron system (eV)
  ---------------------------------------------------
  alpha Z        PSCENC =       798.38614055
  Ewald energy   TEWEN  =    -12901.57693327
  -Hartree energ DENC   =     -2486.25973323
  -exchange      EXHF   =         0.00000000
  -V(xc)+E(xc)   XCENC  =      -999.68546446
  PAW double counting   =     19756.24793372   -18504.85810960
  entropy T*S    EENTRO =        -0.03209936
  eigenvalues    EBANDS =      1284.01625379
  atomic energy  EATOM  =     12697.67401269
  ---------------------------------------------------
  free energy    TOTEN  =      -356.08873325 eV

  energy without entropy =     -356.05663389  energy(sigma->0) =     -356.07803347


--------------------------------------------------------------------------------------------------------




--------------------------------------- Iteration      1(  17)  ---------------------------------------


    POTLOK:  cpu time    0.3912: real time    0.3912
    SETDIJ:  cpu time    0.4175: real time    0.5110
    TRIAL :  cpu time   11.3698: real time   12.1109
    CORREC:  cpu time    3.9957: real time    4.0798
    CHARGE:  cpu time    1.2634: real time    1.2635
    --------------------------------------------
      LOOP:  cpu time   17.4393: real time   18.3590

 eigenvalue-minimisations  :     0
 total energy-change (2. order) :-0.2409350E+00  (-0.2536314E+00)
 number of electron     269.9999992 magnetization      16.8076935
 augmentation part       87.2774669 magnetization      11.5573852

 Free energy of the ion-electron system (eV)
  ---------------------------------------------------
  alpha Z        PSCENC =       798.38614055
  Ewald energy   TEWEN  =    -12901.57693327
  -Hartree energ DENC   =     -2509.39524302
  -exchange      EXHF   =         0.00000000
  -V(xc)+E(xc)   XCENC  =      -998.72183190
  PAW double counting   =     19646.72748960   -18400.25460887
  entropy T*S    EENTRO =        -0.03214189
  eigenvalues    EBANDS =      1310.86340531
  atomic energy  EATOM  =     12697.67401269
  ---------------------------------------------------
  free energy    TOTEN  =      -356.32966827 eV

  energy without entropy =     -356.29752638  energy(sigma->0) =     -356.31895431


--------------------------------------------------------------------------------------------------------




--------------------------------------- Iteration      1(  18)  ---------------------------------------


    POTLOK:  cpu time    0.3913: real time    0.3913
    SETDIJ:  cpu time    0.4578: real time    0.4578
    TRIAL :  cpu time   11.3771: real time   11.4193
    CORREC:  cpu time    4.0286: real time    4.0628
    CHARGE:  cpu time    1.2521: real time    1.2521
    --------------------------------------------
      LOOP:  cpu time   17.5086: real time   17.5861

 eigenvalue-minimisations  :     0
 total energy-change (2. order) :-0.2536795E+00  (-0.1412791E+00)
 number of electron     269.9999992 magnetization      16.8512383
 augmentation part       87.0721813 magnetization      11.6458773

 Free energy of the ion-electron system (eV)
  ---------------------------------------------------
  alpha Z        PSCENC =       798.38614055
  Ewald energy   TEWEN  =    -12901.57693327
  -Hartree energ DENC   =     -2513.66617332
  -exchange      EXHF   =         0.00000000
  -V(xc)+E(xc)   XCENC  =      -998.19920824
  PAW double counting   =     19551.57639355   -18306.46177794
  entropy T*S    EENTRO =        -0.03259721
  eigenvalues    EBANDS =      1315.71634006
  atomic energy  EATOM  =     12697.67401269
  ---------------------------------------------------
  free energy    TOTEN  =      -356.58334781 eV

  energy without entropy =     -356.55075060  energy(sigma->0) =     -356.57248207


--------------------------------------------------------------------------------------------------------




--------------------------------------- Iteration      1(  19)  ---------------------------------------


    POTLOK:  cpu time    0.3922: real time    0.3922
    SETDIJ:  cpu time    0.5135: real time    0.5135
    TRIAL :  cpu time   11.7200: real time   11.7411
    CORREC:  cpu time    4.0092: real time    4.0209
    CHARGE:  cpu time    1.2638: real time    1.3556
    --------------------------------------------
      LOOP:  cpu time   17.9008: real time   18.0260

 eigenvalue-minimisations  :     0
 total energy-change (2. order) :-0.1408841E+00  (-0.6228624E-01)
 number of electron     269.9999992 magnetization      16.9076912
 augmentation part       86.8436808 magnetization      11.6933796

 Free energy of the ion-electron system (eV)
  ---------------------------------------------------
  alpha Z        PSCENC =       798.38614055
  Ewald energy   TEWEN  =    -12901.57693327
  -Hartree energ DENC   =     -2501.81536233
  -exchange      EXHF   =         0.00000000
  -V(xc)+E(xc)   XCENC  =      -998.37758393
  PAW double counting   =     19500.98343551   -18253.62301752
  entropy T*S    EENTRO =        -0.03268345
  eigenvalues    EBANDS =      1301.65767363
  atomic energy  EATOM  =     12697.67401269
  ---------------------------------------------------
  free energy    TOTEN  =      -356.72423188 eV

  energy without entropy =     -356.69154844  energy(sigma->0) =     -356.71333740


--------------------------------------------------------------------------------------------------------




--------------------------------------- Iteration      1(  20)  ---------------------------------------


    POTLOK:  cpu time    0.3921: real time    0.3923
    SETDIJ:  cpu time    0.4789: real time    0.4789
    TRIAL :  cpu time   11.4403: real time   11.7314
    CORREC:  cpu time    4.1941: real time    4.4864
    CHARGE:  cpu time    1.2745: real time    1.2745
    --------------------------------------------
      LOOP:  cpu time   17.7813: real time   18.3660

 eigenvalue-minimisations  :     0
 total energy-change (2. order) :-0.6229189E-01  (-0.5983354E-01)
 number of electron     269.9999992 magnetization      16.9587668
 augmentation part       86.8076693 magnetization      11.7616523

 Free energy of the ion-electron system (eV)
  ---------------------------------------------------
  alpha Z        PSCENC =       798.38614055
  Ewald energy   TEWEN  =    -12901.57693327
  -Hartree energ DENC   =     -2491.61553066
  -exchange      EXHF   =         0.00000000
  -V(xc)+E(xc)   XCENC  =      -998.61312842
  PAW double counting   =     19481.20902121   -18231.67134437
  entropy T*S    EENTRO =        -0.03287183
  eigenvalues    EBANDS =      1289.45392194
  atomic energy  EATOM  =     12697.67401269
  ---------------------------------------------------
  free energy    TOTEN  =      -356.78652377 eV

  energy without entropy =     -356.75365194  energy(sigma->0) =     -356.77556650


--------------------------------------------------------------------------------------------------------




--------------------------------------- Iteration      1(  21)  ---------------------------------------


    POTLOK:  cpu time    0.3957: real time    0.3957
    SETDIJ:  cpu time    0.5047: real time    0.5047
    TRIAL :  cpu time   11.3140: real time   11.3905
    CORREC:  cpu time    4.0920: real time    4.1089
    CHARGE:  cpu time    1.2717: real time    1.2718
    --------------------------------------------
      LOOP:  cpu time   17.5828: real time   17.6773

 eigenvalue-minimisations  :     0
 total energy-change (2. order) :-0.5974680E-01  (-0.3249969E-01)
 number of electron     269.9999992 magnetization      17.0118759
 augmentation part       86.9276712 magnetization      11.8233459

 Free energy of the ion-electron system (eV)
  ---------------------------------------------------
  alpha Z        PSCENC =       798.38614055
  Ewald energy   TEWEN  =    -12901.57693327
  -Hartree energ DENC   =     -2492.43320038
  -exchange      EXHF   =         0.00000000
  -V(xc)+E(xc)   XCENC  =      -998.43407454
  PAW double counting   =     19487.01215173   -18237.62733908
  entropy T*S    EENTRO =        -0.03253879
  eigenvalues    EBANDS =      1290.18584356
  atomic energy  EATOM  =     12697.67401269
  ---------------------------------------------------
  free energy    TOTEN  =      -356.84627058 eV

  energy without entropy =     -356.81373179  energy(sigma->0) =     -356.83542431


--------------------------------------------------------------------------------------------------------




--------------------------------------- Iteration      1(  22)  ---------------------------------------


    POTLOK:  cpu time    0.3925: real time    0.3925
    SETDIJ:  cpu time    0.4643: real time    0.4643
    TRIAL :  cpu time   11.3223: real time   11.3791
    CORREC:  cpu time    4.0200: real time    4.0207
    CHARGE:  cpu time    1.2694: real time    1.2695
    --------------------------------------------
      LOOP:  cpu time   17.4714: real time   17.5297

 eigenvalue-minimisations  :     0
 total energy-change (2. order) :-0.3255823E-01  (-0.1114613E-01)
 number of electron     269.9999992 magnetization      17.0448497
 augmentation part       86.9837856 magnetization      11.8525105

 Free energy of the ion-electron system (eV)
  ---------------------------------------------------
  alpha Z        PSCENC =       798.38614055
  Ewald energy   TEWEN  =    -12901.57693327
  -Hartree energ DENC   =     -2500.42423940
  -exchange      EXHF   =         0.00000000
  -V(xc)+E(xc)   XCENC  =      -998.06485433
  PAW double counting   =     19504.44743598   -18256.71935902
  entropy T*S    EENTRO =        -0.03257352
  eigenvalues    EBANDS =      1299.43150678
  atomic energy  EATOM  =     12697.67401269
  ---------------------------------------------------
  free energy    TOTEN  =      -356.87882881 eV

  energy without entropy =     -356.84625529  energy(sigma->0) =     -356.86797097


--------------------------------------------------------------------------------------------------------




--------------------------------------- Iteration      1(  23)  ---------------------------------------


    POTLOK:  cpu time    0.3920: real time    0.3920
    SETDIJ:  cpu time    0.5033: real time    0.5033
    TRIAL :  cpu time   11.2609: real time   11.3991
    CORREC:  cpu time    4.0170: real time    4.0706
    CHARGE:  cpu time    1.2499: real time    1.2501
    --------------------------------------------
      LOOP:  cpu time   18.1782: real time   18.3712

 eigenvalue-minimisations  :     0
 total energy-change (2. order) :-0.1115895E-01  (-0.1412420E-01)
 number of electron     269.9999992 magnetization      17.1150167
 augmentation part       86.9912190 magnetization      11.9037152

 Free energy of the ion-electron system (eV)
  ---------------------------------------------------
  alpha Z        PSCENC =       798.38614055
  Ewald energy   TEWEN  =    -12901.57693327
  -Hartree energ DENC   =     -2503.81287439
  -exchange      EXHF   =         0.00000000
  -V(xc)+E(xc)   XCENC  =      -997.90148879
  PAW double counting   =     19510.44470706   -18263.43829525
  entropy T*S    EENTRO =        -0.03228604
  eigenvalues    EBANDS =      1303.36731715
  atomic energy  EATOM  =     12697.67401269
  ---------------------------------------------------
  free energy    TOTEN  =      -356.88998776 eV

  energy without entropy =     -356.85770172  energy(sigma->0) =     -356.87922575


--------------------------------------------------------------------------------------------------------




--------------------------------------- Iteration      1(  24)  ---------------------------------------


    POTLOK:  cpu time    0.3960: real time    0.4056
    SETDIJ:  cpu time    0.4431: real time    1.2268
    TRIAL :  cpu time   11.2924: real time   11.3571
    CORREC:  cpu time    4.0217: real time    4.0506
    CHARGE:  cpu time    1.2823: real time    1.2823
    --------------------------------------------
      LOOP:  cpu time   17.4630: real time   18.3511

 eigenvalue-minimisations  :     0
 total energy-change (2. order) :-0.1411791E-01  (-0.1403019E-01)
 number of electron     269.9999992 magnetization      17.1810060
 augmentation part       86.9409438 magnetization      11.9545849

 Free energy of the ion-electron system (eV)
  ---------------------------------------------------
  alpha Z        PSCENC =       798.38614055
  Ewald energy   TEWEN  =    -12901.57693327
  -Hartree energ DENC   =     -2504.28579725
  -exchange      EXHF   =         0.00000000
  -V(xc)+E(xc)   XCENC  =      -997.81128440
  PAW double counting   =     19508.32240492   -18261.40760658
  entropy T*S    EENTRO =        -0.03181684
  eigenvalues    EBANDS =      1303.82724372
  atomic energy  EATOM  =     12697.67401269
  ---------------------------------------------------
  free energy    TOTEN  =      -356.90410567 eV

  energy without entropy =     -356.87228883  energy(sigma->0) =     -356.89350006


--------------------------------------------------------------------------------------------------------




--------------------------------------- Iteration      1(  25)  ---------------------------------------


    POTLOK:  cpu time    0.3918: real time    0.3920
    SETDIJ:  cpu time    0.4851: real time    0.4916
    TRIAL :  cpu time   11.2820: real time   11.3354
    CORREC:  cpu time    4.0178: real time    4.0185
    CHARGE:  cpu time    1.2769: real time    1.2770
    --------------------------------------------
      LOOP:  cpu time   17.4562: real time   17.5197

 eigenvalue-minimisations  :     0
 total energy-change (2. order) :-0.1403965E-01  (-0.1091793E-01)
 number of electron     269.9999992 magnetization      17.2574919
 augmentation part       86.9279801 magnetization      12.0148532

 Free energy of the ion-electron system (eV)
  ---------------------------------------------------
  alpha Z        PSCENC =       798.38614055
  Ewald energy   TEWEN  =    -12901.57693327
[...]
   45       -0.029  -0.024  -2.252  -2.306
   46        0.017   0.022   2.378   2.416
   47       -0.016  -0.016  -2.303  -2.335
   48        0.014   0.015   2.352   2.381
   49        0.017   0.021   2.372   2.410
   50       -0.016  -0.016  -2.294  -2.326
   51        0.014   0.015   2.351   2.380
   52        0.019   0.017   2.393   2.429
   53       -0.014  -0.020  -2.288  -2.322
   54        0.025   0.027   2.386   2.438
--------------------------------------------------
tot         -0.016  -0.083  17.301  17.201
 
    FORLOC:  cpu time    0.0583: real time    0.0583
    FORNL :  cpu time   17.8501: real time   17.8913
    STRESS:  cpu time   26.7029: real time   27.9889
    FORCOR:  cpu time    0.4389: real time    0.4389
    OFIELD:  cpu time    0.0023: real time    0.0023

  FORCE on cell =-STRESS in cart. coord.  units (eV):
  Direction    XX          YY          ZZ          XY          YZ          ZX
  --------------------------------------------------------------------------------------
  Alpha Z   798.38614   798.38614   798.38614
  Ewald   -4053.61603 -4053.61603 -4794.40593    -0.00000    -0.00000    -0.00000
  Hartree  1084.81455  1084.81455   331.99312    -0.00000    -0.00000    -0.00000
  E(xc)   -1141.91384 -1141.91384 -1139.81636    -0.00000    -0.00000     0.00000
  Local     367.85507   367.85507  1907.22414     0.00000    -0.00000     0.00000
  n-local  -172.15049  -169.65824  -175.49507     0.27426    -0.16707    -0.28672
  augment   785.11708   785.11708   766.94409     0.00000     0.00001     0.00001
  Kinetic  2328.49793  2344.02240  2307.41843    -2.39367    -1.69020    -1.74410
  Fock        0.00000     0.00000     0.00000     0.00000     0.00000     0.00000
  -------------------------------------------------------------------------------------
  Total       5.99878     5.99878     2.24858     0.00000     0.00000    -0.00000
  in kB      13.53846    13.53846     5.07474     0.00000     0.00000    -0.00000
  external pressure =       10.72 kB  Pullay stress =        0.00 kB


 VOLUME and BASIS-vectors are now :
 -----------------------------------------------------------------------------
  energy-cutoff  :      404.80
  volume of cell :      709.91
      direct lattice vectors                 reciprocal lattice vectors
     8.250148166  0.000000000  0.000000000     0.121209944  0.000000000  0.000000000
     0.000000000  8.250148166  0.000000000     0.000000000  0.121209944  0.000000000
     0.000000000  0.000000000 10.429911392     0.000000000  0.000000000  0.095878092

  length of vectors
     8.250148166  8.250148166 10.429911392     0.121209944  0.121209944  0.095878092


 FORCES acting on ions:
    Electron-Ion                     Ewald-Force                    Non-Local-Force
 -----------------------------------------------------------------------------------------------
   0.293E-09 -.284E-01 -.167E-01   -.239E-08 -.239E-08 -.210E-08   0.169E-19 0.105E-02 -.127E-01
   0.308E-09 0.959E-02 0.142E+00   -.239E-08 -.239E-08 0.171E-08   0.000E+00 -.442E-02 -.602E-01
   0.314E-09 -.161E-01 -.729E-01   -.239E-08 -.239E-08 0.861E-08   0.000E+00 0.735E-02 0.380E-01
   0.293E-09 0.373E-09 0.158E-01   -.239E-08 -.802E-09 -.210E-08   0.000E+00 0.542E-19 -.394E-01
   0.307E-09 0.373E-09 0.950E-01   -.239E-08 -.802E-09 0.171E-08   0.000E+00 -.271E-19 -.628E-01
   0.306E-09 0.373E-09 -.112E+00   -.239E-08 -.802E-09 0.861E-08   -.542E-19 0.542E-19 0.835E-01
   0.293E-09 0.284E-01 -.167E-01   -.239E-08 0.631E-08 -.210E-08   -.136E-19 -.105E-02 -.127E-01
   0.308E-09 -.959E-02 0.142E+00   -.239E-08 0.631E-08 0.171E-08   -.163E-18 0.442E-02 -.602E-01
   0.314E-09 0.161E-01 -.729E-01   -.239E-08 0.631E-08 0.861E-08   0.000E+00 -.735E-02 0.380E-01
   -.470E-02 0.470E-02 0.254E-01   -.802E-09 -.239E-08 -.210E-08   -.180E-01 0.180E-01 0.197E-01
   -.569E-02 0.569E-02 0.402E-01   -.802E-09 -.239E-08 0.171E-08   0.971E-02 -.971E-02 -.176E-01
   -.106E+00 0.106E+00 -.124E+00   -.803E-09 -.239E-08 0.861E-08   0.879E-01 -.879E-01 0.422E-01
   0.284E-01 0.373E-09 -.167E-01   -.802E-09 -.802E-09 -.210E-08   -.105E-02 0.000E+00 -.127E-01
   -.959E-02 0.373E-09 0.142E+00   -.802E-09 -.802E-09 0.171E-08   0.442E-02 0.000E+00 -.602E-01
   0.161E-01 0.373E-09 -.729E-01   -.803E-09 -.802E-09 0.861E-08   -.735E-02 -.813E-19 0.380E-01
   -.470E-02 -.470E-02 0.254E-01   -.802E-09 0.631E-08 -.210E-08   -.180E-01 -.180E-01 0.197E-01
   -.569E-02 -.569E-02 0.402E-01   -.802E-09 0.631E-08 0.171E-08   0.971E-02 0.971E-02 -.176E-01
   -.106E+00 -.106E+00 -.124E+00   -.803E-09 0.631E-08 0.861E-08   0.879E-01 0.879E-01 0.422E-01
   0.470E-02 0.470E-02 0.254E-01   0.631E-08 -.239E-08 -.210E-08   0.180E-01 0.180E-01 0.197E-01
   0.569E-02 0.569E-02 0.402E-01   0.631E-08 -.239E-08 0.171E-08   -.971E-02 -.971E-02 -.176E-01
   0.106E+00 0.106E+00 -.124E+00   0.631E-08 -.239E-08 0.861E-08   -.879E-01 -.879E-01 0.422E-01
   -.284E-01 0.373E-09 -.167E-01   0.631E-08 -.802E-09 -.210E-08   0.105E-02 0.217E-18 -.127E-01
   0.959E-02 0.373E-09 0.142E+00   0.631E-08 -.802E-09 0.171E-08   -.442E-02 -.678E-20 -.602E-01
   -.161E-01 0.373E-09 -.729E-01   0.631E-08 -.802E-09 0.861E-08   0.735E-02 0.000E+00 0.380E-01
   0.470E-02 -.470E-02 0.254E-01   0.631E-08 0.631E-08 -.210E-08   0.180E-01 -.180E-01 0.197E-01
   0.569E-02 -.569E-02 0.402E-01   0.631E-08 0.631E-08 0.171E-08   -.971E-02 0.971E-02 -.176E-01
   0.106E+00 -.106E+00 -.124E+00   0.631E-08 0.631E-08 0.861E-08   -.879E-01 0.879E-01 0.422E-01
   0.295E-01 -.295E-01 0.567E-01   -.169E-07 -.169E-07 -.180E-07   -.606E-01 0.606E-01 -.633E-03
   0.174E-01 -.174E-01 0.128E-01   -.169E-07 -.169E-07 -.170E-08   0.460E-02 -.460E-02 -.249E-02
   0.110E+00 -.110E+00 -.417E-01   -.169E-07 -.169E-07 0.115E-07   -.118E+00 0.118E+00 -.265E-01
   0.295E-01 0.295E-01 0.567E-01   -.169E-07 0.802E-09 -.180E-07   -.606E-01 -.606E-01 -.633E-03
   0.174E-01 0.174E-01 0.128E-01   -.169E-07 0.802E-09 -.170E-08   0.460E-02 0.460E-02 -.249E-02
   0.110E+00 0.110E+00 -.417E-01   -.169E-07 0.802E-09 0.115E-07   -.118E+00 -.118E+00 -.265E-01
   0.598E-01 -.605E-08 -.478E-01   -.169E-07 0.130E-07 -.180E-07   -.763E-02 0.000E+00 0.116E+00
   -.532E-01 -.605E-08 -.144E+00   -.169E-07 0.130E-07 -.170E-08   0.115E-01 0.000E+00 0.140E+00
   -.309E+00 -.605E-08 0.566E-01   -.169E-07 0.130E-07 0.115E-07   0.157E+00 0.651E-18 -.696E-01
   0.217E-09 -.598E-01 -.478E-01   0.802E-09 -.169E-07 -.180E-07   0.000E+00 0.763E-02 0.116E+00
   0.219E-09 0.532E-01 -.144E+00   0.802E-09 -.169E-07 -.170E-08   0.000E+00 -.115E-01 0.140E+00
   0.209E-09 0.309E+00 0.566E-01   0.802E-09 -.169E-07 0.115E-07   -.434E-18 -.157E+00 -.696E-01
   0.217E-09 0.598E-01 -.478E-01   0.802E-09 0.802E-09 -.180E-07   0.217E-18 -.763E-02 0.116E+00
   0.219E-09 -.532E-01 -.144E+00   0.802E-09 0.802E-09 -.170E-08   0.000E+00 0.115E-01 0.140E+00
   0.209E-09 -.309E+00 0.566E-01   0.802E-09 0.802E-09 0.115E-07   0.325E-18 0.157E+00 -.696E-01
   0.217E-09 -.605E-08 0.259E+00   0.802E-09 0.130E-07 -.180E-07   0.000E+00 0.000E+00 -.257E+00
   0.217E-09 -.604E-08 0.265E+00   0.802E-09 0.130E-07 -.170E-08   0.000E+00 0.000E+00 -.411E+00
   0.195E-09 -.605E-08 -.281E+00   0.802E-09 0.130E-07 0.115E-07   0.867E-18 0.867E-18 0.247E+00
   -.295E-01 -.295E-01 0.567E-01   0.130E-07 -.169E-07 -.180E-07   0.606E-01 0.606E-01 -.633E-03
   -.174E-01 -.174E-01 0.128E-01   0.130E-07 -.169E-07 -.170E-08   -.460E-02 -.460E-02 -.249E-02
   -.110E+00 -.110E+00 -.417E-01   0.130E-07 -.169E-07 0.115E-07   0.118E+00 0.118E+00 -.265E-01
   -.295E-01 0.295E-01 0.567E-01   0.130E-07 0.802E-09 -.180E-07   0.606E-01 -.606E-01 -.633E-03
   -.174E-01 0.174E-01 0.128E-01   0.130E-07 0.802E-09 -.170E-08   -.460E-02 0.460E-02 -.249E-02
   -.110E+00 0.110E+00 -.417E-01   0.130E-07 0.802E-09 0.115E-07   0.118E+00 -.118E+00 -.265E-01
   -.598E-01 -.605E-08 -.478E-01   0.130E-07 0.130E-07 -.180E-07   0.763E-02 0.000E+00 0.116E+00
   0.532E-01 -.605E-08 -.144E+00   0.130E-07 0.130E-07 -.170E-08   -.115E-01 0.000E+00 0.140E+00
   0.309E+00 -.605E-08 0.566E-01   0.130E-07 0.130E-07 0.115E-07   -.157E+00 -.867E-18 -.696E-01
 -----------------------------------------------------------------------------------------------
   -.286E-07 -.361E-07 -.226E+00   -.614E-13 -.142E-13 0.128E-13   0.000E+00 0.269E-16 0.226E+00
 
 
 POSITION                                       TOTAL-FORCE (eV/Angst)
 -----------------------------------------------------------------------------------
      0.00000      0.00000      0.00000         0.000000     -0.027989     -0.028775
      0.00000      0.00000      3.47664         0.000000      0.005494      0.087710
      0.00000      0.00000      6.95327         0.000000     -0.009857     -0.037954
      0.00000      2.75005      0.00000         0.000000      0.000000     -0.020305
      0.00000      2.75005      3.47664         0.000000      0.000000      0.037449
      0.00000      2.75005      6.95327         0.000000      0.000000     -0.035477
      0.00000      5.50010      0.00000         0.000000      0.027989     -0.028775
      0.00000      5.50010      3.47664         0.000000     -0.005494      0.087710
      0.00000      5.50010      6.95327         0.000000      0.009857     -0.037954
      2.75005      0.00000      0.00000        -0.020609      0.020609      0.042154
      2.75005      0.00000      3.47664         0.003231     -0.003231      0.023937
      2.75005      0.00000      6.95327        -0.025681      0.025681     -0.084575
      2.75005      2.75005      0.00000         0.027989      0.000000     -0.028775
      2.75005      2.75005      3.47664        -0.005494      0.000000      0.087710
      2.75005      2.75005      6.95327         0.009857      0.000000     -0.037954
      2.75005      5.50010      0.00000        -0.020609     -0.020609      0.042154
      2.75005      5.50010      3.47664         0.003231      0.003231      0.023937
      2.75005      5.50010      6.95327        -0.025681     -0.025681     -0.084575
      5.50010      0.00000      0.00000         0.020609      0.020609      0.042154
      5.50010      0.00000      3.47664        -0.003231     -0.003231      0.023937
      5.50010      0.00000      6.95327         0.025681      0.025681     -0.084575
      5.50010      2.75005      0.00000        -0.027989      0.000000     -0.028775
      5.50010      2.75005      3.47664         0.005494      0.000000      0.087710
      5.50010      2.75005      6.95327        -0.009857      0.000000     -0.037954
      5.50010      5.50010      0.00000         0.020609     -0.020609      0.042154
      5.50010      5.50010      3.47664        -0.003231      0.003231      0.023937
      5.50010      5.50010      6.95327         0.025681     -0.025681     -0.084575
      1.37502      1.37502      1.73832        -0.030504      0.030504      0.048540
      1.37502      1.37502      5.21496         0.022182     -0.022182      0.011887
      1.37502      1.37502      8.69159        -0.005580      0.005580     -0.060417
      1.37502      4.12507      1.73832        -0.030504     -0.030504      0.048540
      1.37502      4.12507      5.21496         0.022182      0.022182      0.011887
      1.37502      4.12507      8.69159        -0.005580     -0.005580     -0.060417
      1.37502      6.87512      1.73832         0.050122      0.000000      0.058880
      1.37502      6.87512      5.21496        -0.040756      0.000000     -0.006394
      1.37502      6.87512      8.69159        -0.155884      0.000000     -0.007812
      4.12507      1.37502      1.73832         0.000000     -0.050122      0.058880
      4.12507      1.37502      5.21496         0.000000      0.040756     -0.006394
      4.12507      1.37502      8.69159         0.000000      0.155884     -0.007812
      4.12507      4.12507      1.73832         0.000000      0.050122      0.058880
      4.12507      4.12507      5.21496         0.000000     -0.040756     -0.006394
      4.12507      4.12507      8.69159         0.000000     -0.155884     -0.007812
      4.12507      6.87512      1.73832         0.000000      0.000000      0.006715
      4.12507      6.87512      5.21496         0.000000      0.000000     -0.136706
      4.12507      6.87512      8.69159         0.000000      0.000000     -0.040397
      6.87512      1.37502      1.73832         0.030504      0.030504      0.048540
      6.87512      1.37502      5.21496        -0.022182     -0.022182      0.011887
      6.87512      1.37502      8.69159         0.005580      0.005580     -0.060417
      6.87512      4.12507      1.73832         0.030504     -0.030504      0.048540
      6.87512      4.12507      5.21496        -0.022182      0.022182      0.011887
      6.87512      4.12507      8.69159         0.005580     -0.005580     -0.060417
      6.87512      6.87512      1.73832        -0.050122      0.000000      0.058880
      6.87512      6.87512      5.21496         0.040756      0.000000     -0.006394
      6.87512      6.87512      8.69159         0.155884      0.000000     -0.007812
 -----------------------------------------------------------------------------------
    total drift:                               -0.000000     -0.000000      0.000048


--------------------------------------------------------------------------------------------------------



  FREE ENERGIE OF THE ION-ELECTRON SYSTEM (eV)
  ---------------------------------------------------
  free  energy   TOTEN  =      -356.94601756 eV

  energy  without entropy=     -356.91497916  energy(sigma->0) =     -356.93567143
 


--------------------------------------------------------------------------------------------------------


    POTLOK:  cpu time    0.8671: real time    0.8671


--------------------------------------------------------------------------------------------------------


     LOOP+:  cpu time 1403.1590: real time 1431.0601
    4ORBIT:  cpu time    0.0000: real time    0.0000
 


 total charge     
 
# of ion       s       p       d       tot
------------------------------------------
    1        0.404   0.429   0.000   0.833
    2        0.405   0.427   0.000   0.833
    3        0.405   0.426   0.000   0.832
    4        0.404   0.429   0.000   0.833
    5        0.405   0.428   0.000   0.833
    6        0.405   0.427   0.000   0.832
    7        0.404   0.429   0.000   0.833
    8        0.405   0.427   0.000   0.833
    9        0.405   0.426   0.000   0.832
   10        0.404   0.430   0.000   0.834
   11        0.405   0.427   0.000   0.832
   12        0.406   0.428   0.000   0.834
   13        0.404   0.429   0.000   0.833
   14        0.405   0.427   0.000   0.832
   15        0.405   0.427   0.000   0.832
   16        0.404   0.429   0.000   0.834
   17        0.405   0.427   0.000   0.832
   18        0.406   0.428   0.000   0.834
   19        0.404   0.430   0.000   0.834
   20        0.405   0.427   0.000   0.832
   21        0.405   0.429   0.000   0.834
   22        0.404   0.429   0.000   0.833
   23        0.405   0.427   0.000   0.832
   24        0.405   0.427   0.000   0.832
   25        0.404   0.430   0.000   0.834
   26        0.405   0.427   0.000   0.832
   27        0.405   0.428   0.000   0.834
   28        0.333   0.352   5.133   5.818
   29        0.335   0.350   5.138   5.823
   30        0.332   0.352   5.133   5.817
   31        0.333   0.351   5.139   5.823
   32        0.335   0.350   5.139   5.824
   33        0.332   0.352   5.141   5.825
   34        0.333   0.350   5.147   5.829
   35        0.334   0.352   5.142   5.829
   36        0.334   0.354   5.154   5.842
   37        0.333   0.351   5.132   5.816
   38        0.334   0.352   5.127   5.813
   39        0.333   0.358   5.098   5.789
   40        0.333   0.350   5.138   5.821
   41        0.334   0.352   5.135   5.820
   42        0.333   0.358   5.099   5.790
   43        0.331   0.353   5.136   5.820
   44        0.335   0.348   5.138   5.821
   45        0.333   0.352   5.139   5.825
   46        0.333   0.351   5.133   5.818
   47        0.335   0.350   5.132   5.816
   48        0.332   0.352   5.141   5.825
   49        0.334   0.352   5.137   5.822
   50        0.334   0.351   5.135   5.820
   51        0.332   0.352   5.135   5.819
   52        0.333   0.350   5.133   5.816
   53        0.334   0.353   5.129   5.816
   54        0.334   0.354   5.156   5.844
--------------------------------------------------
tot         19.933  21.056 138.640 179.628
 


 magnetization (x)
 
# of ion       s       p       d       tot
------------------------------------------
    1       -0.022  -0.037   0.000  -0.058
    2        0.000  -0.001   0.000  -0.001
    3        0.001   0.002   0.000   0.003
    4       -0.023  -0.039   0.000  -0.061
    5       -0.000   0.002   0.000   0.002
    6       -0.000   0.001   0.000   0.001
    7       -0.022  -0.037   0.000  -0.059
    8       -0.000  -0.000   0.000  -0.000
    9        0.001   0.002   0.000   0.002
   10       -0.017  -0.030   0.000  -0.047
   11       -0.000   0.002   0.000   0.002
   12        0.004   0.009   0.000   0.014
   13       -0.021  -0.036   0.000  -0.057
   14       -0.000  -0.000   0.000  -0.000
   15        0.001   0.003   0.000   0.004
   16       -0.017  -0.030   0.000  -0.047
   17       -0.000   0.001   0.000   0.001
   18        0.004   0.010   0.000   0.014
   19       -0.017  -0.029   0.000  -0.046
   20        0.000   0.001   0.000   0.001
   21        0.004   0.009   0.000   0.013
   22       -0.021  -0.036   0.000  -0.057
   23        0.000  -0.000   0.000  -0.000
   24        0.001   0.003   0.000   0.004
   25       -0.017  -0.030   0.000  -0.047
   26       -0.000   0.002   0.000   0.002
   27        0.004   0.009   0.000   0.014
   28        0.017   0.021   2.375   2.413
   29       -0.016  -0.016  -2.295  -2.326
   30        0.014   0.014   2.353   2.381
   31        0.017   0.021   2.369   2.407
   32       -0.016  -0.016  -2.294  -2.325
   33        0.014   0.015   2.352   2.381
   34        0.019   0.018   2.375   2.411
   35       -0.014  -0.020  -2.270  -2.304
   36        0.025   0.026   2.388   2.440
   37        0.020   0.018   2.387   2.425
   38       -0.014  -0.019  -2.284  -2.317
   39        0.024   0.027   2.413   2.464
   40        0.019   0.018   2.377   2.414
   41       -0.013  -0.019  -2.270  -2.303
   42        0.024   0.027   2.414   2.465
   43        0.012   0.022   2.202   2.236
   44       -0.020  -0.014  -2.386  -2.420
   45       -0.029  -0.024  -2.252  -2.306
   46        0.017   0.022   2.378   2.416
   47       -0.016  -0.016  -2.303  -2.335
   48        0.014   0.015   2.352   2.381
   49        0.017   0.021   2.372   2.410
   50       -0.016  -0.016  -2.294  -2.326
   51        0.014   0.015   2.351   2.380
   52        0.019   0.017   2.393   2.429
   53       -0.014  -0.020  -2.288  -2.322
   54        0.025   0.027   2.386   2.438
--------------------------------------------------
tot         -0.016  -0.083  17.301  17.201
 

 total amount of memory used by VASP MPI-rank0   626513. kBytes
=======================================================================

   base      :      30000. kBytes
   nonl-proj :      19946. kBytes
   fftplans  :      31580. kBytes
   grid      :      21385. kBytes
   one-center:        435. kBytes
   wavefun   :     523167. kBytes
 
  
  
 General timing and accounting informations for this job:
 ========================================================
  
                  Total CPU time used (sec):     1426.230
                            User time (sec):     1404.907
                          System time (sec):       21.323
                         Elapsed time (sec):     1455.866
  
                   Maximum memory used (kb):      786756.
                   Average memory used (kb):           0.
  
                          Minor page faults:       616699
                          Major page faults:           14
                 Voluntary context switches:         2643
