<?xml version="1.0" encoding="ISO-8859-1"?>
<modeling>
 <generator>
  <i name="program" type="string">vasp </i>
  <i name="version" type="string">5.4.4.18Apr17-6-g9f103f2a35  </i>
  <i name="subversion" type="string">(build Dec 13 2018 10:28:32) complex            parallel </i>
  <i name="platform" type="string">LinuxIFC </i>
  <i name="date" type="string">2019 06 10 </i>
  <i name="time" type="string">13:37:42 </i>
 </generator>
 <incar>
  <i type="string" name="SYSTEM"> BCC_IRON</i>
  <i type="string" name="PREC">accurate</i>
  <i type="int" name="ISPIN">     2</i>
  <i type="int" name="NELM">   100</i>
  <i name="EDIFF">      0.00000010</i>
  <i name="ENCUT">    349.00000000</i>
  <v name="MAGMOM">      2.17400000     -2.17400000</v>
  <i type="logical" name="LREAL"> F  </i>
  <i type="int" name="ISMEAR">     1</i>
  <i name="SIGMA">      0.01000000</i>
  <i type="logical" name="LWAVE"> F  </i>
  <i type="logical" name="LCHARG"> F  </i>
  <i type="int" name="LORBIT">    11</i>
  <v type="int" name="KPOINT_BSE">    -1     0     0     0</v>
  <i type="int" name="NELM">   100</i>
 </incar>
 <structure name="primitive_cell" >
  <crystal>
   <varray name="basis" >
    <v>       1.41450444       1.41450444       1.41450444 </v>
    <v>       1.41450444      -1.41450444      -1.41450444 </v>
    <v>      -1.41450444       1.41450444      -1.41450444 </v>
   </varray>
   <i name="volume">     11.32069102 </i>
   <varray name="rec_basis" >
    <v>       0.35348069       0.35348069       0.00000000 </v>
    <v>       0.35348069       0.00000000      -0.35348069 </v>
    <v>       0.00000000       0.35348069      -0.35348069 </v>
   </varray>
  </crystal>
  <varray name="positions" >
   <v>       0.00000000       0.00000000       0.00000000 </v>
  </varray>
 </structure>
 <varray name="primitive_index" >
  <v type="int" >        1 </v>
 </varray>
 <kpoints>
  <generation param="Auto">
   <i name="subdivisionlength">     40.00000000 </i>
   <v type="int" name="divisions">      14       14       14 </v>
   <v name="usershift">      0.00000000       0.00000000       0.00000000 </v>
   <v name="genvec1">      0.07142857       0.00000000       0.00000000 </v>
   <v name="genvec2">      0.00000000       0.07142857       0.00000000 </v>
   <v name="genvec3">      0.00000000       0.00000000       0.07142857 </v>
   <v name="shift">      0.00000000       0.00000000       0.00000000 </v>
  </generation>
  <varray name="kpointlist" >
   <v>       0.00000000       0.00000000       0.00000000 </v>
   <v>       0.07142857       0.00000000       0.00000000 </v>
   <v>       0.14285714       0.00000000       0.00000000 </v>
   <v>       0.21428571       0.00000000       0.00000000 </v>
   <v>       0.28571429       0.00000000       0.00000000 </v>
   <v>       0.35714286       0.00000000       0.00000000 </v>
   <v>       0.42857143       0.00000000       0.00000000 </v>
   <v>       0.50000000       0.00000000       0.00000000 </v>
   <v>       0.07142857       0.07142857       0.00000000 </v>
   <v>       0.14285714       0.07142857       0.00000000 </v>
   <v>       0.21428571       0.07142857       0.00000000 </v>
   <v>       0.28571429       0.07142857       0.00000000 </v>
   <v>       0.35714286       0.07142857       0.00000000 </v>
   <v>       0.42857143       0.07142857       0.00000000 </v>
   <v>       0.50000000       0.07142857       0.00000000 </v>
   <v>       0.14285714       0.14285714       0.00000000 </v>
   <v>       0.21428571       0.14285714       0.00000000 </v>
   <v>       0.28571429       0.14285714       0.00000000 </v>
   <v>       0.35714286       0.14285714       0.00000000 </v>
   <v>       0.42857143       0.14285714       0.00000000 </v>
   <v>       0.50000000       0.14285714       0.00000000 </v>
   <v>       0.21428571       0.21428571       0.00000000 </v>
   <v>       0.28571429       0.21428571       0.00000000 </v>
   <v>       0.35714286       0.21428571       0.00000000 </v>
   <v>       0.42857143       0.21428571       0.00000000 </v>
   <v>       0.50000000       0.21428571       0.00000000 </v>
   <v>       0.28571429       0.28571429       0.00000000 </v>
   <v>       0.35714286       0.28571429       0.00000000 </v>
   <v>       0.42857143       0.28571429       0.00000000 </v>
   <v>       0.50000000       0.28571429       0.00000000 </v>
   <v>       0.35714286       0.35714286       0.00000000 </v>
   <v>       0.42857143       0.35714286       0.00000000 </v>
   <v>       0.50000000       0.35714286       0.00000000 </v>
   <v>       0.42857143       0.42857143       0.00000000 </v>
   <v>       0.50000000       0.42857143       0.00000000 </v>
   <v>       0.50000000       0.50000000       0.00000000 </v>
   <v>       0.07142857       0.07142857       0.07142857 </v>
   <v>       0.14285714       0.07142857       0.07142857 </v>
   <v>       0.21428571       0.07142857       0.07142857 </v>
   <v>       0.28571429       0.07142857       0.07142857 </v>
   <v>       0.35714286       0.07142857       0.07142857 </v>
   <v>       0.42857143       0.07142857       0.07142857 </v>
   <v>       0.50000000       0.07142857       0.07142857 </v>
   <v>       0.14285714       0.14285714       0.07142857 </v>
   <v>       0.21428571       0.14285714       0.07142857 </v>
   <v>       0.28571429       0.14285714       0.07142857 </v>
   <v>       0.35714286       0.14285714       0.07142857 </v>
   <v>       0.42857143       0.14285714       0.07142857 </v>
   <v>       0.50000000       0.14285714       0.07142857 </v>
   <v>       0.21428571       0.21428571       0.07142857 </v>
   <v>       0.28571429       0.21428571       0.07142857 </v>
   <v>       0.35714286       0.21428571       0.07142857 </v>
   <v>       0.42857143       0.21428571       0.07142857 </v>
   <v>       0.50000000       0.21428571       0.07142857 </v>
   <v>       0.28571429       0.28571429       0.07142857 </v>
   <v>       0.35714286       0.28571429       0.07142857 </v>
   <v>       0.42857143       0.28571429       0.07142857 </v>
   <v>       0.50000000       0.28571429       0.07142857 </v>
   <v>       0.35714286       0.35714286       0.07142857 </v>
   <v>       0.42857143       0.35714286       0.07142857 </v>
   <v>       0.50000000       0.35714286       0.07142857 </v>
   <v>       0.42857143       0.42857143       0.07142857 </v>
   <v>       0.50000000       0.42857143       0.07142857 </v>
   <v>       0.50000000       0.50000000       0.07142857 </v>
   <v>       0.14285714       0.14285714       0.14285714 </v>
   <v>       0.21428571       0.14285714       0.14285714 </v>
   <v>       0.28571429       0.14285714       0.14285714 </v>
   <v>       0.35714286       0.14285714       0.14285714 </v>
   <v>       0.42857143       0.14285714       0.14285714 </v>
   <v>       0.50000000       0.14285714       0.14285714 </v>
   <v>       0.21428571       0.21428571       0.14285714 </v>
   <v>       0.28571429       0.21428571       0.14285714 </v>
   <v>       0.35714286       0.21428571       0.14285714 </v>
   <v>       0.42857143       0.21428571       0.14285714 </v>
   <v>       0.50000000       0.21428571       0.14285714 </v>
   <v>       0.28571429       0.28571429       0.14285714 </v>
   <v>       0.35714286       0.28571429       0.14285714 </v>
   <v>       0.42857143       0.28571429       0.14285714 </v>
   <v>       0.50000000       0.28571429       0.14285714 </v>
   <v>       0.35714286       0.35714286       0.14285714 </v>
   <v>       0.42857143       0.35714286       0.14285714 </v>
   <v>       0.50000000       0.35714286       0.14285714 </v>
   <v>       0.42857143       0.42857143       0.14285714 </v>
   <v>       0.50000000       0.42857143       0.14285714 </v>
   <v>       0.50000000       0.50000000       0.14285714 </v>
   <v>       0.21428571       0.21428571       0.21428571 </v>
   <v>       0.28571429       0.21428571       0.21428571 </v>
   <v>       0.35714286       0.21428571       0.21428571 </v>
   <v>       0.42857143       0.21428571       0.21428571 </v>
   <v>       0.50000000       0.21428571       0.21428571 </v>
   <v>       0.28571429       0.28571429       0.21428571 </v>
   <v>       0.35714286       0.28571429       0.21428571 </v>
   <v>       0.42857143       0.28571429       0.21428571 </v>
   <v>       0.50000000       0.28571429       0.21428571 </v>
   <v>       0.35714286       0.35714286       0.21428571 </v>
   <v>       0.42857143       0.35714286       0.21428571 </v>
   <v>       0.50000000       0.35714286       0.21428571 </v>
   <v>       0.42857143       0.42857143       0.21428571 </v>
   <v>       0.50000000       0.42857143       0.21428571 </v>
   <v>       0.50000000       0.50000000       0.21428571 </v>
   <v>       0.28571429       0.28571429       0.28571429 </v>
   <v>       0.35714286       0.28571429       0.28571429 </v>
   <v>       0.42857143       0.28571429       0.28571429 </v>
   <v>       0.50000000       0.28571429       0.28571429 </v>
   <v>       0.35714286       0.35714286       0.28571429 </v>
   <v>       0.42857143       0.35714286       0.28571429 </v>
   <v>       0.50000000       0.35714286       0.28571429 </v>
   <v>       0.42857143       0.42857143       0.28571429 </v>
   <v>       0.50000000       0.42857143       0.28571429 </v>
   <v>       0.50000000       0.50000000       0.28571429 </v>
   <v>       0.35714286       0.35714286       0.35714286 </v>
   <v>       0.42857143       0.35714286       0.35714286 </v>
   <v>       0.50000000       0.35714286       0.35714286 </v>
   <v>       0.42857143       0.42857143       0.35714286 </v>
   <v>       0.50000000       0.42857143       0.35714286 </v>
   <v>       0.50000000       0.50000000       0.35714286 </v>
   <v>       0.42857143       0.42857143       0.42857143 </v>
   <v>       0.50000000       0.42857143       0.42857143 </v>
   <v>       0.50000000       0.50000000       0.42857143 </v>
   <v>       0.50000000       0.50000000       0.50000000 </v>
  </varray>
  <varray name="weights" >
   <v>       0.00036443 </v>
   <v>       0.00218659 </v>
   <v>       0.00218659 </v>
   <v>       0.00218659 </v>
   <v>       0.00218659 </v>
   <v>       0.00218659 </v>
   <v>       0.00218659 </v>
   <v>       0.00109329 </v>
   <v>       0.00437318 </v>
   <v>       0.00874636 </v>
   <v>       0.00874636 </v>
   <v>       0.00874636 </v>
   <v>       0.00874636 </v>
   <v>       0.00874636 </v>
   <v>       0.00437318 </v>
   <v>       0.00437318 </v>
   <v>       0.00874636 </v>
   <v>       0.00874636 </v>
   <v>       0.00874636 </v>
   <v>       0.00874636 </v>
   <v>       0.00437318 </v>
   <v>       0.00437318 </v>
   <v>       0.00874636 </v>
   <v>       0.00874636 </v>
   <v>       0.00874636 </v>
   <v>       0.00437318 </v>
   <v>       0.00437318 </v>
   <v>       0.00874636 </v>
   <v>       0.00874636 </v>
   <v>       0.00437318 </v>
   <v>       0.00437318 </v>
   <v>       0.00874636 </v>
   <v>       0.00437318 </v>
   <v>       0.00437318 </v>
   <v>       0.00437318 </v>
   <v>       0.00109329 </v>
   <v>       0.00291545 </v>
   <v>       0.00874636 </v>
   <v>       0.00874636 </v>
   <v>       0.00874636 </v>
   <v>       0.00874636 </v>
   <v>       0.00874636 </v>
   <v>       0.00437318 </v>
   <v>       0.00874636 </v>
   <v>       0.01749271 </v>
   <v>       0.01749271 </v>
   <v>       0.01749271 </v>
   <v>       0.01749271 </v>
   <v>       0.00874636 </v>
   <v>       0.00874636 </v>
   <v>       0.01749271 </v>
   <v>       0.01749271 </v>
   <v>       0.01749271 </v>
   <v>       0.00874636 </v>
   <v>       0.00874636 </v>
   <v>       0.01749271 </v>
   <v>       0.01749271 </v>
   <v>       0.00874636 </v>
   <v>       0.00874636 </v>
   <v>       0.01749271 </v>
   <v>       0.00874636 </v>
   <v>       0.00874636 </v>
   <v>       0.00874636 </v>
   <v>       0.00218659 </v>
   <v>       0.00291545 </v>
   <v>       0.00874636 </v>
   <v>       0.00874636 </v>
   <v>       0.00874636 </v>
   <v>       0.00874636 </v>
   <v>       0.00437318 </v>
   <v>       0.00874636 </v>
   <v>       0.01749271 </v>
   <v>       0.01749271 </v>
   <v>       0.01749271 </v>
   <v>       0.00874636 </v>
   <v>       0.00874636 </v>
   <v>       0.01749271 </v>
   <v>       0.01749271 </v>
   <v>       0.00874636 </v>
   <v>       0.00874636 </v>
   <v>       0.01749271 </v>
   <v>       0.00874636 </v>
   <v>       0.00874636 </v>
   <v>       0.00874636 </v>
   <v>       0.00218659 </v>
   <v>       0.00291545 </v>
   <v>       0.00874636 </v>
   <v>       0.00874636 </v>
   <v>       0.00874636 </v>
   <v>       0.00437318 </v>
   <v>       0.00874636 </v>
   <v>       0.01749271 </v>
   <v>       0.01749271 </v>
   <v>       0.00874636 </v>
   <v>       0.00874636 </v>
   <v>       0.01749271 </v>
   <v>       0.00874636 </v>
   <v>       0.00874636 </v>
   <v>       0.00874636 </v>
   <v>       0.00218659 </v>
   <v>       0.00291545 </v>
   <v>       0.00874636 </v>
   <v>       0.00874636 </v>
   <v>       0.00437318 </v>
   <v>       0.00874636 </v>
   <v>       0.01749271 </v>
   <v>       0.00874636 </v>
   <v>       0.00874636 </v>
   <v>       0.00874636 </v>
   <v>       0.00218659 </v>
   <v>       0.00291545 </v>
   <v>       0.00874636 </v>
   <v>       0.00437318 </v>
   <v>       0.00874636 </v>
   <v>       0.00874636 </v>
   <v>       0.00218659 </v>
   <v>       0.00291545 </v>
   <v>       0.00437318 </v>
   <v>       0.00218659 </v>
   <v>       0.00036443 </v>
  </varray>
 </kpoints>
 <parameters>
  <separator name="general" >
   <i type="string" name="SYSTEM">BCC_IRON</i>
   <i type="logical" name="LCOMPAT"> F  </i>
  </separator>
  <separator name="electronic" >
   <i type="string" name="PREC">accura</i>
   <i name="ENMAX">    349.00000000</i>
   <i name="ENAUG">    511.36800000</i>
   <i name="EDIFF">      0.00000010</i>
   <i type="int" name="IALGO">    38</i>
   <i type="int" name="IWAVPR">    10</i>
   <i type="int" name="NBANDS">    12</i>
   <i name="NELECT">     16.00000000</i>
   <i type="int" name="TURBO">     0</i>
   <i type="int" name="IRESTART">     0</i>
   <i type="int" name="NREBOOT">     0</i>
   <i type="int" name="NMIN">     0</i>
   <i name="EREF">      0.00000000</i>
   <separator name="electronic smearing" >
    <i type="int" name="ISMEAR">     1</i>
    <i name="SIGMA">      0.01000000</i>
    <i name="KSPACING">      0.50000000</i>
    <i type="logical" name="KGAMMA"> T  </i>
   </separator>
   <separator name="electronic projectors" >
    <i type="logical" name="LREAL"> F  </i>
    <v name="ROPT">      0.00000000</v>
    <i type="int" name="LMAXPAW">  -100</i>
    <i type="int" name="LMAXMIX">     2</i>
    <i type="logical" name="NLSPLINE"> F  </i>
   </separator>
   <separator name="electronic startup" >
    <i type="int" name="ISTART">     0</i>
    <i type="int" name="ICHARG">     2</i>
    <i type="int" name="INIWAV">     1</i>
   </separator>
   <separator name="electronic spin" >
    <i type="int" name="ISPIN">     2</i>
    <i type="logical" name="LNONCOLLINEAR"> F  </i>
    <v name="MAGMOM">      2.17400000     -2.17400000</v>
    <i name="NUPDOWN">     -1.00000000</i>
    <i type="logical" name="LSORBIT"> F  </i>
    <v name="SAXIS">      0.00000000      0.00000000      1.00000000</v>
    <i type="logical" name="LSPIRAL"> F  </i>
    <v name="QSPIRAL">      0.00000000      0.00000000      0.00000000</v>
    <i type="logical" name="LZEROZ"> F  </i>
   </separator>
   <separator name="electronic exchange-correlation" >
    <i type="logical" name="LASPH"> F  </i>
    <i type="logical" name="LMETAGGA"> F  </i>
   </separator>
   <separator name="electronic convergence" >
    <i type="int" name="NELM">   100</i>
    <i type="int" name="NELMDL">    -5</i>
    <i type="int" name="NELMIN">     2</i>
    <i name="ENINI">    349.00000000</i>
    <separator name="electronic convergence detail" >
     <i type="logical" name="LDIAG"> T  </i>
     <i type="logical" name="LSUBROT"> F  </i>
     <i name="WEIMIN">      0.00000000</i>
     <i name="EBREAK">      0.00000000</i>
     <i name="DEPER">      0.30000000</i>
     <i type="int" name="NRMM">     4</i>
     <i name="TIME">      0.40000000</i>
    </separator>
   </separator>
   <separator name="electronic mixer" >
    <i name="AMIX">      0.40000000</i>
    <i name="BMIX">      1.00000000</i>
    <i name="AMIN">      0.10000000</i>
    <i name="AMIX_MAG">      1.60000000</i>
    <i name="BMIX_MAG">      1.00000000</i>
    <separator name="electronic mixer details" >
     <i type="int" name="IMIX">     4</i>
     <i type="logical" name="MIXFIRST"> F  </i>
     <i type="int" name="MAXMIX">   -45</i>
     <i name="WC">    100.00000000</i>
     <i type="int" name="INIMIX">     1</i>
     <i type="int" name="MIXPRE">     1</i>
     <i type="int" name="MREMOVE">     5</i>
    </separator>
   </separator>
   <separator name="electronic dipolcorrection" >
    <i type="logical" name="LDIPOL"> F  </i>
    <i type="logical" name="LMONO"> F  </i>
    <i type="int" name="IDIPOL">     0</i>
    <i name="EPSILON">      1.00000000</i>
    <v name="DIPOL">   -100.00000000   -100.00000000   -100.00000000</v>
    <i name="EFIELD">      0.00000000</i>
   </separator>
  </separator>
  <separator name="grids" >
   <i type="int" name="NGX">    18</i>
   <i type="int" name="NGY">    18</i>
   <i type="int" name="NGZ">    18</i>
   <i type="int" name="NGXF">    36</i>
   <i type="int" name="NGYF">    36</i>
   <i type="int" name="NGZF">    36</i>
   <i type="logical" name="ADDGRID"> F  </i>
  </separator>
  <separator name="ionic" >
   <i type="int" name="NSW">     0</i>
   <i type="int" name="IBRION">    -1</i>
   <i type="int" name="MDALGO">     0</i>
   <i type="int" name="ISIF">     2</i>
   <i name="PSTRESS">      0.00000000</i>
   <i name="EDIFFG">      0.00000100</i>
   <i type="int" name="NFREE">     0</i>
   <i name="POTIM">      0.50000000</i>
   <i name="SMASS">     -3.00000000</i>
   <i name="SCALEE">      1.00000000</i>
  </separator>
  <separator name="ionic md" >
   <i name="TEBEG">      0.00010000</i>
   <i name="TEEND">      0.00010000</i>
   <i type="int" name="NBLOCK">     1</i>
   <i type="int" name="KBLOCK">     1</i>
   <i type="int" name="NPACO">   256</i>
   <i name="APACO">     16.00000000</i>
  </separator>
  <separator name="symmetry" >
   <i type="int" name="ISYM">     2</i>
   <i name="SYMPREC">      0.00001000</i>
  </separator>
  <separator name="dos" >
   <i type="int" name="LORBIT">    11</i>
   <v name="RWIGS">     -1.00000000</v>
   <i type="int" name="NEDOS">   301</i>
   <i name="EMIN">     10.00000000</i>
   <i name="EMAX">    -10.00000000</i>
   <i name="EFERMI">      0.00000000</i>
  </separator>
  <separator name="writing" >
   <i type="int" name="NWRITE">     2</i>
   <i type="logical" name="LWAVE"> F  </i>
   <i type="logical" name="LDOWNSAMPLE"> F  </i>
   <i type="logical" name="LCHARG"> F  </i>
   <i type="logical" name="LPARD"> F  </i>
   <i type="logical" name="LVTOT"> F  </i>
   <i type="logical" name="LVHAR"> F  </i>
   <i type="logical" name="LELF"> F  </i>
   <i type="logical" name="LOPTICS"> F  </i>
   <v name="STM">      0.00000000      0.00000000      0.00000000      0.00000000      0.00000000      0.00000000      0.00000000</v>
  </separator>
  <separator name="performance" >
   <i type="int" name="NPAR">     1</i>
   <i type="int" name="NSIM">     4</i>
   <i type="int" name="NBLK">    -1</i>
   <i type="logical" name="LPLANE"> T  </i>
   <i type="logical" name="LSCALAPACK"> T  </i>
   <i type="logical" name="LSCAAWARE"> F  </i>
   <i type="logical" name="LSCALU"> F  </i>
   <i type="logical" name="LASYNC"> F  </i>
   <i type="logical" name="LORBITALREAL"> F  </i>
  </separator>
  <separator name="miscellaneous" >
   <i type="int" name="IDIOT">     3</i>
   <i type="int" name="ISPECIAL">     0</i>
   <i type="logical" name="LMUSIC"> F  </i>
   <v name="POMASS">     55.84700000</v>
   <v name="DARWINR">      0.00000000</v>
   <v name="DARWINV">      1.00000000</v>
   <i type="logical" name="LCORR"> T  </i>
  </separator>
  <i type="logical" name="GGA_COMPAT"> T  </i>
  <i type="logical" name="LBERRY"> F  </i>
  <i type="int" name="ICORELEVEL">     0</i>
  <i type="logical" name="LDAU"> F  </i>
  <i type="int" name="I_CONSTRAINED_M">     0</i>
  <separator name="electronic exchange-correlation" >
   <i type="string" name="GGA">--</i>
   <i type="int" name="VOSKOWN">     0</i>
   <i type="logical" name="LHFCALC"> F  </i>
   <i type="string" name="PRECFOCK"></i>
   <i type="logical" name="LSYMGRAD"> F  </i>
   <i type="logical" name="LHFONE"> F  </i>
   <i type="logical" name="LRHFCALC"> F  </i>
   <i type="logical" name="LTHOMAS"> F  </i>
   <i type="logical" name="LMODELHF"> F  </i>
   <i name="ENCUT4O">     -1.00000000</i>
   <i type="int" name="EXXOEP">     0</i>
   <i type="int" name="FOURORBIT">     0</i>
   <i name="AEXX">      0.00000000</i>
   <i name="HFALPHA">      0.00000000</i>
   <i name="MCALPHA">      0.00000000</i>
   <i name="ALDAX">      1.00000000</i>
   <i name="AGGAX">      1.00000000</i>
   <i name="ALDAC">      1.00000000</i>
   <i name="AGGAC">      1.00000000</i>
   <i type="int" name="NKREDX">     1</i>
   <i type="int" name="NKREDY">     1</i>
   <i type="int" name="NKREDZ">     1</i>
   <i type="logical" name="SHIFTRED"> F  </i>
   <i type="logical" name="ODDONLY"> F  </i>
   <i type="logical" name="EVENONLY"> F  </i>
   <i type="int" name="LMAXFOCK">     0</i>
   <i type="int" name="NMAXFOCKAE">     0</i>
   <i type="logical" name="LFOCKAEDFT"> F  </i>
   <i name="HFSCREEN">      0.00000000</i>
   <i name="HFSCREENC">      0.00000000</i>
   <i type="int" name="NBANDSGWLOW">     0</i>
  </separator>
  <separator name="vdW DFT" >
   <i type="logical" name="LUSE_VDW"> F  </i>
   <i name="Zab_VDW">     -0.84910000</i>
   <i name="PARAM1">      0.12340000</i>
   <i name="PARAM2">      1.00000000</i>
   <i name="PARAM3">      0.00000000</i>
  </separator>
  <separator name="model GW" >
   <i type="int" name="MODEL_GW">     0</i>
   <i name="MODEL_EPS0">      6.79241461</i>
   <i name="MODEL_ALPHA">      1.00000000</i>
  </separator>
  <separator name="linear response parameters" >
   <i type="logical" name="LEPSILON"> F  </i>
   <i type="logical" name="LRPA"> F  </i>
   <i type="logical" name="LNABLA"> F  </i>
   <i type="logical" name="LVEL"> F  </i>
   <i type="int" name="KINTER">     0</i>
   <i name="CSHIFT">      0.10000000</i>
   <i name="OMEGAMAX">     -1.00000000</i>
   <i name="DEG_THRESHOLD">      0.00200000</i>
   <i name="RTIME">     -0.10000000</i>
   <i name="WPLASMAI">      0.00000000</i>
   <v name="DFIELD">      0.00000000      0.00000000      0.00000000</v>
   <v name="WPLASMA">      0.00000000      0.00000000      0.00000000      0.00000000      0.00000000      0.00000000      0.00000000      0.00000000      0.00000000</v>
  </separator>
  <separator name="orbital magnetization" >
   <i type="logical" name="NUCIND"> F  </i>
   <v name="MAGPOS">      0.00000000      0.00000000      0.00000000</v>
   <i type="logical" name="LNICSALL"> T  </i>
   <i type="logical" name="ORBITALMAG"> F  </i>
   <i type="logical" name="LMAGBLOCH"> F  </i>
   <i type="logical" name="LCHIMAG"> F  </i>
   <i type="logical" name="LGAUGE"> T  </i>
   <i type="int" name="MAGATOM">     0</i>
   <v name="MAGDIPOL">      0.00000000      0.00000000      0.00000000</v>
   <v name="AVECCONST">      0.00000000      0.00000000      0.00000000</v>
  </separator>
  <separator name="response functions" >
   <i type="logical" name="LADDER"> F  </i>
   <i type="logical" name="LRPAFORCE"> F  </i>
   <i type="logical" name="LFXC"> F  </i>
   <i type="logical" name="LHARTREE"> T  </i>
   <i type="int" name="IBSE">     0</i>
   <v type="int" name="KPOINT">    -1     0     0     0</v>
   <i type="logical" name="LTCTE"> F  </i>
   <i type="logical" name="LTETE"> F  </i>
   <i type="logical" name="LTRIPLET"> F  </i>
   <i type="logical" name="LFXCEPS"> F  </i>
   <i type="logical" name="LFXHEG"> F  </i>
   <i type="int" name="NATURALO">     2</i>
   <i type="logical" name="L2ORDER"> F  </i>
   <i type="logical" name="LMP2LT"> F  </i>
   <i type="logical" name="LUSEW"> F  </i>
   <i name="ENCUTGW">     -2.00000000</i>
   <i name="ENCUTGWSOFT">     -2.00000000</i>
   <i name="ENCUTLF">     -1.00000000</i>
   <i type="int" name="LMAXMP2">    -1</i>
   <i name="SCISSOR">      0.00000000</i>
   <i type="int" name="NOMEGA">     0</i>
   <i type="int" name="NOMEGAR">     0</i>
   <i type="int" name="NBANDSGW">    -1</i>
   <i type="int" name="NBANDSO">    -1</i>
   <i type="int" name="NBANDSV">    -1</i>
   <i type="int" name="NELM">   100</i>
   <i type="int" name="NELMHF">     1</i>
   <i type="int" name="DIM">     3</i>
   <i type="int" name="ANTIRES">     0</i>
   <i name="OMEGAMAX">    -30.00000000</i>
   <i name="OMEGAMIN">    -30.00000000</i>
   <i name="OMEGATL">   -200.00000000</i>
   <i type="int" name="OMEGAGRID">   140</i>
   <i name="CSHIFT">     -0.10000000</i>
   <i type="logical" name="SELFENERGY"> F  </i>
   <i type="logical" name="LSPECTRAL"> F  </i>
   <i type="logical" name="LSPECTRALGW"> F  </i>
   <i type="logical" name="LSINGLES"> F  </i>
   <i type="logical" name="LFERMIGW"> F  </i>
   <i type="logical" name="ODDONLYGW"> F  </i>
   <i type="logical" name="EVENONLYGW"> F  </i>
   <i type="int" name="NKREDLFX">     1</i>
   <i type="int" name="NKREDLFY">     1</i>
   <i type="int" name="NKREDLFZ">     1</i>
   <i type="int" name="MAXMEM">  2800</i>
   <i type="int" name="TELESCOPE">     0</i>
   <i type="int" name="TAUPAR">     1</i>
   <i type="int" name="OMEGAPAR">    -1</i>
   <i name="LAMBDA">      1.00000000</i>
  </separator>
  <separator name="External order field" >
   <i name="OFIELD_KAPPA">      0.00000000</i>
   <v name="OFIELD_K">      0.00000000      0.00000000      0.00000000</v>
   <i name="OFIELD_Q6_NEAR">      0.00000000</i>
   <i name="OFIELD_Q6_FAR">      0.00000000</i>
   <i name="OFIELD_A">      0.00000000</i>
  </separator>
 </parameters>
 <atominfo>
  <atoms>       2 </atoms>
  <types>       1 </types>
  <array name="atoms" >
   <dimension dim="1">ion</dimension>
   <field type="string">element</field>
   <field type="int">atomtype</field>
   <set>
    <rc><c>Fe</c><c>   1</c></rc>
    <rc><c>Fe</c><c>   1</c></rc>
   </set>
  </array>
  <array name="atomtypes" >
   <dimension dim="1">type</dimension>
   <field type="int">atomspertype</field>
   <field type="string">element</field>
   <field>mass</field>
   <field>valence</field>
   <field type="string">pseudopotential</field>
   <set>
    <rc><c>   2</c><c>Fe</c><c>     55.84700000</c><c>      8.00000000</c><c>  PAW_PBE Fe 06Sep2000                  </c></rc>
   </set>
  </array>
 </atominfo>
 <structure name="initialpos" >
  <crystal>
   <varray name="basis" >
    <v>       2.82900888       0.00000000       0.00000000 </v>
    <v>       0.00000000       2.82900888       0.00000000 </v>
    <v>       0.00000000       0.00000000       2.82900888 </v>
   </varray>
   <i name="volume">     22.64138204 </i>
   <varray name="rec_basis" >
    <v>       0.35348069       0.00000000       0.00000000 </v>
    <v>       0.00000000       0.35348069       0.00000000 </v>
    <v>       0.00000000       0.00000000       0.35348069 </v>
   </varray>
  </crystal>
  <varray name="positions" >
   <v>       0.00000000       0.00000000       0.00000000 </v>
   <v>       0.50000000       0.50000000       0.50000000 </v>
  </varray>
 </structure>
 <calculation>
  <scstep>
   <time name="dav">    0.21    0.21</time>
   <time name="total">    0.23    0.25</time>
   <energy>
    <i name="alphaZ">    122.10169127 </i>
    <i name="ewald">  -1185.52755918 </i>
    <i name="hartreedc">   -222.53661930 </i>
    <i name="XCdc">      8.84950467 </i>
    <i name="pawpsdc">   1108.55857356 </i>
    <i name="pawaedc">  -1123.98403091 </i>
    <i name="eentropy">      0.00001178 </i>
    <i name="bandstr">    176.06653695 </i>
    <i name="atom">   1188.58915604 </i>
    <i name="e_fr_energy">     72.11726489 </i>
    <i name="e_wo_entrp">     72.11725311 </i>
    <i name="e_0_energy">     72.11726097 </i>
   </energy>
  </scstep>
  <scstep>
   <time name="dav">    0.20    0.21</time>
   <time name="total">    0.20    0.21</time>
   <energy>
    <i name="e_fr_energy">    -15.38882115 </i>
    <i name="e_wo_entrp">    -15.38883636 </i>
    <i name="e_0_energy">    -15.38882622 </i>
   </energy>
  </scstep>
  <scstep>
   <time name="dav">    0.22    0.22</time>
   <time name="total">    0.22    0.22</time>
   <energy>
    <i name="e_fr_energy">    -18.24651118 </i>
    <i name="e_wo_entrp">    -18.24654608 </i>
    <i name="e_0_energy">    -18.24652281 </i>
   </energy>
  </scstep>
  <scstep>
   <time name="dav">    0.19    0.22</time>
   <time name="total">    0.19    0.22</time>
   <energy>
    <i name="e_fr_energy">    -18.30890223 </i>
    <i name="e_wo_entrp">    -18.30889844 </i>
    <i name="e_0_energy">    -18.30890096 </i>
   </energy>
  </scstep>
  <scstep>
   <time name="dav">    0.21    0.21</time>
   <time name="total">    0.23    0.23</time>
   <energy>
    <i name="e_fr_energy">    -18.30963449 </i>
    <i name="e_wo_entrp">    -18.30963191 </i>
    <i name="e_0_energy">    -18.30963363 </i>
   </energy>
  </scstep>
  <scstep>
   <time name="dav">    0.20    0.20</time>
   <time name="total">    0.23    0.23</time>
   <energy>
    <i name="e_fr_energy">    -15.81252747 </i>
    <i name="e_wo_entrp">    -15.81243556 </i>
    <i name="e_0_energy">    -15.81249683 </i>
   </energy>
  </scstep>
  <scstep>
   <time name="dav">    0.20    0.20</time>
   <time name="total">    0.23    0.23</time>
   <energy>
    <i name="e_fr_energy">    -15.60884501 </i>
    <i name="e_wo_entrp">    -15.60888202 </i>
    <i name="e_0_energy">    -15.60885735 </i>
   </energy>
  </scstep>
  <scstep>
   <time name="dav">    0.20    0.21</time>
   <time name="total">    0.23    0.24</time>
   <energy>
    <i name="e_fr_energy">    -15.59329392 </i>
    <i name="e_wo_entrp">    -15.59332734 </i>
    <i name="e_0_energy">    -15.59330506 </i>
   </energy>
  </scstep>
  <scstep>
   <time name="dav">    0.23    0.23</time>
   <time name="total">    0.26    0.26</time>
   <energy>
    <i name="e_fr_energy">    -15.58235012 </i>
    <i name="e_wo_entrp">    -15.58235762 </i>
    <i name="e_0_energy">    -15.58235262 </i>
   </energy>
  </scstep>
  <scstep>
   <time name="dav">    0.27    0.27</time>
   <time name="total">    0.30    0.30</time>
   <energy>
    <i name="e_fr_energy">    -15.58144218 </i>
    <i name="e_wo_entrp">    -15.58143286 </i>
    <i name="e_0_energy">    -15.58143907 </i>
   </energy>
  </scstep>
  <scstep>
   <time name="dav">    0.21    0.21</time>
   <time name="total">    0.24    0.24</time>
   <energy>
    <i name="e_fr_energy">    -15.58147316 </i>
    <i name="e_wo_entrp">    -15.58147496 </i>
    <i name="e_0_energy">    -15.58147376 </i>
   </energy>
  </scstep>
  <scstep>
   <time name="dav">    0.25    0.29</time>
   <time name="total">    0.29    0.32</time>
   <energy>
    <i name="e_fr_energy">    -15.58146377 </i>
    <i name="e_wo_entrp">    -15.58147516 </i>
    <i name="e_0_energy">    -15.58146756 </i>
   </energy>
  </scstep>
  <scstep>
   <time name="dav">    0.27    0.27</time>
   <time name="total">    0.30    0.30</time>
   <energy>
    <i name="e_fr_energy">    -15.58146113 </i>
    <i name="e_wo_entrp">    -15.58147497 </i>
    <i name="e_0_energy">    -15.58146575 </i>
   </energy>
  </scstep>
  <scstep>
   <time name="dav">    0.26    0.26</time>
   <time name="total">    0.29    0.30</time>
   <energy>
    <i name="e_fr_energy">    -15.58146219 </i>
    <i name="e_wo_entrp">    -15.58147366 </i>
    <i name="e_0_energy">    -15.58146601 </i>
   </energy>
  </scstep>
  <scstep>
   <time name="dav">    0.13    0.14</time>
   <time name="total">    0.17    0.17</time>
   <energy>
    <i name="e_fr_energy">    -15.58146205 </i>
    <i name="e_wo_entrp">    -15.58147414 </i>
    <i name="e_0_energy">    -15.58146608 </i>
   </energy>
  </scstep>
  <scstep>
   <time name="dav">    0.13    0.13</time>
   <time name="total">    0.16    0.17</time>
   <energy>
    <i name="e_fr_energy">    -15.58146216 </i>
    <i name="e_wo_entrp">    -15.58147440 </i>
    <i name="e_0_energy">    -15.58146624 </i>
   </energy>
  </scstep>
  <scstep>
   <time name="dav">    0.13    0.13</time>
   <time name="total">    0.15    0.15</time>
   <energy>
    <i name="alphaZ">    122.10169127 </i>
    <i name="ewald">  -1185.52755918 </i>
    <i name="hartreedc">   -189.02424714 </i>
    <i name="XCdc">      7.26844277 </i>
    <i name="pawpsdc">   1409.48403682 </i>
    <i name="pawaedc">  -1427.10742024 </i>
    <i name="eentropy">      0.00001230 </i>
    <i name="bandstr">     58.63442516 </i>
    <i name="atom">   1188.58915604 </i>
    <i name="e_fr_energy">    -15.58146220 </i>
    <i name="e_wo_entrp">    -15.58147450 </i>
    <i name="e_0_energy">    -15.58146630 </i>
   </energy>
  </scstep>
  <structure>
   <crystal>
    <varray name="basis" >
     <v>       2.82900888       0.00000000       0.00000000 </v>
     <v>       0.00000000       2.82900888       0.00000000 </v>
     <v>       0.00000000       0.00000000       2.82900888 </v>
    </varray>
    <i name="volume">     22.64138204 </i>
    <varray name="rec_basis" >
     <v>       0.35348069       0.00000000       0.00000000 </v>
     <v>       0.00000000       0.35348069       0.00000000 </v>
     <v>       0.00000000       0.00000000       0.35348069 </v>
    </varray>
   </crystal>
   <varray name="positions" >
    <v>       0.00000000       0.00000000       0.00000000 </v>
    <v>       0.50000000       0.50000000       0.50000000 </v>
   </varray>
  </structure>
  <varray name="forces" >
   <v>       0.00000000       0.00000000       0.00000000 </v>
   <v>       0.00000000       0.00000000       0.00000000 </v>
  </varray>
  <varray name="stress" >
   <v>     -60.94542712      -0.00000000      -0.00000000 </v>
   <v>       0.00000000     -60.94542712       0.00000000 </v>
   <v>       0.00000000       0.00000000     -60.94542712 </v>
  </varray>
  <energy>
   <i name="e_fr_energy">    -15.58146220 </i>
   <i name="e_wo_entrp">    -15.58146630 </i>
   <i name="e_0_energy">      0.00001230 </i>
  </energy>
  <time name="totalsc">    4.12    4.26</time>
  <eigenvalues>
   <array>
    <dimension dim="1">band</dimension>
    <dimension dim="2">kpoint</dimension>
    <dimension dim="3">spin</dimension>
    <field>eigene</field>
    <field>occ</field>
    <set>
     <set comment="spin 1">
      <set comment="kpoint 1">
       <r>   -2.5196    1.0000 </r>
       <r>    1.6989    1.0000 </r>
       <r>    1.6989    1.0000 </r>
       <r>    4.2561    1.0000 </r>
       <r>    4.2561    1.0000 </r>
       <r>    4.2561    1.0000 </r>
       <r>    6.1587   -0.0000 </r>
       <r>    6.1587   -0.0000 </r>
       <r>    7.1096    0.0000 </r>
       <r>    7.1096    0.0000 </r>
       <r>    7.1096    0.0000 </r>
       <r>   15.9392    0.0000 </r>
      </set>
      <set comment="kpoint 2">
       <r>   -2.4131    1.0000 </r>
       <r>    1.7428    1.0000 </r>
       <r>    1.7443    1.0000 </r>
       <r>    4.2500    1.0000 </r>
       <r>    4.2500    1.0000 </r>
       <r>    4.2830    1.0000 </r>
       <r>    6.1092   -0.0000 </r>
       <r>    6.1782   -0.0000 </r>
       <r>    7.0114    0.0000 </r>
       <r>    7.0114    0.0000 </r>
       <r>    7.0797    0.0000 </r>
       <r>   15.2403    0.0000 </r>
      </set>
      <set comment="kpoint 3">
       <r>   -2.0982    1.0000 </r>
       <r>    1.8634    1.0000 </r>
       <r>    1.8778    1.0000 </r>
       <r>    4.2350    1.0000 </r>
       <r>    4.2350    1.0000 </r>
       <r>    4.3618    1.0000 </r>
       <r>    5.9642    1.0000 </r>
       <r>    6.2317   -0.0000 </r>
       <r>    6.7496    0.0000 </r>
       <r>    6.7496    0.0000 </r>
       <r>    6.9926    0.0000 </r>
       <r>   13.7189    0.0000 </r>
      </set>
      <set comment="kpoint 4">
       <r>   -1.5894    1.0000 </r>
       <r>    2.0268    1.0000 </r>
       <r>    2.0909    1.0000 </r>
       <r>    4.2189    1.0000 </r>
       <r>    4.2189    1.0000 </r>
       <r>    4.4858    1.0000 </r>
       <r>    5.7339    1.0000 </r>
       <r>    6.3055   -0.0000 </r>
       <r>    6.3977    0.0000 </r>
       <r>    6.3977    0.0000 </r>
       <r>    6.8565    0.0000 </r>
       <r>   12.0111    0.0000 </r>
      </set>
      <set comment="kpoint 5">
       <r>   -0.9142    1.0000 </r>
       <r>    2.1715    1.0000 </r>
       <r>    2.3665    1.0000 </r>
       <r>    4.2119    1.0000 </r>
       <r>    4.2119    1.0000 </r>
       <r>    4.6427    1.0000 </r>
       <r>    5.4385    1.0000 </r>
       <r>    6.0313    1.0000 </r>
       <r>    6.0313    1.0000 </r>
       <r>    6.3761    0.0000 </r>
       <r>    6.6862    0.0000 </r>
       <r>   10.4010    0.0000 </r>
      </set>
      <set comment="kpoint 6">
       <r>   -0.1216    1.0000 </r>
       <r>    2.2073    1.0000 </r>
       <r>    2.6731    1.0000 </r>
       <r>    4.2198    1.0000 </r>
       <r>    4.2198    1.0000 </r>
       <r>    4.8107    1.0000 </r>
       <r>    5.1127    1.0000 </r>
       <r>    5.7114    1.0000 </r>
       <r>    5.7114    1.0000 </r>
       <r>    6.4090    0.0000 </r>
       <r>    6.5060    0.0000 </r>
       <r>    9.0731    0.0000 </r>
      </set>
      <set comment="kpoint 7">
       <r>    0.6978    1.0000 </r>
       <r>    2.0281    1.0000 </r>
       <r>    2.9474    1.0000 </r>
       <r>    4.2375    1.0000 </r>
       <r>    4.2375    1.0000 </r>
       <r>    4.8243    1.0000 </r>
       <r>    4.9518    1.0000 </r>
       <r>    5.4894    1.0000 </r>
       <r>    5.4894    1.0000 </r>
       <r>    6.3568    0.0000 </r>
       <r>    6.3747    0.0000 </r>
       <r>    8.2152    0.0000 </r>
      </set>
      <set comment="kpoint 8">
       <r>    1.2541    1.0000 </r>
       <r>    1.7159    1.0000 </r>
       <r>    3.0688    1.0000 </r>
       <r>    4.2474    1.0000 </r>
       <r>    4.2474    1.0000 </r>
       <r>    4.6978    1.0000 </r>
       <r>    5.0101    1.0000 </r>
       <r>    5.4084    1.0000 </r>
       <r>    5.4084    1.0000 </r>
       <r>    6.2955   -0.0000 </r>
       <r>    6.3332   -0.0000 </r>
       <r>    7.9342    0.0000 </r>
      </set>
      <set comment="kpoint 9">
       <r>   -2.3075    1.0000 </r>
       <r>    1.7866    1.0000 </r>
       <r>    1.7889    1.0000 </r>
       <r>    4.1981    1.0000 </r>
       <r>    4.2411    1.0000 </r>
       <r>    4.3534    1.0000 </r>
       <r>    6.0993   -0.0000 </r>
       <r>    6.1637   -0.0000 </r>
       <r>    6.8554    0.0000 </r>
       <r>    6.9136    0.0000 </r>
       <r>    7.1186    0.0000 </r>
       <r>   15.2808    0.0000 </r>
      </set>
      <set comment="kpoint 10">
       <r>   -1.9953    1.0000 </r>
       <r>    1.9065    1.0000 </r>
       <r>    1.9204    1.0000 </r>
       <r>    4.1480    1.0000 </r>
       <r>    4.2174    1.0000 </r>
       <r>    4.4587    1.0000 </r>
       <r>    5.9801    1.0000 </r>
       <r>    6.2077   -0.0000 </r>
       <r>    6.5723    0.0000 </r>
       <r>    6.6551    0.0000 </r>
       <r>    7.0827    0.0000 </r>
       <r>   13.8631    0.0000 </r>
      </set>
      <set comment="kpoint 11">
       <r>   -1.4915    1.0000 </r>
       <r>    2.0702    1.0000 </r>
       <r>    2.1272    1.0000 </r>
       <r>    4.1141    1.0000 </r>
       <r>    4.1879    1.0000 </r>
       <r>    4.5804    1.0000 </r>
       <r>    5.7728    1.0000 </r>
       <r>    6.2411   -0.0000 </r>
       <r>    6.2618   -0.0000 </r>
       <r>    6.3363    0.0000 </r>
       <r>    6.9712    0.0000 </r>
       <r>   12.1471    0.0000 </r>
      </set>
      <set comment="kpoint 12">
       <r>   -0.8246    1.0000 </r>
       <r>    2.2134    1.0000 </r>
       <r>    2.3932    1.0000 </r>
       <r>    4.1020    1.0000 </r>
       <r>    4.1620    1.0000 </r>
       <r>    4.6957    1.0000 </r>
       <r>    5.5098    1.0000 </r>
       <r>    5.9363    1.0000 </r>
       <r>    5.9537    1.0000 </r>
       <r>    6.3756    0.0000 </r>
       <r>    6.8079    0.0000 </r>
       <r>   10.5202    0.0000 </r>
      </set>
      <set comment="kpoint 13">
       <r>   -0.0445    1.0000 </r>
       <r>    2.2434    1.0000 </r>
       <r>    2.6879    1.0000 </r>
       <r>    4.1158    1.0000 </r>
       <r>    4.1438    1.0000 </r>
       <r>    4.7565    1.0000 </r>
       <r>    5.2324    1.0000 </r>
       <r>    5.6637    1.0000 </r>
       <r>    5.7422    1.0000 </r>
       <r>    6.4256    0.0000 </r>
       <r>    6.6201    0.0000 </r>
       <r>    9.1597    0.0000 </r>
      </set>
      <set comment="kpoint 14">
       <r>    0.7589    1.0000 </r>
       <r>    2.0570    1.0000 </r>
       <r>    2.9505    1.0000 </r>
       <r>    4.1253    1.0000 </r>
       <r>    4.1477    1.0000 </r>
       <r>    4.7342    1.0000 </r>
       <r>    5.0104    1.0000 </r>
       <r>    5.4764    1.0000 </r>
       <r>    5.7004    1.0000 </r>
       <r>    6.4174    0.0000 </r>
       <r>    6.4497    0.0000 </r>
       <r>    8.2510    0.0000 </r>
      </set>
      <set comment="kpoint 15">
       <r>    1.3076    1.0000 </r>
       <r>    1.7413    1.0000 </r>
       <r>    3.0665    1.0000 </r>
       <r>    4.1100    1.0000 </r>
       <r>    4.1670    1.0000 </r>
       <r>    4.7046    1.0000 </r>
       <r>    4.9263    1.0000 </r>
       <r>    5.4127    1.0000 </r>
       <r>    5.7170    1.0000 </r>
       <r>    6.3728    0.0000 </r>
       <r>    6.3896    0.0000 </r>
       <r>    7.9405    0.0000 </r>
      </set>
      <set comment="kpoint 16">
       <r>   -1.6919    1.0000 </r>
       <r>    2.0100    1.0000 </r>
       <r>    2.0589    1.0000 </r>
       <r>    4.0373    1.0000 </r>
       <r>    4.1709    1.0000 </r>
       <r>    4.5927    1.0000 </r>
       <r>    5.9776    1.0000 </r>
       <r>    6.1809   -0.0000 </r>
       <r>    6.2761   -0.0000 </r>
       <r>    6.4102    0.0000 </r>
       <r>    7.1455    0.0000 </r>
       <r>   13.8730    0.0000 </r>
      </set>
      <set comment="kpoint 17">
       <r>   -1.2046    1.0000 </r>
       <r>    2.1512    1.0000 </r>
       <r>    2.2697    1.0000 </r>
       <r>    3.9510    1.0000 </r>
       <r>    4.1111    1.0000 </r>
       <r>    4.6877    1.0000 </r>
       <r>    5.8596    1.0000 </r>
       <r>    6.0053    1.0000 </r>
       <r>    6.0883   -0.0011 </r>
       <r>    6.2518   -0.0000 </r>
       <r>    7.1182    0.0000 </r>
       <r>   12.4441    0.0000 </r>
      </set>
      <set comment="kpoint 18">
       <r>   -0.5650    1.0000 </r>
       <r>    2.2752    1.0000 </r>
       <r>    2.5225    1.0000 </r>
       <r>    3.9015    1.0000 </r>
       <r>    4.0561    1.0000 </r>
       <r>    4.6764    1.0000 </r>
       <r>    5.6793    1.0000 </r>
       <r>    5.7907    1.0000 </r>
       <r>    5.8678    1.0000 </r>
       <r>    6.3497    0.0000 </r>
       <r>    7.0118    0.0000 </r>
       <r>   10.8107    0.0000 </r>
      </set>
      <set comment="kpoint 19">
       <r>    0.1728    1.0000 </r>
       <r>    2.2872    1.0000 </r>
       <r>    2.7871    1.0000 </r>
       <r>    3.8967    1.0000 </r>
       <r>    4.0252    1.0000 </r>
       <r>    4.5417    1.0000 </r>
       <r>    5.4899    1.0000 </r>
       <r>    5.5744    1.0000 </r>
       <r>    5.9081    1.0000 </r>
       <r>    6.4426    0.0000 </r>
       <r>    6.8498    0.0000 </r>
       <r>    9.3816    0.0000 </r>
      </set>
      <set comment="kpoint 20">
       <r>    0.9193    1.0000 </r>
       <r>    2.0927    1.0000 </r>
       <r>    3.0110    1.0000 </r>
       <r>    3.9334    1.0000 </r>
       <r>    4.0222    1.0000 </r>
       <r>    4.3721    1.0000 </r>
       <r>    5.3507    1.0000 </r>
       <r>    5.4625    1.0000 </r>
       <r>    6.0480    1.0266 </r>
       <r>    6.5077    0.0000 </r>
       <r>    6.6680    0.0000 </r>
       <r>    8.3491    0.0000 </r>
      </set>
      <set comment="kpoint 21">
       <r>    1.4340    1.0000 </r>
       <r>    1.7819    1.0000 </r>
       <r>    3.1053    1.0000 </r>
       <r>    3.9674    1.0000 </r>
       <r>    4.0242    1.0000 </r>
       <r>    4.2863    1.0000 </r>
       <r>    5.3114    1.0000 </r>
       <r>    5.4260    1.0000 </r>
       <r>    6.1435   -0.0000 </r>
       <r>    6.5325    0.0000 </r>
       <r>    6.5632    0.0000 </r>
       <r>    7.9545    0.0000 </r>
      </set>
      <set comment="kpoint 22">
       <r>   -0.7492    1.0000 </r>
       <r>    2.2320    1.0000 </r>
       <r>    2.5074    1.0000 </r>
       <r>    3.8087    1.0000 </r>
       <r>    4.0245    1.0000 </r>
       <r>    4.6604    1.0000 </r>
       <r>    5.8154    1.0000 </r>
       <r>    5.9000    1.0000 </r>
       <r>    5.9587    1.0000 </r>
       <r>    6.2137   -0.0000 </r>
       <r>    7.1876    0.0000 </r>
       <r>   12.2801    0.0000 </r>
      </set>
      <set comment="kpoint 23">
       <r>   -0.1643    1.0000 </r>
       <r>    2.2797    1.0000 </r>
       <r>    2.7881    1.0000 </r>
       <r>    3.7096    1.0000 </r>
       <r>    3.9707    1.0000 </r>
       <r>    4.4746    1.0000 </r>
       <r>    5.6337    1.0000 </r>
       <r>    5.8797    1.0000 </r>
       <r>    5.9829    1.0000 </r>
       <r>    6.2933   -0.0000 </r>
       <r>    7.1671    0.0000 </r>
       <r>   11.0400    0.0000 </r>
      </set>
      <set comment="kpoint 24">
       <r>    0.4864    1.0000 </r>
       <r>    2.2324    1.0000 </r>
       <r>    3.0530    1.0000 </r>
       <r>    3.6666    1.0000 </r>
       <r>    3.9997    1.0000 </r>
       <r>    4.2300    1.0000 </r>
       <r>    5.5158    1.0000 </r>
       <r>    5.7757    1.0000 </r>
       <r>    6.1743   -0.0000 </r>
       <r>    6.4232    0.0000 </r>
       <r>    7.0677    0.0000 </r>
       <r>    9.6221    0.0000 </r>
      </set>
      <set comment="kpoint 25">
       <r>    1.1130    1.0000 </r>
       <r>    2.0386    1.0000 </r>
       <r>    3.2360    1.0000 </r>
       <r>    3.6840    1.0000 </r>
       <r>    4.0129    1.0000 </r>
       <r>    4.1167    1.0000 </r>
       <r>    5.4593    1.0000 </r>
       <r>    5.7140    1.0000 </r>
       <r>    6.3951    0.0000 </r>
       <r>    6.5794    0.0000 </r>
       <r>    6.9137    0.0000 </r>
       <r>    8.4709    0.0000 </r>
      </set>
      <set comment="kpoint 26">
       <r>    1.5414    1.0000 </r>
       <r>    1.7671    1.0000 </r>
       <r>    3.2997    1.0000 </r>
       <r>    3.7232    1.0000 </r>
       <r>    3.9033    1.0000 </r>
       <r>    4.1924    1.0000 </r>
       <r>    5.4478    1.0000 </r>
       <r>    5.6961    1.0000 </r>
       <r>    6.5383    0.0000 </r>
       <r>    6.6988    0.0000 </r>
       <r>    6.7941    0.0000 </r>
       <r>    7.9592    0.0000 </r>
      </set>
      <set comment="kpoint 27">
       <r>    0.3242    1.0000 </r>
       <r>    2.2218    1.0000 </r>
       <r>    3.1274    1.0000 </r>
       <r>    3.5611    1.0000 </r>
       <r>    3.9751    1.0000 </r>
       <r>    4.1896    1.0000 </r>
       <r>    5.5544    1.0000 </r>
       <r>    6.0168    1.0000 </r>
       <r>    6.2084   -0.0000 </r>
       <r>    6.2627   -0.0000 </r>
       <r>    7.2378    0.0000 </r>
       <r>   10.6966    0.0000 </r>
      </set>
      <set comment="kpoint 28">
       <r>    0.8248    1.0000 </r>
       <r>    2.0933    1.0000 </r>
       <r>    3.4526    1.0000 </r>
       <r>    3.4741    1.0000 </r>
       <r>    3.9148    1.0000 </r>
       <r>    4.1374    1.0000 </r>
       <r>    5.5377    1.0000 </r>
       <r>    6.0240    1.0000 </r>
       <r>    6.3654    0.0000 </r>
       <r>    6.4646    0.0000 </r>
       <r>    7.2194    0.0000 </r>
       <r>    9.6559    0.0000 </r>
      </set>
      <set comment="kpoint 29">
       <r>    1.2636    1.0000 </r>
       <r>    1.8960    1.0000 </r>
       <r>    3.4582    1.0000 </r>
       <r>    3.6592    1.0000 </r>
       <r>    3.6962    1.0000 </r>
       <r>    4.4502    1.0000 </r>
       <r>    5.5105    1.0000 </r>
       <r>    6.0205    1.0000 </r>
       <r>    6.5848    0.0000 </r>
       <r>    6.7095    0.0000 </r>
       <r>    7.1231    0.0000 </r>
       <r>    8.5251    0.0000 </r>
      </set>
      <set comment="kpoint 30">
       <r>    1.5604    1.0000 </r>
       <r>    1.6804    1.0000 </r>
       <r>    3.4905    1.0000 </r>
       <r>    3.5831    1.0000 </r>
       <r>    3.7260    1.0000 </r>
       <r>    4.6383    1.0000 </r>
       <r>    5.4745    1.0000 </r>
       <r>    6.0294    1.0000 </r>
       <r>    6.8105    0.0000 </r>
       <r>    6.8711    0.0000 </r>
       <r>    7.0117    0.0000 </r>
       <r>    7.9197    0.0000 </r>
      </set>
      <set comment="kpoint 31">
       <r>    1.1194    1.0000 </r>
       <r>    1.9157    1.0000 </r>
       <r>    3.3435    1.0000 </r>
       <r>    3.6446    1.0000 </r>
       <r>    3.8995    1.0000 </r>
       <r>    4.4548    1.0000 </r>
       <r>    5.6276    1.0000 </r>
       <r>    6.1987   -0.0000 </r>
       <r>    6.3203   -0.0000 </r>
       <r>    6.7388    0.0000 </r>
       <r>    7.2855    0.0000 </r>
       <r>    9.2064    0.0000 </r>
      </set>
      <set comment="kpoint 32">
       <r>    1.3495    1.0000 </r>
       <r>    1.7303    1.0000 </r>
       <r>    3.2892    1.0000 </r>
       <r>    3.4447    1.0000 </r>
       <r>    4.2224    1.0000 </r>
       <r>    4.9258    1.0000 </r>
       <r>    5.6492    1.0000 </r>
       <r>    6.2520   -0.0000 </r>
       <r>    6.4999    0.0000 </r>
       <r>    6.9721    0.0000 </r>
       <r>    7.2634    0.0000 </r>
       <r>    8.3658    0.0000 </r>
      </set>
      <set comment="kpoint 33">
       <r>    1.5180    1.0000 </r>
       <r>    1.5705    1.0000 </r>
       <r>    3.3042    1.0000 </r>
       <r>    3.3429    1.0000 </r>
       <r>    4.3295    1.0000 </r>
       <r>    5.2805    1.0000 </r>
       <r>    5.5012    1.0000 </r>
       <r>    6.2816   -0.0000 </r>
       <r>    6.7899    0.0000 </r>
       <r>    7.1225    0.0000 </r>
       <r>    7.1845    0.0000 </r>
       <r>    7.7791    0.0000 </r>
      </set>
      <set comment="kpoint 34">
       <r>    1.4074    1.0000 </r>
       <r>    1.5854    1.0000 </r>
       <r>    3.1960    1.0000 </r>
       <r>    3.2734    1.0000 </r>
       <r>    4.7494    1.0000 </r>
       <r>    5.3192    1.0000 </r>
       <r>    5.9663    1.0000 </r>
       <r>    6.3757    0.0000 </r>
       <r>    6.4010    0.0000 </r>
       <r>    7.1680    0.0000 </r>
       <r>    7.3195    0.0000 </r>
       <r>    7.9067    0.0000 </r>
      </set>
      <set comment="kpoint 35">
       <r>    1.4702    1.0000 </r>
       <r>    1.4867    1.0000 </r>
       <r>    3.1849    1.0000 </r>
       <r>    3.1943    1.0000 </r>
       <r>    4.9556    1.0000 </r>
       <r>    5.5294    1.0000 </r>
       <r>    5.9840    1.0000 </r>
       <r>    6.4364    0.0000 </r>
       <r>    6.6008    0.0000 </r>
       <r>    7.2788    0.0000 </r>
       <r>    7.2943    0.0000 </r>
       <r>    7.4861    0.0000 </r>
      </set>
      <set comment="kpoint 36">
       <r>    1.4504    1.0000 </r>
       <r>    1.4558    1.0000 </r>
       <r>    3.1437    1.0000 </r>
       <r>    3.1437    1.0000 </r>
       <r>    5.2694    1.0000 </r>
       <r>    5.5669    1.0000 </r>
       <r>    6.4221    0.0000 </r>
       <r>    6.4221    0.0000 </r>
       <r>    6.4844    0.0000 </r>
       <r>    7.2095    0.0000 </r>
       <r>    7.3317    0.0000 </r>
       <r>    7.3317    0.0000 </r>
      </set>
      <set comment="kpoint 37">
       <r>   -2.2027    1.0000 </r>
       <r>    1.8317    1.0000 </r>
       <r>    1.8317    1.0000 </r>
       <r>    4.1881    1.0000 </r>
       <r>    4.1881    1.0000 </r>
       <r>    4.4203    1.0000 </r>
       <r>    6.1219   -0.0000 </r>
       <r>    6.1219   -0.0000 </r>
       <r>    6.6431    0.0000 </r>
       <r>    7.0207    0.0000 </r>
       <r>    7.0207    0.0000 </r>
       <r>   15.4796    0.0000 </r>
      </set>
      <set comment="kpoint 38">
       <r>   -1.8930    1.0000 </r>
       <r>    1.9552    1.0000 </r>
       <r>    1.9571    1.0000 </r>
       <r>    4.1178    1.0000 </r>
       <r>    4.1602    1.0000 </r>
       <r>    4.5304    1.0000 </r>
       <r>    5.9996    1.0000 </r>
       <r>    6.1825   -0.0000 </r>
       <r>    6.3369    0.0000 </r>
       <r>    6.7606    0.0000 </r>
       <r>    7.0446    0.0000 </r>
       <r>   14.0121    0.0000 </r>
      </set>
      <set comment="kpoint 39">
       <r>   -1.3940    1.0000 </r>
       <r>    2.1212    1.0000 </r>
       <r>    2.1563    1.0000 </r>
       <r>    4.0679    1.0000 </r>
       <r>    4.1210    1.0000 </r>
       <r>    4.6360    1.0000 </r>
       <r>    5.8085    1.0000 </r>
       <r>    6.0236    1.0000 </r>
       <r>    6.2712   -0.0000 </r>
       <r>    6.4131    0.0000 </r>
       <r>    6.9782    0.0000 </r>
       <r>   12.2861    0.0000 </r>
      </set>
      <set comment="kpoint 40">
       <r>   -0.7348    1.0000 </r>
       <r>    2.2638    1.0000 </r>
       <r>    2.4123    1.0000 </r>
       <r>    4.0518    1.0000 </r>
       <r>    4.0764    1.0000 </r>
       <r>    4.6929    1.0000 </r>
       <r>    5.5715    1.0000 </r>
       <r>    5.8035    1.0000 </r>
       <r>    6.0535    1.0222 </r>
       <r>    6.3539    0.0000 </r>
       <r>    6.8506    0.0000 </r>
       <r>   10.6454    0.0000 </r>
      </set>
      <set comment="kpoint 41">
       <r>    0.0337    1.0000 </r>
       <r>    2.2877    1.0000 </r>
       <r>    2.6949    1.0000 </r>
       <r>    4.0260    1.0000 </r>
       <r>    4.0823    1.0000 </r>
       <r>    4.6627    1.0000 </r>
       <r>    5.3280    1.0000 </r>
       <r>    5.7404    1.0000 </r>
       <r>    5.7421    1.0000 </r>
       <r>    6.4017    0.0000 </r>
       <r>    6.7061    0.0000 </r>
       <r>    9.2578    0.0000 </r>
      </set>
      <set comment="kpoint 42">
       <r>    0.8223    1.0000 </r>
       <r>    2.0922    1.0000 </r>
       <r>    2.9466    1.0000 </r>
       <r>    3.9664    1.0000 </r>
       <r>    4.1576    1.0000 </r>
       <r>    4.5842    1.0000 </r>
       <r>    5.1380    1.0000 </r>
       <r>    5.5282    1.0000 </r>
       <r>    5.7746    1.0000 </r>
       <r>    6.4072    0.0000 </r>
       <r>    6.5928    0.0000 </r>
       <r>    8.2995    0.0000 </r>
      </set>
      <set comment="kpoint 43">
       <r>    1.3650    1.0000 </r>
       <r>    1.7709    1.0000 </r>
       <r>    3.0584    1.0000 </r>
       <r>    3.9304    1.0000 </r>
       <r>    4.2111    1.0000 </r>
       <r>    4.5378    1.0000 </r>
       <r>    5.0653    1.0000 </r>
       <r>    5.4511    1.0000 </r>
       <r>    5.7912    1.0000 </r>
       <r>    6.4461    0.0000 </r>
       <r>    6.5096    0.0000 </r>
       <r>    7.9539    0.0000 </r>
      </set>
      <set comment="kpoint 44">
       <r>   -1.5915    1.0000 </r>
       <r>    2.0595    1.0000 </r>
       <r>    2.0937    1.0000 </r>
       <r>    4.0189    1.0000 </r>
       <r>    4.0997    1.0000 </r>
       <r>    4.6346    1.0000 </r>
       <r>    6.0035    1.0000 </r>
       <r>    6.0481    1.0268 </r>
       <r>    6.1552   -0.0000 </r>
       <r>    6.6150    0.0000 </r>
       <r>    7.0483    0.0000 </r>
       <r>   14.0585    0.0000 </r>
      </set>
      <set comment="kpoint 45">
       <r>   -1.1079    1.0000 </r>
       <r>    2.2071    1.0000 </r>
       <r>    2.2946    1.0000 </r>
       <r>    3.9266    1.0000 </r>
       <r>    4.0356    1.0000 </r>
       <r>    4.6650    1.0000 </r>
       <r>    5.8430    1.0000 </r>
       <r>    5.8924    1.0000 </r>
       <r>    6.2161   -0.0000 </r>
       <r>    6.3193   -0.0000 </r>
       <r>    7.0380    0.0000 </r>
       <r>   12.5992    0.0000 </r>
      </set>
      <set comment="kpoint 46">
       <r>   -0.4744    1.0000 </r>
       <r>    2.3402    1.0000 </r>
       <r>    2.5292    1.0000 </r>
       <r>    3.8712    1.0000 </r>
       <r>    3.9742    1.0000 </r>
       <r>    4.5715    1.0000 </r>
       <r>    5.7203    1.0000 </r>
       <r>    5.8065    1.0000 </r>
       <r>    6.0024    1.0000 </r>
       <r>    6.3280   -0.0000 </r>
       <r>    6.9638    0.0000 </r>
       <r>   10.9533    0.0000 </r>
      </set>
      <set comment="kpoint 47">
       <r>    0.2542    1.0000 </r>
       <r>    2.3509    1.0000 </r>
       <r>    2.7747    1.0000 </r>
       <r>    3.8367    1.0000 </r>
       <r>    3.9638    1.0000 </r>
       <r>    4.4216    1.0000 </r>
       <r>    5.5512    1.0000 </r>
       <r>    5.6823    1.0000 </r>
       <r>    5.9611    1.0000 </r>
       <r>    6.4169    0.0000 </r>
       <r>    6.8600    0.0000 </r>
       <r>    9.5090    0.0000 </r>
      </set>
      <set comment="kpoint 48">
       <r>    0.9893    1.0000 </r>
       <r>    2.1449    1.0000 </r>
       <r>    2.9874    1.0000 </r>
       <r>    3.7858    1.0000 </r>
       <r>    4.0499    1.0000 </r>
       <r>    4.2939    1.0000 </r>
       <r>    5.4278    1.0000 </r>
       <r>    5.5238    1.0000 </r>
       <r>    6.0063    1.0000 </r>
       <r>    6.5345    0.0000 </r>
       <r>    6.7952    0.0000 </r>
       <r>    8.4353    0.0000 </r>
      </set>
      <set comment="kpoint 49">
       <r>    1.5030    1.0000 </r>
       <r>    1.8233    1.0000 </r>
       <r>    3.0803    1.0000 </r>
       <r>    3.7551    1.0000 </r>
       <r>    4.1462    1.0000 </r>
       <r>    4.2083    1.0000 </r>
       <r>    5.3850    1.0000 </r>
       <r>    5.4707    1.0000 </r>
       <r>    5.9852    1.0000 </r>
       <r>    6.6248    0.0000 </r>
       <r>    6.7985    0.0000 </r>
       <r>    7.9909    0.0000 </r>
      </set>
      <set comment="kpoint 50">
       <r>   -0.6542    1.0000 </r>
       <r>    2.2913    1.0000 </r>
       <r>    2.5290    1.0000 </r>
       <r>    3.7849    1.0000 </r>
       <r>    3.9494    1.0000 </r>
       <r>    4.5403    1.0000 </r>
       <r>    5.8306    1.0000 </r>
       <r>    5.9342    1.0000 </r>
       <r>    6.1163   -0.0000 </r>
       <r>    6.2005   -0.0000 </r>
       <r>    7.0912    0.0000 </r>
       <r>   12.4692    0.0000 </r>
      </set>
      <set comment="kpoint 51">
       <r>   -0.0727    1.0000 </r>
       <r>    2.3459    1.0000 </r>
       <r>    2.7956    1.0000 </r>
       <r>    3.6833    1.0000 </r>
       <r>    3.8914    1.0000 </r>
       <r>    4.3238    1.0000 </r>
       <r>    5.7456    1.0000 </r>
       <r>    5.9251    1.0000 </r>
       <r>    6.0788   -0.0252 </r>
       <r>    6.2830   -0.0000 </r>
       <r>    7.0805    0.0000 </r>
       <r>   11.2167    0.0000 </r>
      </set>
      <set comment="kpoint 52">
       <r>    0.5724    1.0000 </r>
       <r>    2.3018    1.0000 </r>
       <r>    3.0333    1.0000 </r>
       <r>    3.6282    1.0000 </r>
       <r>    3.9194    1.0000 </r>
       <r>    4.1280    1.0000 </r>
       <r>    5.6008    1.0000 </r>
       <r>    5.8169    1.0000 </r>
       <r>    6.2196   -0.0000 </r>
       <r>    6.4632    0.0000 </r>
       <r>    7.0168    0.0000 </r>
       <r>    9.7909    0.0000 </r>
      </set>
      <set comment="kpoint 53">
       <r>    1.1919    1.0000 </r>
       <r>    2.1035    1.0000 </r>
       <r>    3.1919    1.0000 </r>
       <r>    3.6108    1.0000 </r>
       <r>    3.9233    1.0000 </r>
       <r>    4.1219    1.0000 </r>
       <r>    5.5096    1.0000 </r>
       <r>    5.7537    1.0000 </r>
       <r>    6.2266   -0.0000 </r>
       <r>    6.7499    0.0000 </r>
       <r>    6.9838    0.0000 </r>
       <r>    8.6165    0.0000 </r>
      </set>
      <set comment="kpoint 54">
       <r>    1.6238    1.0000 </r>
       <r>    1.8215    1.0000 </r>
       <r>    3.2489    1.0000 </r>
       <r>    3.6131    1.0000 </r>
       <r>    3.8703    1.0000 </r>
       <r>    4.2089    1.0000 </r>
       <r>    5.4791    1.0000 </r>
       <r>    5.7429    1.0000 </r>
       <r>    6.1909   -0.0000 </r>
       <r>    6.8335    0.0000 </r>
       <r>    7.1402    0.0000 </r>
       <r>    8.0398    0.0000 </r>
      </set>
      <set comment="kpoint 55">
       <r>    0.4161    1.0000 </r>
       <r>    2.2896    1.0000 </r>
       <r>    3.1298    1.0000 </r>
       <r>    3.5373    1.0000 </r>
       <r>    3.8862    1.0000 </r>
       <r>    4.0553    1.0000 </r>
       <r>    5.6385    1.0000 </r>
       <r>    6.0619    0.6089 </r>
       <r>    6.2456   -0.0000 </r>
       <r>    6.3386    0.0000 </r>
       <r>    7.1413    0.0000 </r>
       <r>   10.9107    0.0000 </r>
      </set>
      <set comment="kpoint 56">
       <r>    0.9145    1.0000 </r>
       <r>    2.1615    1.0000 </r>
       <r>    3.4212    1.0000 </r>
       <r>    3.4565    1.0000 </r>
       <r>    3.8281    1.0000 </r>
       <r>    4.0455    1.0000 </r>
       <r>    5.5787    1.0000 </r>
       <r>    6.0581    0.8788 </r>
       <r>    6.3036   -0.0000 </r>
       <r>    6.6571    0.0000 </r>
       <r>    7.1346    0.0000 </r>
       <r>    9.8795    0.0000 </r>
      </set>
      <set comment="kpoint 57">
       <r>    1.3478    1.0000 </r>
       <r>    1.9640    1.0000 </r>
       <r>    3.4209    1.0000 </r>
       <r>    3.5457    1.0000 </r>
       <r>    3.7152    1.0000 </r>
       <r>    4.3723    1.0000 </r>
       <r>    5.5323    1.0000 </r>
       <r>    6.0473    1.0232 </r>
       <r>    6.3385    0.0000 </r>
       <r>    6.9917    0.0000 </r>
       <r>    7.1432    0.0000 </r>
       <r>    8.7489    0.0000 </r>
      </set>
      <set comment="kpoint 58">
       <r>    1.6482    1.0000 </r>
       <r>    1.7420    1.0000 </r>
       <r>    3.4371    1.0000 </r>
       <r>    3.5037    1.0000 </r>
       <r>    3.7276    1.0000 </r>
       <r>    4.5710    1.0000 </r>
       <r>    5.4931    1.0000 </r>
       <r>    6.0655    0.3115 </r>
       <r>    6.3312   -0.0000 </r>
       <r>    7.0174    0.0000 </r>
       <r>    7.4551    0.0000 </r>
       <r>    8.0737    0.0000 </r>
      </set>
      <set comment="kpoint 59">
       <r>    1.2081    1.0000 </r>
       <r>    1.9832    1.0000 </r>
       <r>    3.3210    1.0000 </r>
       <r>    3.5823    1.0000 </r>
       <r>    3.8793    1.0000 </r>
       <r>    4.3339    1.0000 </r>
       <r>    5.6144    1.0000 </r>
       <r>    6.2377   -0.0000 </r>
       <r>    6.2635   -0.0000 </r>
       <r>    6.9554    0.0000 </r>
       <r>    7.1868    0.0000 </r>
       <r>    9.4862    0.0000 </r>
      </set>
      <set comment="kpoint 60">
       <r>    1.4329    1.0000 </r>
       <r>    1.7993    1.0000 </r>
       <r>    3.2658    1.0000 </r>
       <r>    3.4035    1.0000 </r>
       <r>    4.1848    1.0000 </r>
       <r>    4.8002    1.0000 </r>
       <r>    5.6145    1.0000 </r>
       <r>    6.2471   -0.0000 </r>
       <r>    6.3433    0.0000 </r>
       <r>    7.1662    0.0000 </r>
       <r>    7.3158    0.0000 </r>
       <r>    8.6901    0.0000 </r>
      </set>
      <set comment="kpoint 61">
       <r>    1.6049    1.0000 </r>
       <r>    1.6342    1.0000 </r>
       <r>    3.2740    1.0000 </r>
       <r>    3.3147    1.0000 </r>
       <r>    4.2828    1.0000 </r>
       <r>    5.1298    1.0000 </r>
       <r>    5.5106    1.0000 </r>
       <r>    6.3146   -0.0000 </r>
       <r>    6.3417    0.0000 </r>
       <r>    7.1468    0.0000 </r>
       <r>    7.6962    0.0000 </r>
       <r>    8.0517    0.0000 </r>
      </set>
      <set comment="kpoint 62">
       <r>    1.4865    1.0000 </r>
       <r>    1.6562    1.0000 </r>
       <r>    3.1771    1.0000 </r>
       <r>    3.2470    1.0000 </r>
       <r>    4.7092    1.0000 </r>
       <r>    5.2202    1.0000 </r>
       <r>    5.7610    1.0000 </r>
       <r>    6.1770   -0.0000 </r>
       <r>    6.4311    0.0000 </r>
       <r>    7.2122    0.0000 </r>
       <r>    7.5560    0.0000 </r>
       <r>    8.3551    0.0000 </r>
      </set>
      <set comment="kpoint 63">
       <r>    1.5508    1.0000 </r>
       <r>    1.5554    1.0000 </r>
       <r>    3.1646    1.0000 </r>
       <r>    3.1746    1.0000 </r>
       <r>    4.9145    1.0000 </r>
       <r>    5.5309    1.0000 </r>
       <r>    5.6934    1.0000 </r>
       <r>    6.1739   -0.0000 </r>
       <r>    6.4664    0.0000 </r>
       <r>    7.2068    0.0000 </r>
       <r>    7.8411    0.0000 </r>
       <r>    7.9570    0.0000 </r>
      </set>
      <set comment="kpoint 64">
       <r>    1.5200    1.0000 </r>
       <r>    1.5354    1.0000 </r>
       <r>    3.1264    1.0000 </r>
       <r>    3.1264    1.0000 </r>
       <r>    5.2714    1.0000 </r>
       <r>    5.5687    1.0000 </r>
       <r>    5.9631    1.0000 </r>
       <r>    5.9631    1.0000 </r>
       <r>    6.5127    0.0000 </r>
       <r>    7.2118    0.0000 </r>
       <r>    7.8883    0.0000 </r>
       <r>    7.8883    0.0000 </r>
      </set>
      <set comment="kpoint 65">
       <r>   -1.2963    1.0000 </r>
       <r>    2.1950    1.0000 </r>
       <r>    2.1950    1.0000 </r>
       <r>    3.9667    1.0000 </r>
       <r>    3.9667    1.0000 </r>
       <r>    4.6453    1.0000 </r>
       <r>    5.8469    1.0000 </r>
       <r>    6.0803   -0.0181 </r>
       <r>    6.0803   -0.0181 </r>
       <r>    6.7941    0.0000 </r>
       <r>    6.7941    0.0000 </r>
       <r>   14.5758    0.0000 </r>
      </set>
      <set comment="kpoint 66">
       <r>   -0.8246    1.0000 </r>
       <r>    2.3538    1.0000 </r>
       <r>    2.3745    1.0000 </r>
       <r>    3.8514    1.0000 </r>
       <r>    3.8891    1.0000 </r>
       <r>    4.5102    1.0000 </r>
       <r>    5.8436    1.0000 </r>
       <r>    5.9639    1.0000 </r>
       <r>    6.1786   -0.0000 </r>
       <r>    6.4638    0.0000 </r>
       <r>    6.8795    0.0000 </r>
       <r>   12.9808    0.0000 </r>
      </set>
      <set comment="kpoint 67">
       <r>   -0.2117    1.0000 </r>
       <r>    2.5151    1.0000 </r>
       <r>    2.5538    1.0000 </r>
       <r>    3.7946    1.0000 </r>
       <r>    3.7952    1.0000 </r>
       <r>    4.3074    1.0000 </r>
       <r>    5.8220    1.0000 </r>
       <r>    5.9826    1.0000 </r>
       <r>    6.1336   -0.0000 </r>
       <r>    6.2838   -0.0000 </r>
       <r>    6.8908    0.0000 </r>
       <r>   11.3130    0.0000 </r>
      </set>
      <set comment="kpoint 68">
       <r>    0.4844    1.0000 </r>
       <r>    2.4972    1.0000 </r>
       <r>    2.7703    1.0000 </r>
       <r>    3.6924    1.0000 </r>
       <r>    3.8327    1.0000 </r>
       <r>    4.1731    1.0000 </r>
       <r>    5.6818    1.0000 </r>
       <r>    5.8577    1.0000 </r>
       <r>    6.0504    1.0350 </r>
       <r>    6.4695    0.0000 </r>
       <r>    6.8884    0.0000 </r>
       <r>    9.8329    0.0000 </r>
      </set>
      <set comment="kpoint 69">
       <r>    1.1767    1.0000 </r>
       <r>    2.2559    1.0000 </r>
       <r>    2.9619    1.0000 </r>
       <r>    3.5916    1.0000 </r>
       <r>    3.9477    1.0000 </r>
       <r>    4.1449    1.0000 </r>
       <r>    5.5805    1.0000 </r>
       <r>    5.6707    1.0000 </r>
       <r>    5.9465    1.0000 </r>
       <r>    6.7084    0.0000 </r>
       <r>    7.0022    0.0000 </r>
       <r>    8.6719    0.0000 </r>
      </set>
      <set comment="kpoint 70">
       <r>    1.6784    1.0000 </r>
       <r>    1.9121    1.0000 </r>
       <r>    3.0499    1.0000 </r>
       <r>    3.5389    1.0000 </r>
       <r>    4.0085    1.0000 </r>
       <r>    4.1633    1.0000 </r>
       <r>    5.5470    1.0000 </r>
       <r>    5.6005    1.0000 </r>
       <r>    5.8624    1.0000 </r>
       <r>    6.7663    0.0000 </r>
       <r>    7.2418    0.0000 </r>
       <r>    8.0999    0.0000 </r>
      </set>
      <set comment="kpoint 71">
       <r>   -0.3770    1.0000 </r>
       <r>    2.4570    1.0000 </r>
       <r>    2.5903    1.0000 </r>
       <r>    3.7178    1.0000 </r>
       <r>    3.7839    1.0000 </r>
       <r>    4.2416    1.0000 </r>
       <r>    5.9799    1.0000 </r>
       <r>    6.0413    1.0040 </r>
       <r>    6.1576   -0.0000 </r>
       <r>    6.3623    0.0000 </r>
       <r>    6.8519    0.0000 </r>
       <r>   12.9888    0.0000 </r>
      </set>
      <set comment="kpoint 72">
       <r>    0.1930    1.0000 </r>
       <r>    2.5353    1.0000 </r>
       <r>    2.8134    1.0000 </r>
       <r>    3.6115    1.0000 </r>
       <r>    3.7094    1.0000 </r>
       <r>    4.0039    1.0000 </r>
       <r>    5.8794    1.0000 </r>
       <r>    6.1056   -0.0000 </r>
       <r>    6.2243   -0.0000 </r>
       <r>    6.3508    0.0000 </r>
       <r>    6.8908    0.0000 </r>
       <r>   11.6774    0.0000 </r>
      </set>
      <set comment="kpoint 73">
       <r>    0.8176    1.0000 </r>
       <r>    2.4983    1.0000 </r>
       <r>    2.9716    1.0000 </r>
       <r>    3.5260    1.0000 </r>
       <r>    3.7282    1.0000 </r>
       <r>    3.9239    1.0000 </r>
       <r>    5.7258    1.0000 </r>
       <r>    5.9736    1.0000 </r>
       <r>    6.1664   -0.0000 </r>
       <r>    6.7126    0.0000 </r>
       <r>    6.9372    0.0000 </r>
       <r>   10.2170    0.0000 </r>
      </set>
      <set comment="kpoint 74">
       <r>    1.4093    1.0000 </r>
       <r>    2.2768    1.0000 </r>
       <r>    3.0846    1.0000 </r>
       <r>    3.4460    1.0000 </r>
       <r>    3.7565    1.0000 </r>
       <r>    4.0705    1.0000 </r>
       <r>    5.6050    1.0000 </r>
       <r>    5.8900    1.0000 </r>
       <r>    6.0211    1.0000 </r>
       <r>    6.8955    0.0000 </r>
       <r>    7.2609    0.0000 </r>
       <r>    8.9902    0.0000 </r>
      </set>
      <set comment="kpoint 75">
       <r>    1.8511    1.0000 </r>
       <r>    1.9581    1.0000 </r>
       <r>    3.1394    1.0000 </r>
       <r>    3.4045    1.0000 </r>
       <r>    3.7638    1.0000 </r>
       <r>    4.1894    1.0000 </r>
       <r>    5.5568    1.0000 </r>
       <r>    5.8925    1.0000 </r>
       <r>    5.8966    1.0000 </r>
       <r>    6.9141    0.0000 </r>
       <r>    7.7045    0.0000 </r>
       <r>    8.2722    0.0000 </r>
      </set>
      <set comment="kpoint 76">
       <r>    0.6824    1.0000 </r>
       <r>    2.4841    1.0000 </r>
       <r>    3.1344    1.0000 </r>
       <r>    3.4721    1.0000 </r>
       <r>    3.6745    1.0000 </r>
       <r>    3.7584    1.0000 </r>
       <r>    5.7777    1.0000 </r>
       <r>    6.1832   -0.0000 </r>
       <r>    6.2095   -0.0000 </r>
       <r>    6.6676    0.0000 </r>
       <r>    6.9359    0.0000 </r>
       <r>   11.4788    0.0000 </r>
      </set>
      <set comment="kpoint 77">
       <r>    1.1727    1.0000 </r>
       <r>    2.3553    1.0000 </r>
       <r>    3.3303    1.0000 </r>
       <r>    3.3958    1.0000 </r>
       <r>    3.6254    1.0000 </r>
       <r>    3.8421    1.0000 </r>
       <r>    5.6663    1.0000 </r>
       <r>    6.1124   -0.0000 </r>
       <r>    6.2495   -0.0000 </r>
       <r>    6.9745    0.0000 </r>
       <r>    7.0743    0.0000 </r>
       <r>   10.4408    0.0000 </r>
      </set>
      <set comment="kpoint 78">
       <r>    1.5860    1.0000 </r>
       <r>    2.1566    1.0000 </r>
       <r>    3.3152    1.0000 </r>
       <r>    3.3699    1.0000 </r>
       <r>    3.6378    1.0000 </r>
       <r>    4.1980    1.0000 </r>
       <r>    5.5860    1.0000 </r>
       <r>    6.0158    1.0000 </r>
       <r>    6.2128   -0.0000 </r>
       <r>    7.0148    0.0000 </r>
       <r>    7.5805    0.0000 </r>
       <r>    9.2823    0.0000 </r>
      </set>
      <set comment="kpoint 79">
       <r>    1.9002    1.0000 </r>
       <r>    1.9090    1.0000 </r>
       <r>    3.3019    1.0000 </r>
       <r>    3.3522    1.0000 </r>
       <r>    3.6616    1.0000 </r>
       <r>    4.4052    1.0000 </r>
       <r>    5.5399    1.0000 </r>
       <r>    5.9579    1.0000 </r>
       <r>    6.1824   -0.0000 </r>
       <r>    7.0309    0.0000 </r>
       <r>    8.1337    0.0000 </r>
       <r>    8.4753    0.0000 </r>
      </set>
      <set comment="kpoint 80">
       <r>    1.4638    1.0000 </r>
       <r>    2.1757    1.0000 </r>
       <r>    3.2584    1.0000 </r>
       <r>    3.4254    1.0000 </r>
       <r>    3.8191    1.0000 </r>
       <r>    4.0430    1.0000 </r>
       <r>    5.6295    1.0000 </r>
       <r>    6.1020   -0.0000 </r>
       <r>    6.3515    0.0000 </r>
       <r>    7.0431    0.0000 </r>
       <r>    7.4516    0.0000 </r>
       <r>   10.1624    0.0000 </r>
      </set>
      <set comment="kpoint 81">
       <r>    1.6694    1.0000 </r>
       <r>    1.9989    1.0000 </r>
       <r>    3.2009    1.0000 </r>
       <r>    3.2979    1.0000 </r>
       <r>    4.0614    1.0000 </r>
       <r>    4.4981    1.0000 </r>
       <r>    5.5952    1.0000 </r>
       <r>    5.9911    1.0000 </r>
       <r>    6.4073    0.0000 </r>
       <r>    7.0948    0.0000 </r>
       <r>    7.9256    0.0000 </r>
       <r>    9.3979    0.0000 </r>
      </set>
      <set comment="kpoint 82">
       <r>    1.8123    1.0000 </r>
       <r>    1.8563    1.0000 </r>
       <r>    3.1926    1.0000 </r>
       <r>    3.2410    1.0000 </r>
       <r>    4.1358    1.0000 </r>
       <r>    4.7931    1.0000 </r>
       <r>    5.5310    1.0000 </r>
       <r>    5.9242    1.0000 </r>
       <r>    6.4155    0.0000 </r>
       <r>    7.1175    0.0000 </r>
       <r>    8.4898    0.0000 </r>
       <r>    8.6599    0.0000 </r>
      </set>
      <set comment="kpoint 83">
       <r>    1.7064    1.0000 </r>
       <r>    1.8674    1.0000 </r>
       <r>    3.1248    1.0000 </r>
       <r>    3.1764    1.0000 </r>
       <r>    4.5740    1.0000 </r>
       <r>    4.8499    1.0000 </r>
       <r>    5.6184    1.0000 </r>
       <r>    5.8313    1.0000 </r>
       <r>    6.5223    0.0000 </r>
       <r>    7.1574    0.0000 </r>
       <r>    8.3071    0.0000 </r>
       <r>    9.1969    0.0000 </r>
      </set>
      <set comment="kpoint 84">
       <r>    1.7321    1.0000 </r>
       <r>    1.8025    1.0000 </r>
       <r>    3.1088    1.0000 </r>
       <r>    3.1210    1.0000 </r>
       <r>    4.7516    1.0000 </r>
       <r>    5.1656    1.0000 </r>
       <r>    5.5211    1.0000 </r>
       <r>    5.7340    1.0000 </r>
       <r>    6.5543    0.0000 </r>
       <r>    7.1860    0.0000 </r>
       <r>    8.7338    0.0000 </r>
       <r>    8.7819    0.0000 </r>
      </set>
      <set comment="kpoint 85">
       <r>    1.7019    1.0000 </r>
       <r>    1.7807    1.0000 </r>
       <r>    3.0781    1.0000 </r>
       <r>    3.0781    1.0000 </r>
       <r>    5.2766    1.0000 </r>
       <r>    5.3213    1.0000 </r>
       <r>    5.3213    1.0000 </r>
       <r>    5.5701    1.0000 </r>
       <r>    6.5953    0.0000 </r>
       <r>    7.2179    0.0000 </r>
       <r>    8.8227    0.0000 </r>
       <r>    8.8227    0.0000 </r>
      </set>
      <set comment="kpoint 86">
       <r>    0.0575    1.0000 </r>
       <r>    2.6841    1.0000 </r>
       <r>    2.6841    1.0000 </r>
       <r>    3.6202    1.0000 </r>
       <r>    3.6202    1.0000 </r>
       <r>    3.8993    1.0000 </r>
       <r>    6.0752   -0.0353 </r>
       <r>    6.0752   -0.0353 </r>
       <r>    6.3268   -0.0000 </r>
       <r>    6.5749    0.0000 </r>
       <r>    6.5749    0.0000 </r>
       <r>   13.7447    0.0000 </r>
      </set>
      <set comment="kpoint 87">
       <r>    0.6013    1.0000 </r>
       <r>    2.7977    1.0000 </r>
       <r>    2.8462    1.0000 </r>
       <r>    3.5078    1.0000 </r>
       <r>    3.5265    1.0000 </r>
       <r>    3.6666    1.0000 </r>
       <r>    5.9420    1.0000 </r>
       <r>    6.1076   -0.0000 </r>
       <r>    6.3539    0.0000 </r>
       <r>    6.6898    0.0000 </r>
       <r>    6.7413    0.0000 </r>
       <r>   12.2414    0.0000 </r>
      </set>
      <set comment="kpoint 88">
       <r>    1.1774    1.0000 </r>
       <r>    2.7359    1.0000 </r>
       <r>    2.9166    1.0000 </r>
       <r>    3.3947    1.0000 </r>
       <r>    3.5278    1.0000 </r>
       <r>    3.7422    1.0000 </r>
       <r>    5.7856    1.0000 </r>
       <r>    6.0274    1.0000 </r>
       <r>    6.2183   -0.0000 </r>
       <r>    6.8703    0.0000 </r>
       <r>    7.1298    0.0000 </r>
       <r>   10.7471    0.0000 </r>
      </set>
      <set comment="kpoint 89">
       <r>    1.6956    1.0000 </r>
       <r>    2.4545    1.0000 </r>
       <r>    3.0256    1.0000 </r>
       <r>    3.2921    1.0000 </r>
       <r>    3.5712    1.0000 </r>
       <r>    4.0069    1.0000 </r>
       <r>    5.6685    1.0000 </r>
       <r>    5.8486    1.0000 </r>
       <r>    6.1445   -0.0000 </r>
       <r>    6.9574    0.0000 </r>
       <r>    7.6847    0.0000 </r>
       <r>    9.4726    0.0000 </r>
      </set>
      <set comment="kpoint 90">
       <r>    2.0923    1.0000 </r>
       <r>    2.1344    1.0000 </r>
       <r>    3.0873    1.0000 </r>
       <r>    3.2335    1.0000 </r>
       <r>    3.6002    1.0000 </r>
       <r>    4.1570    1.0000 </r>
       <r>    5.6267    1.0000 </r>
       <r>    5.7340    1.0000 </r>
       <r>    6.1203   -0.0000 </r>
       <r>    6.9884    0.0000 </r>
       <r>    8.2836    0.0000 </r>
       <r>    8.6173    0.0000 </r>
      </set>
      <set comment="kpoint 91">
       <r>    1.0901    1.0000 </r>
       <r>    2.7791    1.0000 </r>
       <r>    3.1343    1.0000 </r>
       <r>    3.3830    1.0000 </r>
       <r>    3.4182    1.0000 </r>
       <r>    3.4494    1.0000 </r>
       <r>    5.8707    1.0000 </r>
       <r>    6.0582    0.8730 </r>
       <r>    6.4268    0.0000 </r>
       <r>    6.7582    0.0000 </r>
       <r>    7.1000    0.0000 </r>
       <r>   12.2780    0.0000 </r>
      </set>
      <set comment="kpoint 92">
       <r>    1.5609    1.0000 </r>
       <r>    2.6387    1.0000 </r>
       <r>    3.1829    1.0000 </r>
       <r>    3.2925    1.0000 </r>
       <r>    3.4009    1.0000 </r>
       <r>    3.6600    1.0000 </r>
       <r>    5.7403    1.0000 </r>
       <r>    5.9743    1.0000 </r>
       <r>    6.4075    0.0000 </r>
       <r>    6.8900    0.0000 </r>
       <r>    7.5688    0.0000 </r>
       <r>   11.1717    0.0000 </r>
      </set>
      <set comment="kpoint 93">
       <r>    1.9218    1.0000 </r>
       <r>    2.4357    1.0000 </r>
       <r>    3.1519    1.0000 </r>
       <r>    3.2327    1.0000 </r>
       <r>    3.4686    1.0000 </r>
       <r>    4.0324    1.0000 </r>
       <r>    5.6413    1.0000 </r>
       <r>    5.8143    1.0000 </r>
       <r>    6.3786    0.0000 </r>
       <r>    7.0059    0.0000 </r>
       <r>    8.1500    0.0000 </r>
       <r>    9.9485    0.0000 </r>
      </set>
      <set comment="kpoint 94">
       <r>    2.1241    1.0000 </r>
       <r>    2.2731    1.0000 </r>
       <r>    3.1432    1.0000 </r>
       <r>    3.2120    1.0000 </r>
       <r>    3.5099    1.0000 </r>
       <r>    4.2280    1.0000 </r>
       <r>    5.5880    1.0000 </r>
       <r>    5.7225    1.0000 </r>
       <r>    6.3667    0.0000 </r>
       <r>    7.0497    0.0000 </r>
       <r>    8.8402    0.0000 </r>
       <r>    9.0154    0.0000 </r>
      </set>
      <set comment="kpoint 95">
       <r>    1.8496    1.0000 </r>
       <r>    2.4625    1.0000 </r>
       <r>    3.1693    1.0000 </r>
       <r>    3.2355    1.0000 </r>
       <r>    3.7158    1.0000 </r>
       <r>    3.7229    1.0000 </r>
       <r>    5.6646    1.0000 </r>
       <r>    5.8982    1.0000 </r>
       <r>    6.5247    0.0000 </r>
       <r>    6.9680    0.0000 </r>
       <r>    8.0561    0.0000 </r>
       <r>   11.0501    0.0000 </r>
[...]
        <r>  0.0692  0.0602  0.0602  0.0000  0.0000  0.1903  0.0036  0.0000  0.0108 </r>
       </set>
      </set>
      <set comment="kpoint 114">
       <set comment="band 1">
        <r>  0.0416  0.0067  0.0631  0.0067  0.0049  0.0229  0.0180  0.0229  0.0000 </r>
        <r>  0.0001  0.0004  0.0000  0.0004  0.5633  0.0790  0.0001  0.0790  0.0000 </r>
       </set>
       <set comment="band 2">
        <r>  0.0000  0.0223  0.0279  0.0223  0.0954  0.0192  0.0207  0.0192  0.0000 </r>
        <r>  0.0058  0.0007  0.0051  0.0007  0.1638  0.2562  0.0053  0.2562  0.0000 </r>
       </set>
       <set comment="band 3">
        <r>  0.0000  0.0396  0.0000  0.0396  0.0000  0.0514  0.0000  0.0514  0.0108 </r>
        <r>  0.0000  0.0006  0.0000  0.0006  0.0000  0.3646  0.0000  0.3646  0.0006 </r>
       </set>
       <set comment="band 4">
        <r>  0.0020  0.0176  0.0010  0.0176  0.4532  0.0002  0.0039  0.0002  0.0000 </r>
        <r>  0.0391  0.0006  0.1041  0.0006  0.0091  0.0346  0.1641  0.0346  0.0000 </r>
       </set>
       <set comment="band 5">
        <r>  0.0080  0.0153  0.0071  0.0153  0.0054  0.2941  0.0006  0.2941  0.0000 </r>
        <r>  0.0191  0.0722  0.0005  0.0722  0.0000  0.0128  0.0516  0.0128  0.0000 </r>
       </set>
       <set comment="band 6">
        <r>  0.0000  0.0195  0.0000  0.0195  0.0000  0.2634  0.0000  0.2634  0.0083 </r>
        <r>  0.0000  0.0680  0.0000  0.0680  0.0000  0.0215  0.0000  0.0215  0.1361 </r>
       </set>
       <set comment="band 7">
        <r>  0.0000  0.0014  0.0000  0.0014  0.0000  0.0598  0.0000  0.0598  0.0009 </r>
        <r>  0.0000  0.0057  0.0000  0.0057  0.0000  0.0034  0.0000  0.0034  0.8407 </r>
       </set>
       <set comment="band 8">
        <r>  0.0000  0.0001  0.0003  0.0001  0.1805  0.0185  0.0003  0.0185  0.0000 </r>
        <r>  0.0024  0.0015  0.0106  0.0015  0.0007  0.0004  0.7470  0.0004  0.0000 </r>
       </set>
       <set comment="band 9">
        <r>  0.0000  0.0000  0.0003  0.0000  0.0007  0.0008  0.9083  0.0008  0.0000 </r>
        <r>  0.0000  0.0000  0.0000  0.0000  0.0614  0.0034  0.0001  0.0034  0.0000 </r>
       </set>
       <set comment="band 10">
        <r>  0.0000  0.0001  0.0000  0.0001  0.0000  0.0032  0.0000  0.0032  0.9482 </r>
        <r>  0.0000  0.0000  0.0000  0.0000  0.0000  0.0143  0.0000  0.0143  0.0001 </r>
       </set>
       <set comment="band 11">
        <r>  0.0468  0.0575  0.0270  0.0575  0.0709  0.1042  0.0016  0.1042  0.0000 </r>
        <r>  0.0371  0.0509  0.0232  0.0509  0.0618  0.0893  0.0006  0.0893  0.0000 </r>
       </set>
       <set comment="band 12">
        <r>  0.0000  0.1039  0.0000  0.1039  0.0000  0.1086  0.0000  0.1086  0.0188 </r>
        <r>  0.0000  0.0952  0.0000  0.0952  0.0000  0.0965  0.0000  0.0965  0.0103 </r>
       </set>
      </set>
      <set comment="kpoint 115">
       <set comment="band 1">
        <r>  0.0371  0.0085  0.0766  0.0000  0.0000  0.0283  0.0256  0.0000  0.0007 </r>
        <r>  0.0000  0.0000  0.0000  0.0003  0.6394  0.0000  0.0000  0.0907  0.0000 </r>
       </set>
       <set comment="band 2">
        <r>  0.0000  0.0000  0.0000  0.0568  0.0903  0.0000  0.0000  0.1132  0.0000 </r>
        <r>  0.0065  0.0026  0.0065  0.0000  0.0000  0.6427  0.0073  0.0000  0.0007 </r>
       </set>
       <set comment="band 3">
        <r>  0.0001  0.0752  0.0170  0.0000  0.0000  0.0576  0.0139  0.0000  0.0051 </r>
        <r>  0.0000  0.0000  0.0000  0.0007  0.0990  0.0000  0.0000  0.6504  0.0000 </r>
       </set>
       <set comment="band 4">
        <r>  0.0000  0.0000  0.0000  0.0247  0.4765  0.0000  0.0000  0.0061  0.0000 </r>
        <r>  0.0333  0.0000  0.1023  0.0000  0.0000  0.0778  0.1686  0.0000  0.0000 </r>
       </set>
       <set comment="band 5">
        <r>  0.0000  0.0000  0.0000  0.0455  0.0012  0.0000  0.0000  0.5404  0.0000 </r>
        <r>  0.0104  0.1382  0.0000  0.0000  0.0000  0.0637  0.0183  0.0000  0.0676 </r>
       </set>
       <set comment="band 6">
        <r>  0.0048  0.0367  0.0037  0.0000  0.0000  0.6439  0.0003  0.0000  0.0042 </r>
        <r>  0.0000  0.0000  0.0000  0.1580  0.0000  0.0000  0.0000  0.0330  0.0000 </r>
       </set>
       <set comment="band 7">
        <r>  0.0000  0.0000  0.0000  0.0015  0.0049  0.0000  0.0000  0.0470  0.0000 </r>
        <r>  0.0013  0.0046  0.0003  0.0000  0.0000  0.0042  0.0280  0.0000  0.8919 </r>
       </set>
       <set comment="band 8">
        <r>  0.0000  0.0000  0.0000  0.0000  0.1700  0.0000  0.0000  0.0296  0.0000 </r>
        <r>  0.0030  0.0023  0.0095  0.0000  0.0000  0.0001  0.7476  0.0000  0.0212 </r>
       </set>
       <set comment="band 9">
        <r>  0.0000  0.0001  0.0003  0.0000  0.0000  0.0004  0.8919  0.0000  0.0227 </r>
        <r>  0.0000  0.0000  0.0000  0.0000  0.0592  0.0000  0.0000  0.0054  0.0000 </r>
       </set>
       <set comment="band 10">
        <r>  0.0000  0.0001  0.0000  0.0000  0.0000  0.0039  0.0228  0.0000  0.9439 </r>
        <r>  0.0000  0.0000  0.0000  0.0000  0.0019  0.0000  0.0000  0.0123  0.0000 </r>
       </set>
       <set comment="band 11">
        <r>  0.0522  0.1358  0.0335  0.0000  0.0000  0.2174  0.0039  0.0000  0.0085 </r>
        <r>  0.0000  0.0000  0.0000  0.1638  0.0674  0.0000  0.0000  0.1691  0.0000 </r>
       </set>
       <set comment="band 12">
        <r>  0.0000  0.0000  0.0000  0.1846  0.0758  0.0000  0.0000  0.1935  0.0000 </r>
        <r>  0.0457  0.1226  0.0288  0.0000  0.0000  0.1940  0.0017  0.0000  0.0041 </r>
       </set>
      </set>
      <set comment="kpoint 116">
       <set comment="band 1">
        <r>  0.0322  0.0000  0.0954  0.0000  0.0000  0.0000  0.0368  0.0000  0.0000 </r>
        <r>  0.0000  0.0000  0.0000  0.0000  0.7396  0.0000  0.0000  0.0000  0.0000 </r>
       </set>
       <set comment="band 2">
        <r>  0.0000  0.0390  0.0000  0.0419  0.0000  0.0527  0.0000  0.0565  0.0000 </r>
        <r>  0.0000  0.0009  0.0000  0.0008  0.0000  0.3792  0.0000  0.3532  0.0000 </r>
       </set>
       <set comment="band 3">
        <r>  0.0000  0.0419  0.0000  0.0390  0.0000  0.0565  0.0000  0.0527  0.0000 </r>
        <r>  0.0000  0.0008  0.0000  0.0009  0.0000  0.3532  0.0000  0.3792  0.0000 </r>
       </set>
       <set comment="band 4">
        <r>  0.0000  0.0000  0.0000  0.0000  0.5763  0.0000  0.0000  0.0000  0.0000 </r>
        <r>  0.0374  0.0000  0.1079  0.0000  0.0000  0.0000  0.1707  0.0000  0.0000 </r>
       </set>
       <set comment="band 5">
        <r>  0.0000  0.0448  0.0000  0.0006  0.0000  0.6199  0.0000  0.0079  0.0000 </r>
        <r>  0.0000  0.0020  0.0000  0.1531  0.0000  0.0007  0.0000  0.0566  0.0000 </r>
       </set>
       <set comment="band 6">
        <r>  0.0000  0.0006  0.0000  0.0448  0.0000  0.0079  0.0000  0.6199  0.0000 </r>
        <r>  0.0000  0.1531  0.0000  0.0020  0.0000  0.0566  0.0000  0.0007  0.0000 </r>
       </set>
       <set comment="band 7">
        <r>  0.0000  0.0000  0.0000  0.0000  0.0000  0.0000  0.0000  0.0000  0.0000 </r>
        <r>  0.0000  0.0000  0.0000  0.0000  0.0000  0.0000  0.0000  0.0000  0.9855 </r>
       </set>
       <set comment="band 8">
        <r>  0.0000  0.0000  0.0000  0.0000  0.1691  0.0000  0.0000  0.0000  0.0000 </r>
        <r>  0.0049  0.0000  0.0091  0.0000  0.0000  0.0000  0.8006  0.0000  0.0000 </r>
       </set>
       <set comment="band 9">
        <r>  0.0000  0.0000  0.0004  0.0000  0.0000  0.0000  0.9200  0.0000  0.0000 </r>
        <r>  0.0000  0.0000  0.0000  0.0000  0.0607  0.0000  0.0000  0.0000  0.0000 </r>
       </set>
       <set comment="band 10">
        <r>  0.0000  0.0000  0.0000  0.0000  0.0000  0.0000  0.0000  0.0000  0.9862 </r>
        <r>  0.0000  0.0000  0.0000  0.0000  0.0000  0.0000  0.0000  0.0000  0.0000 </r>
       </set>
       <set comment="band 11">
        <r>  0.0000  0.1450  0.0000  0.0630  0.0000  0.1615  0.0000  0.0701  0.0000 </r>
        <r>  0.0000  0.0562  0.0000  0.1294  0.0000  0.0636  0.0000  0.1464  0.0000 </r>
       </set>
       <set comment="band 12">
        <r>  0.0000  0.0630  0.0000  0.1450  0.0000  0.0701  0.0000  0.1615  0.0000 </r>
        <r>  0.0000  0.1294  0.0000  0.0562  0.0000  0.1464  0.0000  0.0636  0.0000 </r>
       </set>
      </set>
      <set comment="kpoint 117">
       <set comment="band 1">
        <r>  0.0214  0.0274  0.0274  0.0274  0.0257  0.0257  0.0000  0.0257  0.0000 </r>
        <r>  0.0006  0.0001  0.0001  0.0001  0.2449  0.2449  0.0000  0.2449  0.0000 </r>
       </set>
       <set comment="band 2">
        <r>  0.0000  0.0200  0.0173  0.0657  0.0052  0.0196  0.0034  0.0060  0.0102 </r>
        <r>  0.0000  0.0001  0.0001  0.0003  0.1289  0.4899  0.0001  0.1490  0.0002 </r>
       </set>
       <set comment="band 3">
        <r>  0.0000  0.0486  0.0513  0.0029  0.0153  0.0009  0.0102  0.0145  0.0034 </r>
        <r>  0.0000  0.0002  0.0002  0.0000  0.3830  0.0220  0.0002  0.3629  0.0001 </r>
       </set>
       <set comment="band 4">
        <r>  0.0053  0.0119  0.0119  0.0119  0.2094  0.2094  0.0000  0.2094  0.0000 </r>
        <r>  0.0345  0.0481  0.0481  0.0481  0.0100  0.0100  0.0000  0.0100  0.0000 </r>
       </set>
       <set comment="band 5">
        <r>  0.0000  0.0055  0.0056  0.0003  0.3054  0.0184  0.0016  0.3029  0.0006 </r>
        <r>  0.0000  0.0653  0.0658  0.0040  0.0068  0.0004  0.0792  0.0068  0.0291 </r>
       </set>
       <set comment="band 6">
        <r>  0.0000  0.0021  0.0021  0.0073  0.1124  0.3994  0.0006  0.1149  0.0016 </r>
        <r>  0.0000  0.0248  0.0242  0.0861  0.0025  0.0089  0.0291  0.0026  0.0792 </r>
       </set>
       <set comment="band 7">
        <r>  0.0000  0.0003  0.0000  0.0002  0.0015  0.0430  0.0000  0.0587  0.0001 </r>
        <r>  0.0000  0.0047  0.0001  0.0034  0.0000  0.0006  0.0184  0.0009  0.8520 </r>
       </set>
       <set comment="band 8">
        <r>  0.0000  0.0001  0.0003  0.0001  0.0673  0.0257  0.0001  0.0101  0.0000 </r>
        <r>  0.0000  0.0008  0.0054  0.0020  0.0010  0.0004  0.8520  0.0001  0.0184 </r>
       </set>
       <set comment="band 9">
        <r>  0.0000  0.0001  0.0001  0.0000  0.0005  0.0001  0.5177  0.0008  0.4388 </r>
        <r>  0.0000  0.0000  0.0000  0.0000  0.0092  0.0016  0.0000  0.0147  0.0000 </r>
       </set>
       <set comment="band 10">
        <r>  0.0000  0.0000  0.0001  0.0001  0.0004  0.0008  0.4388  0.0001  0.5177 </r>
        <r>  0.0000  0.0000  0.0000  0.0000  0.0078  0.0154  0.0000  0.0023  0.0000 </r>
       </set>
       <set comment="band 11">
        <r>  0.0450  0.0528  0.0528  0.0528  0.0835  0.0835  0.0000  0.0835  0.0000 </r>
        <r>  0.0384  0.0455  0.0455  0.0455  0.0763  0.0763  0.0000  0.0763  0.0000 </r>
       </set>
       <set comment="band 12">
        <r>  0.0000  0.0999  0.1070  0.0061  0.1037  0.0059  0.0104  0.0968  0.0034 </r>
        <r>  0.0000  0.0864  0.0925  0.0053  0.1024  0.0059  0.0062  0.0956  0.0020 </r>
       </set>
      </set>
      <set comment="kpoint 118">
       <set comment="band 1">
        <r>  0.0157  0.0479  0.0479  0.0000  0.0000  0.0410  0.0011  0.0000  0.0033 </r>
        <r>  0.0000  0.0000  0.0000  0.0001  0.3782  0.0000  0.0000  0.3782  0.0000 </r>
       </set>
       <set comment="band 2">
        <r>  0.0000  0.0565  0.0565  0.0000  0.0000  0.0000  0.0112  0.0000  0.0037 </r>
        <r>  0.0000  0.0000  0.0000  0.0000  0.3924  0.0000  0.0000  0.3924  0.0000 </r>
       </set>
       <set comment="band 3">
        <r>  0.0000  0.0000  0.0000  0.0931  0.0381  0.0000  0.0000  0.0381  0.0000 </r>
        <r>  0.0008  0.0010  0.0010  0.0000  0.0000  0.7469  0.0001  0.0000  0.0003 </r>
       </set>
       <set comment="band 4">
        <r>  0.0000  0.0000  0.0000  0.0282  0.3094  0.0000  0.0000  0.3094  0.0000 </r>
        <r>  0.0219  0.0687  0.0687  0.0000  0.0000  0.0444  0.0091  0.0000  0.0273 </r>
       </set>
       <set comment="band 5">
        <r>  0.0000  0.0000  0.0000  0.0000  0.3329  0.0000  0.0000  0.3329  0.0000 </r>
        <r>  0.0000  0.0674  0.0674  0.0000  0.0000  0.0000  0.0755  0.0000  0.0252 </r>
       </set>
       <set comment="band 6">
        <r>  0.0019  0.0093  0.0093  0.0000  0.0000  0.7021  0.0003  0.0000  0.0010 </r>
        <r>  0.0000  0.0000  0.0000  0.1527  0.0081  0.0000  0.0000  0.0081  0.0000 </r>
       </set>
       <set comment="band 7">
        <r>  0.0000  0.0000  0.0000  0.0004  0.0168  0.0000  0.0000  0.0168  0.0000 </r>
        <r>  0.0006  0.0014  0.0014  0.0000  0.0000  0.0011  0.2367  0.0000  0.7100 </r>
       </set>
       <set comment="band 8">
        <r>  0.0000  0.0000  0.0000  0.0000  0.0491  0.0000  0.0000  0.0491  0.0000 </r>
        <r>  0.0000  0.0037  0.0037  0.0000  0.0000  0.0000  0.6591  0.0000  0.2197 </r>
       </set>
       <set comment="band 9">
        <r>  0.0000  0.0001  0.0001  0.0000  0.0000  0.0000  0.7193  0.0000  0.2398 </r>
        <r>  0.0000  0.0000  0.0000  0.0000  0.0123  0.0000  0.0000  0.0123  0.0000 </r>
       </set>
       <set comment="band 10">
        <r>  0.0000  0.0000  0.0000  0.0000  0.0000  0.0010  0.2438  0.0000  0.7315 </r>
        <r>  0.0000  0.0000  0.0000  0.0000  0.0046  0.0000  0.0000  0.0046  0.0000 </r>
       </set>
       <set comment="band 11">
        <r>  0.0511  0.0932  0.0932  0.0000  0.0000  0.1978  0.0014  0.0000  0.0042 </r>
        <r>  0.0000  0.0000  0.0000  0.1604  0.1196  0.0000  0.0000  0.1196  0.0000 </r>
       </set>
       <set comment="band 12">
        <r>  0.0000  0.0000  0.0000  0.1873  0.1258  0.0000  0.0000  0.1258  0.0000 </r>
        <r>  0.0479  0.0796  0.0796  0.0000  0.0000  0.1915  0.0007  0.0000  0.0022 </r>
       </set>
      </set>
      <set comment="kpoint 119">
       <set comment="band 1">
        <r>  0.0087  0.0000  0.1115  0.0000  0.0000  0.0000  0.0099  0.0000  0.0000 </r>
        <r>  0.0000  0.0000  0.0000  0.0000  0.7799  0.0000  0.0000  0.0000  0.0000 </r>
       </set>
       <set comment="band 2">
        <r>  0.0000  0.0795  0.0000  0.0267  0.0000  0.0249  0.0000  0.0084  0.0000 </r>
        <r>  0.0000  0.0002  0.0000  0.0005  0.0000  0.1952  0.0000  0.5805  0.0000 </r>
       </set>
       <set comment="band 3">
        <r>  0.0000  0.0267  0.0000  0.0795  0.0000  0.0084  0.0000  0.0249  0.0000 </r>
        <r>  0.0000  0.0005  0.0000  0.0002  0.0000  0.5805  0.0000  0.1952  0.0000 </r>
       </set>
       <set comment="band 4">
        <r>  0.0000  0.0000  0.0000  0.0000  0.6864  0.0000  0.0000  0.0000  0.0000 </r>
        <r>  0.0111  0.0000  0.1356  0.0000  0.0000  0.0000  0.0647  0.0000  0.0000 </r>
       </set>
       <set comment="band 5">
        <r>  0.0000  0.0006  0.0000  0.0126  0.0000  0.0334  0.0000  0.6810  0.0000 </r>
        <r>  0.0000  0.1431  0.0000  0.0070  0.0000  0.0173  0.0000  0.0009  0.0000 </r>
       </set>
       <set comment="band 6">
        <r>  0.0000  0.0126  0.0000  0.0006  0.0000  0.6810  0.0000  0.0334  0.0000 </r>
        <r>  0.0000  0.0070  0.0000  0.1431  0.0000  0.0009  0.0000  0.0173  0.0000 </r>
       </set>
       <set comment="band 7">
        <r>  0.0000  0.0000  0.0000  0.0000  0.0000  0.0000  0.0000  0.0000  0.0000 </r>
        <r>  0.0000  0.0000  0.0000  0.0000  0.0000  0.0000  0.0000  0.0000  0.9858 </r>
       </set>
       <set comment="band 8">
        <r>  0.0000  0.0000  0.0000  0.0000  0.0629  0.0000  0.0000  0.0000  0.0000 </r>
        <r>  0.0005  0.0000  0.0046  0.0000  0.0000  0.0000  0.9170  0.0000  0.0000 </r>
       </set>
       <set comment="band 9">
        <r>  0.0000  0.0000  0.0002  0.0000  0.0000  0.0000  0.9680  0.0000  0.0000 </r>
        <r>  0.0000  0.0000  0.0000  0.0000  0.0167  0.0000  0.0000  0.0000  0.0000 </r>
       </set>
       <set comment="band 10">
        <r>  0.0000  0.0000  0.0000  0.0000  0.0000  0.0000  0.0000  0.0000  0.9865 </r>
        <r>  0.0000  0.0000  0.0000  0.0000  0.0000  0.0000  0.0000  0.0000  0.0000 </r>
       </set>
       <set comment="band 11">
        <r>  0.0000  0.0910  0.0000  0.1253  0.0000  0.0897  0.0000  0.1235  0.0000 </r>
        <r>  0.0000  0.1039  0.0000  0.0755  0.0000  0.1267  0.0000  0.0920  0.0000 </r>
       </set>
       <set comment="band 12">
        <r>  0.0000  0.1253  0.0000  0.0910  0.0000  0.1235  0.0000  0.0897  0.0000 </r>
        <r>  0.0000  0.0755  0.0000  0.1039  0.0000  0.0920  0.0000  0.1267  0.0000 </r>
       </set>
      </set>
      <set comment="kpoint 120">
       <set comment="band 1">
        <r>  0.0000  0.0108  0.0841  0.0223  0.0000  0.0000  0.0000  0.0000  0.0000 </r>
        <r>  0.0000  0.0000  0.0000  0.0000  0.5707  0.1513  0.0000  0.0729  0.0000 </r>
       </set>
       <set comment="band 2">
        <r>  0.0000  0.0884  0.0013  0.0276  0.0000  0.0000  0.0000  0.0000  0.0000 </r>
        <r>  0.0000  0.0000  0.0000  0.0000  0.0087  0.1869  0.0000  0.5994  0.0000 </r>
       </set>
       <set comment="band 3">
        <r>  0.0000  0.0181  0.0318  0.0673  0.0000  0.0000  0.0000  0.0000  0.0000 </r>
        <r>  0.0000  0.0000  0.0000  0.0000  0.2156  0.4567  0.0000  0.1227  0.0000 </r>
       </set>
       <set comment="band 4">
        <r>  0.0000  0.0000  0.0000  0.0000  0.0108  0.2141  0.0000  0.5258  0.0000 </r>
        <r>  0.0000  0.1042  0.0021  0.0424  0.0000  0.0000  0.0000  0.0000  0.0000 </r>
       </set>
       <set comment="band 5">
        <r>  0.0000  0.0000  0.0000  0.0000  0.3460  0.2556  0.0000  0.1490  0.0000 </r>
        <r>  0.0000  0.0295  0.0686  0.0507  0.0000  0.0000  0.0000  0.0000  0.0000 </r>
       </set>
       <set comment="band 6">
        <r>  0.0000  0.0000  0.0000  0.0000  0.3939  0.2810  0.0000  0.0758  0.0000 </r>
        <r>  0.0000  0.0150  0.0781  0.0557  0.0000  0.0000  0.0000  0.0000  0.0000 </r>
       </set>
       <set comment="band 7">
        <r>  0.0000  0.0000  0.0000  0.0000  0.0000  0.0000  0.0000  0.0000  0.0000 </r>
        <r>  0.0000  0.0000  0.0000  0.0000  0.0000  0.0000  0.5160  0.0000  0.4698 </r>
       </set>
       <set comment="band 8">
        <r>  0.0000  0.0000  0.0000  0.0000  0.0000  0.0000  0.0000  0.0000  0.0000 </r>
        <r>  0.0000  0.0000  0.0000  0.0000  0.0000  0.0000  0.4698  0.0000  0.5160 </r>
       </set>
       <set comment="band 9">
        <r>  0.0000  0.0000  0.0000  0.0000  0.0000  0.0000  0.5438  0.0000  0.4427 </r>
        <r>  0.0000  0.0000  0.0000  0.0000  0.0000  0.0000  0.0000  0.0000  0.0000 </r>
       </set>
       <set comment="band 10">
        <r>  0.0000  0.0000  0.0000  0.0000  0.0000  0.0000  0.4427  0.0000  0.5438 </r>
        <r>  0.0000  0.0000  0.0000  0.0000  0.0000  0.0000  0.0000  0.0000  0.0000 </r>
       </set>
       <set comment="band 11">
        <r>  0.0000  0.2023  0.1363  0.0608  0.0000  0.0000  0.0000  0.0000  0.0000 </r>
        <r>  0.0000  0.0000  0.0000  0.0000  0.1421  0.0633  0.0000  0.2109  0.0000 </r>
       </set>
       <set comment="band 12">
        <r>  0.0000  0.0733  0.2304  0.0958  0.0000  0.0000  0.0000  0.0000  0.0000 </r>
        <r>  0.0000  0.0000  0.0000  0.0000  0.2402  0.0998  0.0000  0.0764  0.0000 </r>
       </set>
      </set>
     </set>
    </set>
   </array>
  </projected>
 </calculation>
 <structure name="finalpos" >
  <crystal>
   <varray name="basis" >
    <v>       2.82900888       0.00000000       0.00000000 </v>
    <v>       0.00000000       2.82900888       0.00000000 </v>
    <v>       0.00000000       0.00000000       2.82900888 </v>
   </varray>
   <i name="volume">     22.64138204 </i>
   <varray name="rec_basis" >
    <v>       0.35348069       0.00000000       0.00000000 </v>
    <v>       0.00000000       0.35348069       0.00000000 </v>
    <v>       0.00000000       0.00000000       0.35348069 </v>
   </varray>
  </crystal>
  <varray name="positions" >
   <v>       0.00000000       0.00000000       0.00000000 </v>
   <v>       0.50000000       0.50000000       0.50000000 </v>
  </varray>
 </structure>
</modeling>
