  36  36   1   0
  0.1314651E+02  0.8250148E-09  0.8250148E-09  0.6953274E-09  0.2000000E-15
  1.000000000000000E-004
  CAR 
 AlMn_pv                                 
     13.35817394     -4.55136722  301      7.73063888      1.00000000
     -4.551  0.0000E+00  0.0000E+00  0.0000E+00  0.0000E+00
     -4.492  0.0000E+00  0.0000E+00  0.0000E+00  0.0000E+00
     -4.432  0.0000E+00  0.0000E+00  0.0000E+00  0.0000E+00
     -4.372  0.0000E+00  0.0000E+00  0.0000E+00  0.0000E+00
     -4.313  0.0000E+00  0.0000E+00  0.0000E+00  0.0000E+00
     -4.253  0.0000E+00  0.0000E+00  0.0000E+00  0.0000E+00
     -4.193 -0.1400E-29  0.0000E+00 -0.8359E-31  0.0000E+00
     -4.133 -0.1645E-27 -0.1386E-29 -0.9902E-29 -0.8276E-31
     -4.074 -0.1634E-25 -0.1629E-27 -0.9855E-27 -0.9807E-29
     -4.014 -0.1351E-23 -0.1619E-25 -0.8164E-25 -0.9766E-27
     -3.954 -0.9332E-22 -0.1339E-23 -0.5653E-23 -0.8094E-25
     -3.895 -0.5385E-20 -0.9256E-22 -0.3272E-21 -0.5606E-23
     -3.835 -0.2596E-18 -0.5344E-20 -0.1583E-19 -0.3246E-21
     -3.775 -0.1046E-16 -0.2577E-18 -0.6400E-18 -0.1571E-19
     -3.716 -0.3394E-15 -0.1038E-16 -0.2090E-16 -0.6356E-18
     -3.656 -0.9584E-14 -0.3372E-15 -0.5931E-15 -0.2076E-16
     -3.596 -0.2239E-12 -0.9527E-14 -0.1396E-13 -0.5895E-15
     -3.536 -0.4375E-11 -0.2227E-12 -0.2751E-12 -0.1389E-13
     -3.477 -0.7140E-10 -0.4355E-11 -0.4538E-11 -0.2738E-12
     -3.417 -0.9737E-09 -0.7112E-10 -0.6267E-10 -0.4520E-11
     -3.357 -0.1110E-07 -0.9706E-09 -0.7252E-09 -0.6246E-10
     -3.298 -0.1058E-06 -0.1107E-07 -0.7040E-08 -0.7234E-09
     -3.238 -0.8436E-06 -0.1056E-06 -0.5740E-07 -0.7029E-08
     -3.178 -0.5633E-05 -0.8431E-06 -0.3937E-06 -0.5736E-07
     -3.119 -0.3149E-04 -0.5634E-05 -0.2274E-05 -0.3937E-06
     -3.059 -0.1474E-03 -0.3154E-04 -0.1108E-04 -0.2276E-05
     -2.999 -0.5771E-03 -0.1478E-03 -0.4553E-04 -0.1110E-04
     -2.940 -0.1880E-02 -0.5790E-03 -0.1578E-03 -0.4566E-04
     -2.880 -0.5050E-02 -0.1888E-02 -0.4592E-03 -0.1584E-03
     -2.820 -0.1094E-01 -0.5075E-02 -0.1112E-02 -0.4614E-03
     -2.760 -0.1805E-01 -0.1100E-01 -0.2190E-02 -0.1118E-02
     -2.701 -0.1868E-01 -0.1816E-01 -0.3305E-02 -0.2202E-02
     -2.641  0.3829E-02 -0.1880E-01 -0.3076E-02 -0.3324E-02
     -2.581  0.7047E-01  0.3848E-02  0.1130E-02 -0.3095E-02
     -2.522  0.1911E+00  0.7085E-01  0.1254E-01  0.1135E-02
     -2.462  0.3475E+00  0.1920E+00  0.3329E-01  0.1260E-01
     -2.402  0.4964E+00  0.3490E+00  0.6292E-01  0.3343E-01
     -2.343  0.6046E+00  0.4984E+00  0.9902E-01  0.6319E-01
     -2.283  0.6895E+00  0.6077E+00  0.1402E+00  0.9946E-01
     -2.223  0.8104E+00  0.6946E+00  0.1886E+00  0.1409E+00
     -2.163  0.9972E+00  0.8182E+00  0.2481E+00  0.1898E+00
     -2.104  0.1186E+01  0.1006E+01  0.3189E+00  0.2498E+00
     -2.044  0.1259E+01  0.1192E+01  0.3941E+00  0.3210E+00
     -1.984  0.1173E+01  0.1260E+01  0.4641E+00  0.3962E+00
     -1.925  0.1037E+01  0.1172E+01  0.5260E+00  0.4662E+00
     -1.865  0.1029E+01  0.1041E+01  0.5875E+00  0.5284E+00
     -1.805  0.1225E+01  0.1042E+01  0.6606E+00  0.5906E+00
     -1.746  0.1522E+01  0.1244E+01  0.7514E+00  0.6649E+00
     -1.686  0.1737E+01  0.1539E+01  0.8551E+00  0.7567E+00
     -1.626  0.1769E+01  0.1745E+01  0.9608E+00  0.8609E+00
     -1.566  0.1678E+01  0.1769E+01  0.1061E+01  0.9665E+00
     -1.507  0.1620E+01  0.1678E+01  0.1158E+01  0.1067E+01
     -1.447  0.1694E+01  0.1628E+01  0.1259E+01  0.1164E+01
     -1.387  0.1830E+01  0.1706E+01  0.1368E+01  0.1266E+01
     -1.328  0.1853E+01  0.1834E+01  0.1479E+01  0.1375E+01
     -1.268  0.1701E+01  0.1850E+01  0.1580E+01  0.1486E+01
     -1.208  0.1538E+01  0.1705E+01  0.1672E+01  0.1587E+01
     -1.149  0.1604E+01  0.1562E+01  0.1768E+01  0.1681E+01
     -1.089  0.1945E+01  0.1639E+01  0.1884E+01  0.1779E+01
     -1.029  0.2359E+01  0.1968E+01  0.2025E+01  0.1896E+01
     -0.969  0.2615E+01  0.2359E+01  0.2181E+01  0.2037E+01
     -0.910  0.2664E+01  0.2602E+01  0.2340E+01  0.2192E+01
     -0.850  0.2613E+01  0.2650E+01  0.2496E+01  0.2350E+01
     -0.790  0.2540E+01  0.2595E+01  0.2647E+01  0.2505E+01
     -0.731  0.2401E+01  0.2508E+01  0.2791E+01  0.2655E+01
     -0.671  0.2149E+01  0.2372E+01  0.2919E+01  0.2797E+01
     -0.611  0.1880E+01  0.2162E+01  0.3031E+01  0.2926E+01
     -0.552  0.1807E+01  0.1959E+01  0.3139E+01  0.3043E+01
     -0.492  0.2063E+01  0.1925E+01  0.3262E+01  0.3158E+01
     -0.432  0.2558E+01  0.2153E+01  0.3415E+01  0.3286E+01
     -0.372  0.3053E+01  0.2572E+01  0.3597E+01  0.3440E+01
     -0.313  0.3356E+01  0.3009E+01  0.3798E+01  0.3619E+01
     -0.253  0.3439E+01  0.3316E+01  0.4003E+01  0.3817E+01
     -0.193  0.3391E+01  0.3439E+01  0.4205E+01  0.4022E+01
     -0.134  0.3306E+01  0.3410E+01  0.4403E+01  0.4226E+01
     -0.074  0.3216E+01  0.3308E+01  0.4595E+01  0.4424E+01
     -0.014  0.3124E+01  0.3214E+01  0.4781E+01  0.4615E+01
      0.045  0.3056E+01  0.3160E+01  0.4964E+01  0.4804E+01
      0.105  0.3072E+01  0.3126E+01  0.5147E+01  0.4991E+01
      0.165  0.3206E+01  0.3097E+01  0.5339E+01  0.5176E+01
      0.225  0.3406E+01  0.3106E+01  0.5542E+01  0.5361E+01
      0.284  0.3547E+01  0.3202E+01  0.5754E+01  0.5552E+01
      0.344  0.3509E+01  0.3350E+01  0.5963E+01  0.5752E+01
      0.404  0.3287E+01  0.3412E+01  0.6159E+01  0.5956E+01
      0.463  0.3028E+01  0.3272E+01  0.6340E+01  0.6151E+01
      0.523  0.2944E+01  0.3002E+01  0.6516E+01  0.6330E+01
      0.583  0.3132E+01  0.2838E+01  0.6703E+01  0.6500E+01
      0.642  0.3493E+01  0.2956E+01  0.6911E+01  0.6676E+01
      0.702  0.3836E+01  0.3297E+01  0.7140E+01  0.6873E+01
      0.762  0.4045E+01  0.3650E+01  0.7382E+01  0.7091E+01
      0.821  0.4108E+01  0.3870E+01  0.7627E+01  0.7322E+01
      0.881  0.4027E+01  0.3950E+01  0.7867E+01  0.7558E+01
      0.941  0.3814E+01  0.3912E+01  0.8095E+01  0.7791E+01
      1.001  0.3566E+01  0.3746E+01  0.8308E+01  0.8015E+01
      1.060  0.3435E+01  0.3493E+01  0.8513E+01  0.8224E+01
      1.120  0.3476E+01  0.3296E+01  0.8721E+01  0.8420E+01
      1.180  0.3580E+01  0.3273E+01  0.8934E+01  0.8616E+01
      1.239  0.3629E+01  0.3365E+01  0.9151E+01  0.8817E+01
      1.299  0.3637E+01  0.3410E+01  0.9368E+01  0.9020E+01
      1.359  0.3664E+01  0.3355E+01  0.9587E+01  0.9221E+01
      1.418  0.3677E+01  0.3311E+01  0.9806E+01  0.9418E+01
      1.478  0.3619E+01  0.3365E+01  0.1002E+02  0.9619E+01
      1.538  0.3597E+01  0.3444E+01  0.1024E+02  0.9825E+01
      1.598  0.3843E+01  0.3443E+01  0.1047E+02  0.1003E+02
      1.657  0.4435E+01  0.3426E+01  0.1073E+02  0.1023E+02
      1.717  0.5134E+01  0.3600E+01  0.1104E+02  0.1045E+02
      1.777  0.5560E+01  0.4075E+01  0.1137E+02  0.1069E+02
      1.836  0.5526E+01  0.4695E+01  0.1170E+02  0.1097E+02
      1.896  0.5181E+01  0.5133E+01  0.1201E+02  0.1128E+02
      1.956  0.4851E+01  0.5168E+01  0.1230E+02  0.1159E+02
      2.015  0.4812E+01  0.4865E+01  0.1259E+02  0.1188E+02
      2.075  0.5146E+01  0.4488E+01  0.1289E+02  0.1215E+02
      2.135  0.5717E+01  0.4263E+01  0.1323E+02  0.1240E+02
      2.195  0.6211E+01  0.4262E+01  0.1361E+02  0.1266E+02
      2.254  0.6298E+01  0.4456E+01  0.1398E+02  0.1292E+02
      2.314  0.5871E+01  0.4778E+01  0.1433E+02  0.1321E+02
      2.374  0.5148E+01  0.5103E+01  0.1464E+02  0.1351E+02
      2.433  0.4527E+01  0.5270E+01  0.1491E+02  0.1383E+02
      2.493  0.4317E+01  0.5191E+01  0.1517E+02  0.1414E+02
      2.553  0.4568E+01  0.4937E+01  0.1544E+02  0.1443E+02
      2.612  0.5082E+01  0.4690E+01  0.1574E+02  0.1471E+02
      2.672  0.5580E+01  0.4610E+01  0.1608E+02  0.1499E+02
      2.732  0.5897E+01  0.4721E+01  0.1643E+02  0.1527E+02
      2.792  0.6045E+01  0.4923E+01  0.1679E+02  0.1556E+02
      2.851  0.6130E+01  0.5096E+01  0.1715E+02  0.1587E+02
      2.911  0.6254E+01  0.5209E+01  0.1753E+02  0.1618E+02
      2.971  0.6447E+01  0.5300E+01  0.1791E+02  0.1649E+02
      3.030  0.6615E+01  0.5375E+01  0.1831E+02  0.1681E+02
      3.090  0.6594E+01  0.5383E+01  0.1870E+02  0.1714E+02
      3.150  0.6324E+01  0.5326E+01  0.1908E+02  0.1745E+02
      3.209  0.5942E+01  0.5286E+01  0.1943E+02  0.1777E+02
      3.269  0.5624E+01  0.5308E+01  0.1977E+02  0.1809E+02
      3.329  0.5410E+01  0.5326E+01  0.2009E+02  0.1840E+02
      3.389  0.5230E+01  0.5257E+01  0.2040E+02  0.1872E+02
      3.448  0.5097E+01  0.5101E+01  0.2071E+02  0.1902E+02
      3.508  0.5168E+01  0.4914E+01  0.2102E+02  0.1932E+02
      3.568  0.5588E+01  0.4741E+01  0.2135E+02  0.1960E+02
      3.627  0.6304E+01  0.4635E+01  0.2173E+02  0.1988E+02
      3.687  0.7053E+01  0.4711E+01  0.2215E+02  0.2016E+02
      3.747  0.7575E+01  0.5103E+01  0.2260E+02  0.2046E+02
      3.806  0.7864E+01  0.5798E+01  0.2307E+02  0.2081E+02
      3.866  0.8230E+01  0.6545E+01  0.2356E+02  0.2120E+02
      3.926  0.9110E+01  0.7003E+01  0.2411E+02  0.2162E+02
      3.986  0.1075E+02  0.7031E+01  0.2475E+02  0.2204E+02
      4.045  0.1297E+02  0.6813E+01  0.2552E+02  0.2244E+02
      4.105  0.1520E+02  0.6653E+01  0.2643E+02  0.2284E+02
      4.165  0.1681E+02  0.6698E+01  0.2743E+02  0.2324E+02
      4.224  0.1742E+02  0.6909E+01  0.2847E+02  0.2365E+02
      4.284  0.1718E+02  0.7249E+01  0.2950E+02  0.2408E+02
      4.344  0.1655E+02  0.7786E+01  0.3049E+02  0.2455E+02
      4.403  0.1601E+02  0.8563E+01  0.3144E+02  0.2506E+02
      4.463  0.1577E+02  0.9474E+01  0.3238E+02  0.2563E+02
      4.523  0.1573E+02  0.1032E+02  0.3332E+02  0.2624E+02
      4.582  0.1570E+02  0.1097E+02  0.3426E+02  0.2690E+02
      4.642  0.1562E+02  0.1148E+02  0.3519E+02  0.2758E+02
      4.702  0.1567E+02  0.1196E+02  0.3613E+02  0.2830E+02
      4.762  0.1610E+02  0.1255E+02  0.3709E+02  0.2905E+02
      4.821  0.1699E+02  0.1327E+02  0.3810E+02  0.2984E+02
      4.881  0.1823E+02  0.1403E+02  0.3919E+02  0.3068E+02
      4.941  0.1966E+02  0.1460E+02  0.4037E+02  0.3155E+02
      5.000  0.2115E+02  0.1481E+02  0.4163E+02  0.3243E+02
      5.060  0.2267E+02  0.1458E+02  0.4298E+02  0.3330E+02
      5.120  0.2415E+02  0.1400E+02  0.4442E+02  0.3414E+02
      5.179  0.2530E+02  0.1326E+02  0.4593E+02  0.3493E+02
      5.239  0.2567E+02  0.1262E+02  0.4747E+02  0.3568E+02
      5.299  0.2501E+02  0.1239E+02  0.4896E+02  0.3642E+02
      5.359  0.2356E+02  0.1280E+02  0.5037E+02  0.3719E+02
      5.418  0.2202E+02  0.1390E+02  0.5168E+02  0.3802E+02
      5.478  0.2113E+02  0.1550E+02  0.5294E+02  0.3894E+02
      5.538  0.2135E+02  0.1724E+02  0.5422E+02  0.3997E+02
      5.597  0.2251E+02  0.1870E+02  0.5556E+02  0.4109E+02
      5.657  0.2398E+02  0.1954E+02  0.5699E+02  0.4225E+02
      5.717  0.2498E+02  0.1963E+02  0.5848E+02  0.4342E+02
      5.776  0.2499E+02  0.1908E+02  0.5997E+02  0.4456E+02
      5.836  0.2397E+02  0.1824E+02  0.6141E+02  0.4565E+02
      5.896  0.2236E+02  0.1740E+02  0.6274E+02  0.4669E+02
      5.956  0.2093E+02  0.1668E+02  0.6399E+02  0.4769E+02
      6.015  0.2033E+02  0.1603E+02  0.6520E+02  0.4864E+02
      6.075  0.2082E+02  0.1541E+02  0.6645E+02  0.4956E+02
      6.135  0.2228E+02  0.1485E+02  0.6778E+02  0.5045E+02
      6.194  0.2450E+02  0.1450E+02  0.6924E+02  0.5132E+02
      6.254  0.2726E+02  0.1449E+02  0.7087E+02  0.5218E+02
      6.314  0.3014E+02  0.1492E+02  0.7267E+02  0.5307E+02
      6.373  0.3256E+02  0.1572E+02  0.7461E+02  0.5401E+02
      6.433  0.3403E+02  0.1661E+02  0.7664E+02  0.5500E+02
      6.493  0.3437E+02  0.1716E+02  0.7869E+02  0.5603E+02
      6.553  0.3377E+02  0.1707E+02  0.8071E+02  0.5705E+02
      6.612  0.3252E+02  0.1643E+02  0.8265E+02  0.5803E+02
      6.672  0.3080E+02  0.1581E+02  0.8449E+02  0.5897E+02
      6.732  0.2879E+02  0.1581E+02  0.8621E+02  0.5991E+02
      6.791  0.2664E+02  0.1663E+02  0.8780E+02  0.6091E+02
      6.851  0.2443E+02  0.1791E+02  0.8926E+02  0.6198E+02
      6.911  0.2202E+02  0.1902E+02  0.9057E+02  0.6311E+02
      6.970  0.1935E+02  0.1944E+02  0.9173E+02  0.6427E+02
      7.030  0.1669E+02  0.1906E+02  0.9272E+02  0.6541E+02
      7.090  0.1456E+02  0.1813E+02  0.9359E+02  0.6649E+02
      7.150  0.1320E+02  0.1716E+02  0.9438E+02  0.6752E+02
      7.209  0.1249E+02  0.1671E+02  0.9513E+02  0.6851E+02
      7.269  0.1214E+02  0.1710E+02  0.9585E+02  0.6953E+02
      7.329  0.1219E+02  0.1822E+02  0.9658E+02  0.7062E+02
      7.388  0.1287E+02  0.1948E+02  0.9735E+02  0.7178E+02
      7.448  0.1423E+02  0.2015E+02  0.9820E+02  0.7299E+02
      7.508  0.1567E+02  0.1978E+02  0.9913E+02  0.7417E+02
      7.567  0.1624E+02  0.1843E+02  0.1001E+03  0.7527E+02
      7.627  0.1540E+02  0.1647E+02  0.1010E+03  0.7625E+02
      7.687  0.1350E+02  0.1431E+02  0.1018E+03  0.7711E+02
      7.747  0.1153E+02  0.1240E+02  0.1025E+03  0.7785E+02
      7.806  0.1034E+02  0.1129E+02  0.1031E+03  0.7852E+02
      7.866  0.1018E+02  0.1148E+02  0.1037E+03  0.7921E+02
      7.926  0.1065E+02  0.1310E+02  0.1044E+03  0.7999E+02
      7.985  0.1112E+02  0.1568E+02  0.1050E+03  0.8092E+02
      8.045  0.1116E+02  0.1829E+02  0.1057E+03  0.8202E+02
      8.105  0.1077E+02  0.2008E+02  0.1063E+03  0.8321E+02
      8.164  0.1025E+02  0.2085E+02  0.1070E+03  0.8446E+02
      8.224  0.9936E+01  0.2105E+02  0.1076E+03  0.8572E+02
      8.284  0.9893E+01  0.2129E+02  0.1081E+03  0.8699E+02
      8.344  0.9968E+01  0.2172E+02  0.1087E+03  0.8828E+02
      8.403  0.1009E+02  0.2202E+02  0.1093E+03  0.8960E+02
      8.463  0.1045E+02  0.2194E+02  0.1100E+03  0.9091E+02
      8.523  0.1120E+02  0.2171E+02  0.1106E+03  0.9220E+02
      8.582  0.1209E+02  0.2184E+02  0.1114E+03  0.9351E+02
      8.642  0.1254E+02  0.2263E+02  0.1121E+03  0.9486E+02
      8.702  0.1213E+02  0.2397E+02  0.1128E+03  0.9629E+02
      8.761  0.1095E+02  0.2546E+02  0.1135E+03  0.9781E+02
      8.821  0.9547E+01  0.2664E+02  0.1141E+03  0.9940E+02
      8.881  0.8475E+01  0.2699E+02  0.1146E+03  0.1010E+03
      8.940  0.8001E+01  0.2624E+02  0.1150E+03  0.1026E+03
      9.000  0.8053E+01  0.2455E+02  0.1155E+03  0.1040E+03
      9.060  0.8388E+01  0.2242E+02  0.1160E+03  0.1054E+03
      9.120  0.8789E+01  0.2028E+02  0.1165E+03  0.1066E+03
      9.179  0.9169E+01  0.1820E+02  0.1171E+03  0.1077E+03
      9.239  0.9543E+01  0.1612E+02  0.1177E+03  0.1086E+03
      9.299  0.9933E+01  0.1416E+02  0.1183E+03  0.1095E+03
      9.358  0.1033E+02  0.1265E+02  0.1189E+03  0.1102E+03
      9.418  0.1065E+02  0.1186E+02  0.1195E+03  0.1109E+03
      9.478  0.1073E+02  0.1179E+02  0.1201E+03  0.1117E+03
      9.537  0.1033E+02  0.1207E+02  0.1208E+03  0.1124E+03
      9.597  0.9315E+01  0.1224E+02  0.1213E+03  0.1131E+03
      9.657  0.7831E+01  0.1196E+02  0.1218E+03  0.1138E+03
      9.717  0.6273E+01  0.1121E+02  0.1222E+03  0.1145E+03
      9.776  0.4997E+01  0.1025E+02  0.1225E+03  0.1151E+03
      9.836  0.4141E+01  0.9517E+01  0.1227E+03  0.1157E+03
      9.896  0.3638E+01  0.9333E+01  0.1229E+03  0.1162E+03
      9.955  0.3306E+01  0.9734E+01  0.1231E+03  0.1168E+03
     10.015  0.2950E+01  0.1041E+02  0.1233E+03  0.1174E+03
     10.075  0.2462E+01  0.1100E+02  0.1234E+03  0.1181E+03
     10.134  0.1886E+01  0.1137E+02  0.1236E+03  0.1188E+03
     10.194  0.1363E+01  0.1165E+02  0.1236E+03  0.1195E+03
     10.254  0.1002E+01  0.1188E+02  0.1237E+03  0.1202E+03
     10.314  0.8188E+00  0.1173E+02  0.1237E+03  0.1209E+03
     10.373  0.7526E+00  0.1085E+02  0.1238E+03  0.1215E+03
     10.433  0.7129E+00  0.9210E+01  0.1238E+03  0.1221E+03
     10.493  0.6240E+00  0.7176E+01  0.1239E+03  0.1225E+03
     10.552  0.4617E+00  0.5245E+01  0.1239E+03  0.1228E+03
     10.612  0.2658E+00  0.3748E+01  0.1239E+03  0.1230E+03
     10.672  0.1123E+00  0.2755E+01  0.1239E+03  0.1232E+03
     10.731  0.6092E-01  0.2139E+01  0.1239E+03  0.1233E+03
     10.791  0.1158E+00  0.1720E+01  0.1239E+03  0.1234E+03
     10.851  0.2224E+00  0.1395E+01  0.1239E+03  0.1235E+03
     10.911  0.3006E+00  0.1174E+01  0.1240E+03  0.1236E+03
     10.970  0.2967E+00  0.1115E+01  0.1240E+03  0.1236E+03
     11.030  0.2167E+00  0.1196E+01  0.1240E+03  0.1237E+03
     11.090  0.1112E+00  0.1284E+01  0.1240E+03  0.1238E+03
     11.149  0.3042E-01  0.1224E+01  0.1240E+03  0.1239E+03
     11.209 -0.8133E-02  0.9749E+00  0.1240E+03  0.1239E+03
     11.269 -0.1571E-01  0.6382E+00  0.1240E+03  0.1240E+03
     11.328 -0.1088E-01  0.3509E+00  0.1240E+03  0.1240E+03
     11.388 -0.5141E-02  0.1740E+00  0.1240E+03  0.1240E+03
     11.448 -0.1855E-02  0.8367E-01  0.1240E+03  0.1240E+03
     11.508 -0.5319E-03  0.3468E-01  0.1240E+03  0.1240E+03
     11.567 -0.1236E-03  0.4582E-02  0.1240E+03  0.1240E+03
     11.627 -0.2351E-04 -0.1017E-01  0.1240E+03  0.1240E+03
     11.687 -0.3686E-05 -0.1233E-01  0.1240E+03  0.1240E+03
     11.746 -0.4781E-06 -0.8424E-02  0.1240E+03  0.1240E+03
     11.806 -0.5146E-07 -0.4129E-02  0.1240E+03  0.1240E+03
     11.866 -0.4603E-08 -0.1554E-02  0.1240E+03  0.1240E+03
     11.925 -0.3427E-09 -0.4632E-03  0.1240E+03  0.1240E+03
     11.985 -0.2126E-10 -0.1111E-03  0.1240E+03  0.1240E+03
     12.045 -0.1099E-11 -0.2169E-04  0.1240E+03  0.1240E+03
     12.105 -0.4731E-13 -0.3467E-05  0.1240E+03  0.1240E+03
     12.164 -0.1736E-14 -0.4561E-06  0.1240E+03  0.1240E+03
     12.224 -0.9918E-16 -0.4953E-07  0.1240E+03  0.1240E+03
     12.284  0.0000E+00 -0.4454E-08  0.1240E+03  0.1240E+03
     12.343  0.0000E+00 -0.3321E-09  0.1240E+03  0.1240E+03
     12.403  0.0000E+00 -0.2057E-10  0.1240E+03  0.1240E+03
     12.463  0.0000E+00 -0.1060E-11  0.1240E+03  0.1240E+03
     12.522  0.0000E+00 -0.4548E-13  0.1240E+03  0.1240E+03
     12.582  0.0000E+00 -0.1686E-14  0.1240E+03  0.1240E+03
     12.642  0.0000E+00  0.0000E+00  0.1240E+03  0.1240E+03
     12.701  0.0000E+00  0.0000E+00  0.1240E+03  0.1240E+03
     12.761  0.0000E+00  0.0000E+00  0.1240E+03  0.1240E+03
     12.821  0.0000E+00  0.0000E+00  0.1240E+03  0.1240E+03
     12.881  0.0000E+00  0.0000E+00  0.1240E+03  0.1240E+03
     12.940  0.0000E+00  0.0000E+00  0.1240E+03  0.1240E+03
     13.000  0.0000E+00  0.0000E+00  0.1240E+03  0.1240E+03
     13.060  0.0000E+00  0.0000E+00  0.1240E+03  0.1240E+03
     13.119  0.0000E+00  0.0000E+00  0.1240E+03  0.1240E+03
     13.179  0.0000E+00  0.0000E+00  0.1240E+03  0.1240E+03
     13.239  0.0000E+00  0.0000E+00  0.1240E+03  0.1240E+03
     13.298  0.0000E+00  0.0000E+00  0.1240E+03  0.1240E+03
     13.358  0.0000E+00  0.0000E+00  0.1240E+03  0.1240E+03
     13.35817394     -4.55136722  301      7.73063888      1.00000000
     -4.551  0.0000E+00  0.0000E+00  0.0000E+00  0.0000E+00  0.0000E+00  0.0000E+00
     -4.492  0.0000E+00  0.0000E+00  0.0000E+00  0.0000E+00  0.0000E+00  0.0000E+00
     -4.432  0.0000E+00  0.0000E+00  0.0000E+00  0.0000E+00  0.0000E+00  0.0000E+00
     -4.372  0.0000E+00  0.0000E+00  0.0000E+00  0.0000E+00  0.0000E+00  0.0000E+00
     -4.313  0.0000E+00  0.0000E+00  0.0000E+00  0.0000E+00  0.0000E+00  0.0000E+00
     -4.253  0.0000E+00  0.0000E+00  0.0000E+00  0.0000E+00  0.0000E+00  0.0000E+00
     -4.193 -0.1569E-31  0.0000E+00 -0.6754E-46  0.0000E+00  0.0000E+00  0.0000E+00
     -4.133 -0.1843E-29 -0.1576E-31 -0.7933E-44 -0.9021E-49  0.0000E+00  0.0000E+00
     -4.074 -0.1831E-27 -0.1852E-29 -0.6076E-32 -0.1060E-46  0.0000E+00  0.0000E+00
     -4.014 -0.1514E-25 -0.1841E-27 -0.6550E-30 -0.6183E-32  0.0000E+00  0.0000E+00
     -3.954 -0.1046E-23 -0.1523E-25 -0.5930E-28 -0.6662E-30  0.0000E+00  0.0000E+00
     -3.895 -0.6034E-22 -0.1052E-23 -0.4485E-26 -0.6029E-28  0.0000E+00  0.0000E+00
     -3.835 -0.2909E-20 -0.6075E-22 -0.2834E-24 -0.4558E-26  0.0000E+00  0.0000E+00
     -3.775 -0.1171E-18 -0.2930E-20 -0.1495E-22 -0.2878E-24  0.0000E+00  0.0000E+00
     -3.716 -0.3802E-17 -0.1181E-18 -0.6589E-21 -0.1518E-22  0.0000E+00  0.0000E+00
     -3.656 -0.1074E-15 -0.3833E-17 -0.2424E-19 -0.6686E-21  0.0000E+00  0.0000E+00
     -3.596 -0.2508E-14 -0.1083E-15 -0.7215E-18 -0.2459E-19  0.0000E+00  0.0000E+00
     -3.536 -0.4900E-13 -0.2531E-14 -0.1845E-16 -0.7319E-18  0.0000E+00  0.0000E+00
     -3.477 -0.7997E-12 -0.4949E-13 -0.3935E-15 -0.1871E-16  0.0000E+00  0.0000E+00
     -3.417 -0.1090E-10 -0.8082E-12 -0.6998E-14 -0.3988E-15  0.0000E+00  0.0000E+00
     -3.357 -0.1243E-09 -0.1103E-10 -0.1038E-12 -0.7090E-14  0.0000E+00  0.0000E+00
     -3.298 -0.1184E-08 -0.1258E-09 -0.1283E-11 -0.1051E-12  0.0000E+00  0.0000E+00
     -3.238 -0.9442E-08 -0.1200E-08 -0.1323E-10 -0.1300E-11  0.0000E+00  0.0000E+00
     -3.178 -0.6302E-07 -0.9572E-08 -0.1136E-09 -0.1340E-10  0.0000E+00  0.0000E+00
     -3.119 -0.3522E-06 -0.6395E-07 -0.8128E-09 -0.1151E-09  0.0000E+00  0.0000E+00
     -3.059 -0.1648E-05 -0.3577E-06 -0.4839E-08 -0.8234E-09  0.0000E+00  0.0000E+00
     -2.999 -0.6447E-05 -0.1675E-05 -0.2393E-07 -0.4903E-08  0.0000E+00  0.0000E+00
     -2.940 -0.2099E-04 -0.6559E-05 -0.9809E-07 -0.2426E-07  0.0000E+00  0.0000E+00
     -2.880 -0.5632E-04 -0.2137E-04 -0.3313E-06 -0.9946E-07  0.0000E+00  0.0000E+00
     -2.820 -0.1218E-03 -0.5737E-04 -0.9126E-06 -0.3360E-06  0.0000E+00  0.0000E+00
     -2.760 -0.2006E-03 -0.1241E-03 -0.2006E-05 -0.9258E-06  0.0000E+00  0.0000E+00
     -2.701 -0.2066E-03 -0.2044E-03 -0.3342E-05 -0.2035E-05  0.0000E+00  0.0000E+00
     -2.641  0.4589E-04 -0.2102E-03 -0.3580E-05 -0.3392E-05  0.0000E+00  0.0000E+00
     -2.581  0.7899E-03  0.4773E-04 -0.1079E-06 -0.3636E-05  0.0000E+00  0.0000E+00
     -2.522  0.2134E-02  0.8066E-03  0.9727E-05 -0.1272E-06  0.0000E+00  0.0000E+00
     -2.462  0.3874E-02  0.2176E-02  0.2637E-04  0.9807E-05  0.0000E+00  0.0000E+00
     -2.402  0.5524E-02  0.3945E-02  0.4793E-04  0.2661E-04  0.0000E+00  0.0000E+00
     -2.343  0.6714E-02  0.5622E-02  0.7511E-04  0.4842E-04  0.0000E+00  0.0000E+00
     -2.283  0.7628E-02  0.6834E-02  0.1174E-03  0.7619E-04  0.0000E+00  0.0000E+00
     -2.223  0.8919E-02  0.7768E-02  0.1888E-03  0.1198E-03  0.0000E+00  0.0000E+00
     -2.163  0.1092E-01  0.9073E-02  0.2886E-03  0.1932E-03  0.0000E+00  0.0000E+00
     -2.104  0.1295E-01  0.1107E-01  0.3858E-03  0.2950E-03  0.0000E+00  0.0000E+00
     -2.044  0.1372E-01  0.1305E-01  0.4370E-03  0.3933E-03  0.0000E+00  0.0000E+00
     -1.984  0.1275E-01  0.1374E-01  0.4334E-03  0.4444E-03  0.0000E+00  0.0000E+00
     -1.925  0.1123E-01  0.1273E-01  0.4287E-03  0.4412E-03  0.0000E+00  0.0000E+00
     -1.865  0.1108E-01  0.1124E-01  0.5009E-03  0.4384E-03  0.0000E+00  0.0000E+00
     -1.805  0.1314E-01  0.1120E-01  0.6777E-03  0.5129E-03  0.0000E+00  0.0000E+00
     -1.746  0.1631E-01  0.1338E-01  0.9015E-03  0.6884E-03  0.0000E+00  0.0000E+00
     -1.686  0.1861E-01  0.1662E-01  0.1074E-02  0.9054E-03  0.0000E+00  0.0000E+00
     -1.626  0.1893E-01  0.1891E-01  0.1144E-02  0.1071E-02  0.0000E+00  0.0000E+00
     -1.566  0.1789E-01  0.1913E-01  0.1153E-02  0.1143E-02  0.0000E+00  0.0000E+00
     -1.507  0.1718E-01  0.1793E-01  0.1202E-02  0.1171E-02  0.0000E+00  0.0000E+00
     -1.447  0.1789E-01  0.1705E-01  0.1351E-02  0.1248E-02  0.0000E+00  0.0000E+00
     -1.387  0.1929E-01  0.1767E-01  0.1525E-02  0.1408E-02  0.0000E+00  0.0000E+00
     -1.328  0.1955E-01  0.1920E-01  0.1580E-02  0.1560E-02  0.0000E+00  0.0000E+00
     -1.268  0.1795E-01  0.1979E-01  0.1480E-02  0.1573E-02  0.0000E+00  0.0000E+00
     -1.208  0.1620E-01  0.1856E-01  0.1397E-02  0.1447E-02  0.0000E+00  0.0000E+00
     -1.149  0.1680E-01  0.1692E-01  0.1563E-02  0.1374E-02  0.0000E+00  0.0000E+00
     -1.089  0.2030E-01  0.1737E-01  0.2011E-02  0.1560E-02  0.0000E+00  0.0000E+00
     -1.029  0.2460E-01  0.2080E-01  0.2530E-02  0.1998E-02  0.0000E+00  0.0000E+00
     -0.969  0.2726E-01  0.2556E-01  0.2878E-02  0.2467E-02  0.0000E+00  0.0000E+00
     -0.910  0.2770E-01  0.2910E-01  0.3014E-02  0.2762E-02  0.0000E+00  0.0000E+00
     -0.850  0.2704E-01  0.3021E-01  0.3061E-02  0.2875E-02  0.0000E+00  0.0000E+00
     -0.790  0.2619E-01  0.2944E-01  0.3090E-02  0.2934E-02  0.0000E+00  0.0000E+00
     -0.731  0.2486E-01  0.2789E-01  0.3011E-02  0.2997E-02  0.0000E+00  0.0000E+00
     -0.671  0.2257E-01  0.2602E-01  0.2728E-02  0.2970E-02  0.0000E+00  0.0000E+00
     -0.611  0.2020E-01  0.2388E-01  0.2358E-02  0.2754E-02  0.0000E+00  0.0000E+00
     -0.552  0.1973E-01  0.2202E-01  0.2221E-02  0.2443E-02  0.0000E+00  0.0000E+00
     -0.492  0.2234E-01  0.2175E-01  0.2574E-02  0.2313E-02  0.0000E+00  0.0000E+00
     -0.432  0.2707E-01  0.2402E-01  0.3366E-02  0.2585E-02  0.0000E+00  0.0000E+00
     -0.372  0.3162E-01  0.2849E-01  0.4275E-02  0.3233E-02  0.0000E+00  0.0000E+00
     -0.313  0.3427E-01  0.3362E-01  0.4950E-02  0.4012E-02  0.0000E+00  0.0000E+00
     -0.253  0.3494E-01  0.3770E-01  0.5252E-02  0.4640E-02  0.0000E+00  0.0000E+00
     -0.193  0.3460E-01  0.3969E-01  0.5277E-02  0.4956E-02  0.0000E+00  0.0000E+00
     -0.134  0.3408E-01  0.3956E-01  0.5203E-02  0.4989E-02  0.0000E+00  0.0000E+00
     -0.074  0.3345E-01  0.3816E-01  0.5114E-02  0.4903E-02  0.0000E+00  0.0000E+00
     -0.014  0.3249E-01  0.3666E-01  0.4992E-02  0.4840E-02  0.0000E+00  0.0000E+00
      0.045  0.3153E-01  0.3581E-01  0.4849E-02  0.4807E-02  0.0000E+00  0.0000E+00
      0.105  0.3141E-01  0.3572E-01  0.4828E-02  0.4728E-02  0.0000E+00  0.0000E+00
      0.165  0.3266E-01  0.3613E-01  0.5101E-02  0.4633E-02  0.0000E+00  0.0000E+00
      0.225  0.3473E-01  0.3697E-01  0.5647E-02  0.4717E-02  0.0000E+00  0.0000E+00
      0.284  0.3626E-01  0.3825E-01  0.6170E-02  0.5142E-02  0.0000E+00  0.0000E+00
      0.344  0.3606E-01  0.3947E-01  0.6321E-02  0.5773E-02  0.0000E+00  0.0000E+00
      0.404  0.3396E-01  0.3936E-01  0.6030E-02  0.6210E-02  0.0000E+00  0.0000E+00
      0.463  0.3119E-01  0.3691E-01  0.5637E-02  0.6163E-02  0.0000E+00  0.0000E+00
      0.523  0.2992E-01  0.3296E-01  0.5622E-02  0.5805E-02  0.0000E+00  0.0000E+00
      0.583  0.3167E-01  0.3007E-01  0.6173E-02  0.5671E-02  0.0000E+00  0.0000E+00
      0.642  0.3593E-01  0.3032E-01  0.7040E-02  0.6140E-02  0.0000E+00  0.0000E+00
      0.702  0.4049E-01  0.3335E-01  0.7840E-02  0.7066E-02  0.0000E+00  0.0000E+00
      0.762  0.4325E-01  0.3708E-01  0.8404E-02  0.7992E-02  0.0000E+00  0.0000E+00
      0.821  0.4345E-01  0.3977E-01  0.8746E-02  0.8628E-02  0.0000E+00  0.0000E+00
      0.881  0.4150E-01  0.4094E-01  0.8822E-02  0.8989E-02  0.0000E+00  0.0000E+00
      0.941  0.3842E-01  0.4053E-01  0.8543E-02  0.9128E-02  0.0000E+00  0.0000E+00
      1.001  0.3570E-01  0.3837E-01  0.8048E-02  0.8973E-02  0.0000E+00  0.0000E+00
      1.060  0.3482E-01  0.3504E-01  0.7709E-02  0.8557E-02  0.0000E+00  0.0000E+00
      1.120  0.3585E-01  0.3236E-01  0.7750E-02  0.8196E-02  0.0000E+00  0.0000E+00
      1.180  0.3730E-01  0.3193E-01  0.8013E-02  0.8206E-02  0.0000E+00  0.0000E+00
      1.239  0.3784E-01  0.3330E-01  0.8243E-02  0.8502E-02  0.0000E+00  0.0000E+00
      1.299  0.3770E-01  0.3448E-01  0.8414E-02  0.8698E-02  0.0000E+00  0.0000E+00
      1.359  0.3766E-01  0.3426E-01  0.8612E-02  0.8648E-02  0.0000E+00  0.0000E+00
      1.418  0.3740E-01  0.3331E-01  0.8773E-02  0.8636E-02  0.0000E+00  0.0000E+00
      1.478  0.3628E-01  0.3250E-01  0.8862E-02  0.8949E-02  0.0000E+00  0.0000E+00
      1.538  0.3516E-01  0.3151E-01  0.9238E-02  0.9476E-02  0.0000E+00  0.0000E+00
      1.598  0.3595E-01  0.2985E-01  0.1048E-01  0.9948E-02  0.0000E+00  0.0000E+00
      1.657  0.3917E-01  0.2854E-01  0.1269E-01  0.1040E-01  0.0000E+00  0.0000E+00
      1.717  0.4276E-01  0.2969E-01  0.1510E-01  0.1117E-01  0.0000E+00  0.0000E+00
      1.777  0.4396E-01  0.3421E-01  0.1660E-01  0.1242E-01  0.0000E+00  0.0000E+00
      1.836  0.4205E-01  0.4044E-01  0.1660E-01  0.1381E-01  0.0000E+00  0.0000E+00
      1.896  0.3890E-01  0.4522E-01  0.1548E-01  0.1463E-01  0.0000E+00  0.0000E+00
      1.956  0.3717E-01  0.4640E-01  0.1416E-01  0.1443E-01  0.0000E+00  0.0000E+00
      2.015  0.3835E-01  0.4446E-01  0.1349E-01  0.1342E-01  0.0000E+00  0.0000E+00
      2.075  0.4228E-01  0.4150E-01  0.1383E-01  0.1228E-01  0.0000E+00  0.0000E+00
      2.135  0.4738E-01  0.3929E-01  0.1488E-01  0.1165E-01  0.0000E+00  0.0000E+00
      2.195  0.5118E-01  0.3834E-01  0.1582E-01  0.1172E-01  0.0000E+00  0.0000E+00
      2.254  0.5129E-01  0.3865E-01  0.1579E-01  0.1236E-01  0.0000E+00  0.0000E+00
      2.314  0.4700E-01  0.4026E-01  0.1459E-01  0.1327E-01  0.0000E+00  0.0000E+00
      2.374  0.3990E-01  0.4289E-01  0.1293E-01  0.1394E-01  0.0000E+00  0.0000E+00
      2.433  0.3307E-01  0.4562E-01  0.1194E-01  0.1389E-01  0.0000E+00  0.0000E+00
      2.493  0.2925E-01  0.4723E-01  0.1226E-01  0.1302E-01  0.0000E+00  0.0000E+00
      2.553  0.2941E-01  0.4691E-01  0.1374E-01  0.1188E-01  0.0000E+00  0.0000E+00
      2.612  0.3230E-01  0.4483E-01  0.1571E-01  0.1138E-01  0.0000E+00  0.0000E+00
      2.672  0.3552E-01  0.4205E-01  0.1749E-01  0.1204E-01  0.0000E+00  0.0000E+00
      2.732  0.3719E-01  0.3982E-01  0.1880E-01  0.1367E-01  0.0000E+00  0.0000E+00
      2.792  0.3702E-01  0.3853E-01  0.1962E-01  0.1557E-01  0.0000E+00  0.0000E+00
      2.851  0.3578E-01  0.3754E-01  0.2019E-01  0.1711E-01  0.0000E+00  0.0000E+00
      2.911  0.3427E-01  0.3626E-01  0.2092E-01  0.1817E-01  0.0000E+00  0.0000E+00
      2.971  0.3278E-01  0.3474E-01  0.2202E-01  0.1905E-01  0.0000E+00  0.0000E+00
      3.030  0.3108E-01  0.3324E-01  0.2305E-01  0.1986E-01  0.0000E+00  0.0000E+00
      3.090  0.2879E-01  0.3154E-01  0.2311E-01  0.2039E-01  0.0000E+00  0.0000E+00
      3.150  0.2575E-01  0.2943E-01  0.2195E-01  0.2057E-01  0.0000E+00  0.0000E+00
      3.209  0.2227E-01  0.2738E-01  0.2051E-01  0.2071E-01  0.0000E+00  0.0000E+00
      3.269  0.1882E-01  0.2623E-01  0.1994E-01  0.2112E-01  0.0000E+00  0.0000E+00
      3.329  0.1564E-01  0.2610E-01  0.2043E-01  0.2169E-01  0.0000E+00  0.0000E+00
      3.389  0.1276E-01  0.2614E-01  0.2136E-01  0.2205E-01  0.0000E+00  0.0000E+00
      3.448  0.1036E-01  0.2515E-01  0.2237E-01  0.2199E-01  0.0000E+00  0.0000E+00
      3.508  0.8926E-02  0.2275E-01  0.2382E-01  0.2154E-01  0.0000E+00  0.0000E+00
      3.568  0.9017E-02  0.1981E-01  0.2614E-01  0.2087E-01  0.0000E+00  0.0000E+00
      3.627  0.1064E-01  0.1781E-01  0.2910E-01  0.2030E-01  0.0000E+00  0.0000E+00