   36   36    1    2
  0.1314651E+02  0.8250148E-09  0.8250148E-09  0.6953274E-09  0.2000000E-15
  1.000000000000000E-004
  CAR 
 AlMn_pv                                 
    180     36    124
 
  0.0000000E+00  0.0000000E+00  0.0000000E+00  0.6666667E-02
    1       -2.551367     -2.491546   1.000000   1.000000
    2       -0.382070     -0.358453   1.000000   1.000000
    3       -0.379849     -0.302944   1.000000   1.000000
    4       -0.368367     -0.283512   1.000000   1.000000
    5       -0.355267     -0.278372   1.000000   1.000000
    6       -0.117668     -0.136335   1.000000   1.000000
    7        1.296081      1.436264   1.000000   1.000000
    8        1.299261      1.437896   1.000000   1.000000
    9        1.334474      1.455163   1.000000   1.000000
   10        1.350277      1.463512   1.000000   1.000000
   11        1.360981      1.494925   1.000000   1.000000
   12        1.489198      1.624930   1.000000   1.000000
   13        1.514126      1.630882   1.000000   1.000000
   14        1.564489      1.662532   1.000000   1.000000
   15        1.565127      1.684177   1.000000   1.000000
   16        2.632702      2.874699   1.000000   1.000000
   17        2.639813      2.887745   1.000000   1.000000
   18        2.667560      2.974798   1.000000   1.000000
   19        2.695226      2.979994   1.000000   1.000000
   20        3.430576      3.575785   1.000000   1.000000
   21        3.432599      3.678435   1.000000   1.000000
   22        3.455510      3.698072   1.000000   1.000000
   23        3.487365      3.716954   1.000000   1.000000
   24        3.969096      4.443819   1.000000   1.000000
   25        4.041453      4.482737   1.000000   1.000000
   26        4.138257      4.546579   1.000000   1.000000
   27        4.195838      4.732150   1.000000   1.000000
   28        4.438721      4.778738   1.000000   1.000000
   29        4.478851      4.802729   1.000000   1.000000
   30        4.483546      4.830873   1.000000   1.000000
   31        4.492962      4.910549   1.000000   1.000000
   32        4.494600      5.098743   1.000000   1.000000
   33        4.505303      5.109165   1.000000   1.000000
   34        4.514583      5.139512   1.000000   1.000000
   35        4.601552      5.174336   1.000000   1.000000
   36        4.621503      5.292852   1.000000   1.000000
   37        4.639357      5.433815   1.000000   1.000000
   38        4.653595      5.452253   1.000000   1.000000
   39        4.704366      5.588814   1.000000   1.000000
   40        4.746021      5.618394   1.000000   1.000000
   41        5.121080      5.625388   1.000000   1.000000
   42        5.191679      5.663656   1.000000   1.000000
   43        5.217614      5.805347   1.000000   1.000000
   44        5.219407      5.840696   1.000000   1.000000
   45        5.236614      5.847086   1.000000   1.000000
   46        5.237949      5.850928   1.000000   1.000000
   47        5.261231      5.955751   1.000000   1.000000
   48        5.262330      5.968809   1.000000   1.000000
   49        5.277748      6.155515   1.000000   1.000000
   50        5.288746      6.209399   1.000000   1.000000
   51        5.332078      6.215453   1.000000   1.000000
   52        5.334835      6.251504   1.000000   1.000000
   53        5.345047      6.299698   1.000000   1.000000
   54        5.454415      6.324507   1.000000   1.000000
   55        5.550085      6.387084   1.000000   1.000000
   56        5.557484      6.474970   1.000000   1.000000
   57        5.654131      6.526694   1.000000   1.000000
   58        5.711832      6.533451   1.000000   1.000000
   59        5.733221      6.600059   1.000000   1.000000
   60        5.764036      6.624437   1.000000   1.000000
   61        5.831516      6.695757   1.000000   1.000000
   62        5.833458      6.745819   1.000000   1.000000
   63        5.867685      6.801867   1.000000   1.000000
   64        5.889100      6.853632   1.000000   1.000000
   65        5.924316      6.912779   1.000000   1.000000
   66        5.947708      6.951287   1.000000   1.000000
   67        6.031383      6.962926   1.000000   1.000000
   68        6.107080      6.969259   1.000000   1.000001
   69        6.162506      6.995908   1.000000   1.000001
   70        6.292471      7.145141   1.000000   1.000139
   71        6.299367      7.229991   1.000000   1.001140
   72        6.303872      7.386263   1.000000   1.017596
   73        6.349559      7.539138   1.000000   1.020166
   74        6.361268      7.574766   1.000000   0.984643
   75        6.379383      7.718831   1.000000   0.550135
   76        6.420390      7.820307   1.000000   0.159789
   77        6.439118      7.880443   1.000000   0.024259
   78        6.458884      7.897313   1.000000   0.001945
   79        6.632445      7.899199   1.000000  -0.000126
   80        6.667683      8.018159   1.000000  -0.030329
   81        6.694938      8.124909   1.000000  -0.008771
   82        6.704308      8.138626   1.000000  -0.007022
   83        6.726101      8.181539   1.000000  -0.003234
   84        6.731659      8.216821   1.000000  -0.001570
   85        6.743061      8.242729   1.000000  -0.000881
   86        6.762667      8.366669   1.000000  -0.000033
   87        6.787499      8.385487   1.000000  -0.000019
   88        6.882204      8.399432   1.000000  -0.000012
   89        6.883671      8.405834   1.000000  -0.000010
   90        6.906447      8.439597   1.000000  -0.000003
   91        7.104627      8.476710   1.000044  -0.000001
   92        7.178392      8.499281   1.000333  -0.000000
   93        7.183503      8.530622   1.000379  -0.000000
   94        7.198425      8.598219   1.000547  -0.000000
   95        7.235100      8.655617   1.001279  -0.000000
   96        7.274630      8.733687   1.002924  -0.000000
   97        7.294285      8.847251   1.004255  -0.000000
   98        7.332501      8.878702   1.008238  -0.000000
   99        7.354849      8.894198   1.011586  -0.000000
  100        7.382785      8.905695   1.016873  -0.000000
  101        7.445497      8.914413   1.030796  -0.000000
  102        7.548971      8.932009   1.012768  -0.000000
  103        7.554510      8.969019   1.007849  -0.000000
  104        7.585842      8.992897   0.967891  -0.000000
  105        7.637205      9.017395   0.851336  -0.000000
  106        8.026911      9.020033  -0.028466  -0.000000
  107        8.084840      9.032233  -0.015560  -0.000000
  108        8.108525      9.061299  -0.011230  -0.000000
  109        8.152375      9.062074  -0.005534  -0.000000
  110        8.153623      9.073368  -0.005414  -0.000000
  111        8.314102      9.077902  -0.000147  -0.000000
  112        8.450586      9.086543  -0.000002  -0.000000
  113        8.504317      9.092581  -0.000000  -0.000000
  114        8.610921      9.129078  -0.000000  -0.000000
  115        8.745567      9.144459  -0.000000  -0.000000
  116        8.761599      9.213651  -0.000000  -0.000000
  117        8.798251      9.705538  -0.000000  -0.000000
  118        8.823385      9.725582  -0.000000  -0.000000
  119        9.204182      9.847658  -0.000000  -0.000000
  120        9.357577      9.896330  -0.000000  -0.000000
  121        9.358092     10.058029  -0.000000  -0.000000
  122        9.402519     10.225269  -0.000000  -0.000000
  123        9.771741     10.343963  -0.000000  -0.000000
  124        9.800072     10.465917  -0.000000  -0.000000
 
  0.2000000E+00  0.0000000E+00  0.0000000E+00  0.2666667E-01
    1       -2.460806     -2.401051   1.000000   1.000000
    2       -1.135779     -1.074910   1.000000   1.000000
    3       -0.291809     -0.234982   1.000000   1.000000
    4       -0.286162     -0.210302   1.000000   1.000000
    5       -0.053573     -0.068617   1.000000   1.000000
    6        0.528140      0.602969   1.000000   1.000000
    7        0.852766      0.907625   1.000000   1.000000
    8        0.883180      0.968781   1.000000   1.000000
    9        0.892190      0.985798   1.000000   1.000000
   10        1.384653      1.510830   1.000000   1.000000
   11        1.396303      1.515178   1.000000   1.000000
   12        1.408033      1.595997   1.000000   1.000000
   13        1.826308      2.033022   1.000000   1.000000
   14        2.225098      2.403728   1.000000   1.000000
   15        2.225329      2.408269   1.000000   1.000000
   16        2.242417      2.434250   1.000000   1.000000
   17        2.245273      2.436791   1.000000   1.000000
   18        2.738304      2.935840   1.000000   1.000000
   19        3.082766      3.444423   1.000000   1.000000
   20        3.087359      3.466810   1.000000   1.000000
   21        3.508879      3.717627   1.000000   1.000000
   22        3.524280      3.752380   1.000000   1.000000
   23        3.662579      3.841275   1.000000   1.000000
   24        3.950288      4.364034   1.000000   1.000000
   25        4.014210      4.384766   1.000000   1.000000
   26        4.114106      4.464304   1.000000   1.000000
   27        4.161325      4.556268   1.000000   1.000000
   28        4.193463      4.800109   1.000000   1.000000
   29        4.323946      4.821372   1.000000   1.000000
   30        4.345309      4.881649   1.000000   1.000000
   31        4.357439      4.924576   1.000000   1.000000
   32        4.409299      4.967150   1.000000   1.000000
   33        4.513127      4.995605   1.000000   1.000000
   34        4.527129      5.012141   1.000000   1.000000
   35        4.611416      5.113271   1.000000   1.000000
   36        4.733667      5.191012   1.000000   1.000000
   37        4.745458      5.376864   1.000000   1.000000
   38        4.769348      5.480706   1.000000   1.000000
   39        4.775740      5.497928   1.000000   1.000000
   40        4.852643      5.522005   1.000000   1.000000
   41        4.910816      5.562033   1.000000   1.000000
   42        5.102051      5.601587   1.000000   1.000000
   43        5.139556      5.649277   1.000000   1.000000
   44        5.180979      5.853334   1.000000   1.000000
   45        5.182381      5.910314   1.000000   1.000000
   46        5.207164      5.920043   1.000000   1.000000
   47        5.267554      6.002508   1.000000   1.000000
   48        5.301083      6.070040   1.000000   1.000000
   49        5.348532      6.131856   1.000000   1.000000
   50        5.358992      6.209267   1.000000   1.000000
   51        5.389779      6.243496   1.000000   1.000000
   52        5.407116      6.318516   1.000000   1.000000
   53        5.416492      6.357381   1.000000   1.000000
   54        5.484338      6.392940   1.000000   1.000000
   55        5.538395      6.428402   1.000000   1.000000
   56        5.617674      6.428929   1.000000   1.000000
   57        5.663425      6.473761   1.000000   1.000000
   58        5.667923      6.582033   1.000000   1.000000
   59        5.726344      6.610078   1.000000   1.000000
   60        5.803602      6.685070   1.000000   1.000000
   61        5.812712      6.687233   1.000000   1.000000
   62        5.861696      6.803308   1.000000   1.000000
   63        5.865443      6.804688   1.000000   1.000000
   64        5.910313      6.826304   1.000000   1.000000
   65        5.912602      6.904578   1.000000   1.000000
   66        6.040556      6.955686   1.000000   1.000000
   67        6.068437      7.000888   1.000000   1.000002
   68        6.136489      7.064781   1.000000   1.000013
   69        6.144711      7.071355   1.000000   1.000016
   70        6.235457      7.161574   1.000000   1.000216
   71        6.250669      7.301658   1.000000   1.004864
   72        6.300110      7.391866   1.000000   1.018807
   73        6.308831      7.549916   1.000000   1.012053
   74        6.337690      7.555270   1.000000   1.007226
   75        6.362250      7.634341   1.000000   0.859879
   76        6.400088      7.640905   1.000000   0.840770
   77        6.444612      7.667952   1.000000   0.751563
   78        6.469464      7.890834   1.000000   0.009786
   79        6.540399      7.968287   1.000000  -0.035238
   80        6.573290      8.061791   1.000000  -0.020527
   81        6.635712      8.084039   1.000000  -0.015745
   82        6.666153      8.148510   1.000000  -0.005934
   83        6.709908      8.178715   1.000000  -0.003414
   84        6.712766      8.197374   1.000000  -0.002360
   85        6.721209      8.244893   1.000000  -0.000838
   86        6.731602      8.255892   1.000000  -0.000647
   87        6.752619      8.332020   1.000000  -0.000090
   88        6.815325      8.370601   1.000000  -0.000029
   89        6.865130      8.379385   1.000000  -0.000022
   90        6.896827      8.397191   1.000000  -0.000013
   91        6.912633      8.429884   1.000000  -0.000004
   92        6.986787      8.524632   1.000001  -0.000000
   93        7.040342      8.551611   1.000006  -0.000000
   94        7.046228      8.585600   1.000007  -0.000000
   95        7.091833      8.683451   1.000030  -0.000000
   96        7.261609      8.696800   1.002250  -0.000000
   97        7.335322      8.832583   1.008621  -0.000000
   98        7.415055      8.851443   1.024089  -0.000000
   99        7.455842      8.900339   1.032680  -0.000000
  100        7.490575      8.900883   1.035361  -0.000000
  101        7.543138      8.910268   1.017335  -0.000000
  102        7.567266      8.913622   0.994165  -0.000000
  103        7.651947      8.959207   0.805890  -0.000000
  104        7.836596      8.973644   0.113957  -0.000000
  105        7.996202      9.010740  -0.034036  -0.000000
  106        8.027408      9.047759  -0.028362  -0.000000
  107        8.028179      9.055075  -0.028182  -0.000000
  108        8.062437      9.078354  -0.020351  -0.000000
  109        8.106400      9.122126  -0.011585  -0.000000
  110        8.177088      9.140432  -0.003515  -0.000000
  111        8.290565      9.200239  -0.000274  -0.000000
  112        8.521438      9.212580  -0.000000  -0.000000
  113        8.603882      9.214560  -0.000000  -0.000000
  114        8.611320      9.232938  -0.000000  -0.000000
  115        8.688113      9.289991  -0.000000  -0.000000
  116        8.885688      9.469751  -0.000000  -0.000000
  117        8.977124      9.660440  -0.000000  -0.000000
  118        9.085275      9.689081  -0.000000  -0.000000
  119        9.091553      9.825417  -0.000000  -0.000000
  120        9.185638      9.877760  -0.000000  -0.000000
  121        9.406220     10.163558  -0.000000  -0.000000
  122        9.482637     10.250868  -0.000000  -0.000000
  123        9.733941     10.340907  -0.000000  -0.000000
  124        9.885626     10.495083  -0.000000  -0.000000
 
  0.4000000E+00  0.0000000E+00  0.0000000E+00  0.2666667E-01
    1       -2.190777     -2.131159   1.000000   1.000000
    2       -1.746283     -1.686248   1.000000   1.000000
    3       -0.047910      0.012612   1.000000   1.000000
    4       -0.041573      0.035560   1.000000   1.000000
    5        0.136122      0.132692   1.000000   1.000000
    6        0.349758      0.417848   1.000000   1.000000
    7        0.356912      0.440848   1.000000   1.000000
    8        0.443941      0.461963   1.000000   1.000000
    9        1.528795      1.628707   1.000000   1.000000
   10        1.562302      1.702985   1.000000   1.000000
   11        1.584645      1.705382   1.000000   1.000000
   12        1.677588      1.875773   1.000000   1.000000
   13        1.850142      2.018423   1.000000   1.000000
   14        1.873659      2.021479   1.000000   1.000000
   15        2.132489      2.330026   1.000000   1.000000
   16        2.188427      2.519310   1.000000   1.000000
   17        2.634393      2.734818   1.000000   1.000000
   18        2.833618      3.104150   1.000000   1.000000
   19        2.873250      3.153801   1.000000   1.000000
   20        3.407859      3.878143   1.000000   1.000000
   21        3.419883      3.906757   1.000000   1.000000
   22        3.680217      3.931529   1.000000   1.000000
   23        3.686494      3.938874   1.000000   1.000000
   24        3.868598      4.180673   1.000000   1.000000
   25        3.903963      4.187148   1.000000   1.000000
   26        3.999514      4.318755   1.000000   1.000000
   27        4.005457      4.379144   1.000000   1.000000
   28        4.105269      4.574592   1.000000   1.000000
   29        4.120150      4.626886   1.000000   1.000000
   30        4.149874      4.680401   1.000000   1.000000
   31        4.171334      4.755280   1.000000   1.000000
   32        4.509255      4.861469   1.000000   1.000000
   33        4.569934      4.885820   1.000000   1.000000
   34        4.575025      4.994055   1.000000   1.000000
   35        4.643386      5.113679   1.000000   1.000000
   36        4.698728      5.260173   1.000000   1.000000
   37        4.773902      5.318925   1.000000   1.000000
   38        4.851058      5.458907   1.000000   1.000000
   39        4.863386      5.514731   1.000000   1.000000
   40        4.912939      5.517695   1.000000   1.000000
   41        4.932917      5.563154   1.000000   1.000000
   42        4.996218      5.625179   1.000000   1.000000
   43        5.094942      5.660128   1.000000   1.000000
   44        5.172539      5.813115   1.000000   1.000000
   45        5.175603      5.889805   1.000000   1.000000
   46        5.192950      5.926577   1.000000   1.000000
   47        5.295682      5.971934   1.000000   1.000000
   48        5.386328      6.063383   1.000000   1.000000
   49        5.402797      6.130810   1.000000   1.000000
   50        5.411894      6.202848   1.000000   1.000000
   51        5.415270      6.219114   1.000000   1.000000
   52        5.446754      6.304615   1.000000   1.000000
   53        5.468909      6.310851   1.000000   1.000000
   54        5.478015      6.339486   1.000000   1.000000
   55        5.480681      6.401594   1.000000   1.000000
   56        5.568786      6.427930   1.000000   1.000000
   57        5.595514      6.490299   1.000000   1.000000
   58        5.621325      6.556621   1.000000   1.000000
   59        5.686480      6.611538   1.000000   1.000000
   60        5.827448      6.708018   1.000000   1.000000
   61        5.840911      6.730760   1.000000   1.000000
   62        5.872963      6.898922   1.000000   1.000000
   63        5.902905      6.923477   1.000000   1.000000
   64        5.972081      6.971266   1.000000   1.000001
   65        6.050107      7.005954   1.000000   1.000002
   66        6.052591      7.008921   1.000000   1.000002
   67        6.077783      7.086805   1.000000   1.000026
   68        6.123868      7.092662   1.000000   1.000031
   69        6.151255      7.222131   1.000000   1.000955
   70        6.166096      7.237714   1.000000   1.001353
   71        6.210917      7.308615   1.000000   1.005508
   72        6.225294      7.333188   1.000000   1.008325
   73        6.284253      7.388675   1.000000   1.018111
   74        6.292994      7.510842   1.000000   1.032593
   75        6.335744      7.522088   1.000000   1.029030
   76        6.349848      7.621322   1.000000   0.894695
   77        6.392177      7.646750   1.000000   0.822870
   78        6.462736      7.913034   1.000000  -0.013380
   79        6.464905      7.959151   1.000000  -0.034289
   80        6.509148      8.023583   1.000000  -0.029205
   81        6.583000      8.051489   1.000000  -0.022885
   82        6.611702      8.080244   1.000000  -0.016517
   83        6.674914      8.119492   1.000000  -0.009542
   84        6.703965      8.176975   1.000000  -0.003530
   85        6.715287      8.222069   1.000000  -0.001401
   86        6.715476      8.236439   1.000000  -0.001018
   87        6.718373      8.263796   1.000000  -0.000535
   88        6.758325      8.276958   1.000000  -0.000387
   89        6.853321      8.310692   1.000000  -0.000162
   90        6.856546      8.370593   1.000000  -0.000029
   91        6.872641      8.401605   1.000000  -0.000011
   92        6.893099      8.544156   1.000000  -0.000000
   93        6.920523      8.609715   1.000000  -0.000000
   94        6.925237      8.616890   1.000000  -0.000000
   95        6.938515      8.642752   1.000000  -0.000000
   96        7.268990      8.666794   1.002614  -0.000000
   97        7.379431      8.725122   1.016185  -0.000000
   98        7.422881      8.764697   1.025905  -0.000000
   99        7.488674      8.772387   1.035422  -0.000000
  100        7.498320      8.825627   1.034785  -0.000000
  101        7.499827      8.851992   1.034610  -0.000000
  102        7.575703      8.886844   0.983196  -0.000000
  103        7.682120      8.897809   0.698488  -0.000000
  104        7.909845      8.930679  -0.010770  -0.000000
  105        7.950003      9.008440  -0.032497  -0.000000
  106        7.955112      9.044364  -0.033615  -0.000000
  107        7.977348      9.071454  -0.035446  -0.000000
  108        8.172301      9.125246  -0.003850  -0.000000
  109        8.223453      9.173554  -0.001356  -0.000000
  110        8.317312      9.219243  -0.000135  -0.000000
  111        8.366669      9.239319  -0.000033  -0.000000
  112        8.602998      9.344329  -0.000000  -0.000000
  113        8.650364      9.360092  -0.000000  -0.000000
  114        8.669674      9.555478  -0.000000  -0.000000
  115        8.788786      9.580085  -0.000000  -0.000000
  116        9.003140      9.823670  -0.000000  -0.000000
  117        9.097027      9.877509  -0.000000  -0.000000
  118        9.374074      9.974962  -0.000000  -0.000000
  119        9.490685     10.000304  -0.000000  -0.000000
  120        9.523862     10.118195  -0.000000  -0.000000
  121        9.571934     10.243039  -0.000000  -0.000000
  122        9.651600     10.306455  -0.000000  -0.000000
  123        9.762459     10.377163  -0.000000  -0.000000
  124        9.948247     10.799900  -0.000000  -0.000000
 
  0.2000000E+00  0.2000000E+00  0.0000000E+00  0.1333333E-01
    1       -2.370524     -2.310797   1.000000   1.000000
    2       -1.058832     -1.013704   1.000000   1.000000
    3       -1.041303     -0.962359   1.000000   1.000000
    4        0.010444     -0.001022   1.000000   1.000000
    5        0.187790      0.262371   1.000000   1.000000
    6        0.596364      0.657785   1.000000   1.000000
    7        0.617472      0.708031   1.000000   1.000000
    8        0.888483      0.967384   1.000000   1.000000
    9        0.943280      0.980475   1.000000   1.000000
   10        1.489253      1.683240   1.000000   1.000000
   11        1.660216      1.788985   1.000000   1.000000
   12        1.719967      1.828983   1.000000   1.000000
   13        1.777091      1.911059   1.000000   1.000000
   14        1.877565      2.080437   1.000000   1.000000
   15        1.900085      2.124714   1.000000   1.000000
   16        2.677382      2.951762   1.000000   1.000000
   17        2.708596      2.969121   1.000000   1.000000
   18        2.750998      3.032241   1.000000   1.000000
   19        2.801464      3.040135   1.000000   1.000000
   20        2.832425      3.068515   1.000000   1.000000
   21        3.459673      3.890332   1.000000   1.000000
   22        3.692730      3.895959   1.000000   1.000000
   23        3.695703      3.917092   1.000000   1.000000
   24        3.747813      4.017279   1.000000   1.000000
   25        3.996828      4.426516   1.000000   1.000000
   26        4.100906      4.474968   1.000000   1.000000
   27        4.108005      4.536290   1.000000   1.000000
   28        4.221325      4.549875   1.000000   1.000000
   29        4.234415      4.760876   1.000000   1.000000
   30        4.256916      4.808055   1.000000   1.000000
   31        4.339145      4.881723   1.000000   1.000000
   32        4.350888      4.961458   1.000000   1.000000
   33        4.440382      4.985692   1.000000   1.000000
   34        4.495661      5.022173   1.000000   1.000000
   35        4.542532      5.077028   1.000000   1.000000
   36        4.658027      5.163685   1.000000   1.000000
   37        4.790182      5.240453   1.000000   1.000000
   38        4.811078      5.327315   1.000000   1.000000
   39        4.890871      5.386680   1.000000   1.000000
   40        4.918383      5.419929   1.000000   1.000000
   41        4.963195      5.607511   1.000000   1.000000
   42        4.985077      5.704892   1.000000   1.000000
   43        5.127668      5.761370   1.000000   1.000000
   44        5.156498      5.803435   1.000000   1.000000
   45        5.198565      5.992614   1.000000   1.000000
   46        5.243087      6.019345   1.000000   1.000000
   47        5.250901      6.057709   1.000000   1.000000
   48        5.361187      6.073141   1.000000   1.000000
   49        5.388270      6.129730   1.000000   1.000000
   50        5.400999      6.282138   1.000000   1.000000
   51        5.437435      6.283135   1.000000   1.000000
   52        5.442012      6.317079   1.000000   1.000000
   53        5.466057      6.436979   1.000000   1.000000
   54        5.483047      6.437520   1.000000   1.000000
   55        5.592985      6.448437   1.000000   1.000000
   56        5.622023      6.480459   1.000000   1.000000
   57        5.654288      6.488181   1.000000   1.000000
   58        5.657486      6.563472   1.000000   1.000000
   59        5.686404      6.564364   1.000000   1.000000
   60        5.745794      6.673710   1.000000   1.000000
   61        5.800205      6.748273   1.000000   1.000000
   62        5.814462      6.754985   1.000000   1.000000
   63        5.934324      6.822393   1.000000   1.000000
   64        5.945471      6.878778   1.000000   1.000000
   65        6.025023      7.013644   1.000000   1.000002
   66        6.048070      7.014795   1.000000   1.000003
   67        6.049678      7.027575   1.000000   1.000004
   68        6.081800      7.056288   1.000000   1.000010
   69        6.172351      7.134276   1.000000   1.000103
   70        6.212511      7.150366   1.000000   1.000160
   71        6.239890      7.299076   1.000000   1.004644
   72        6.264744      7.345313   1.000000   1.010049
   73        6.311702      7.411108   1.000000   1.023166
   74        6.321251      7.453456   1.000000   1.032268
   75        6.377970      7.590397   1.000000   0.960367
   76        6.408750      7.624075   1.000000   0.887732
   77        6.466409      7.633836   1.000000   0.861350
   78        6.476941      7.740681   1.000000   0.457701
   79        6.526344      7.954964   1.000000  -0.033570
   80        6.591090      7.956690   1.000000  -0.033886
   81        6.594990      8.057540   1.000000  -0.021496
   82        6.618515      8.118188   1.000000  -0.009736
   83        6.642040      8.143622   1.000000  -0.006455
   84        6.651870      8.146124   1.000000  -0.006179
   85        6.704820      8.163165   1.000000  -0.004571
   86        6.706104      8.298827   1.000000  -0.000221
   87        6.733545      8.344627   1.000000  -0.000063
   88        6.784489      8.380394   1.000000  -0.000022
   89        6.827954      8.429392   1.000000  -0.000005
   90        6.836500      8.454056   1.000000  -0.000002
   91        6.888795      8.497133   1.000000  -0.000000
   92        6.919319      8.521154   1.000000  -0.000000
   93        6.929954      8.626792   1.000000  -0.000000
   94        7.062787      8.632070   1.000012  -0.000000
   95        7.074524      8.721105   1.000018  -0.000000
   96        7.091675      8.744226   1.000030  -0.000000
   97        7.378481      8.792260   1.015994  -0.000000
   98        7.440476      8.806783   1.029788  -0.000000
   99        7.492043      8.845376   1.035293  -0.000000
  100        7.506633      8.851337   1.033520  -0.000000
  101        7.578092      8.884350   0.979794  -0.000000
  102        7.659942      8.905826   0.779203  -0.000000
  103        7.727269      8.925552   0.514230  -0.000000
  104        7.894279      8.996622   0.005454  -0.000000
  105        7.923061      9.033720  -0.020753  -0.000000
  106        7.979092      9.050949  -0.035410  -0.000000
  107        8.025023      9.054386  -0.028871  -0.000000
  108        8.114878      9.067460  -0.010218  -0.000000
  109        8.114938      9.115911  -0.010210  -0.000000
  110        8.287474      9.132858  -0.000296  -0.000000
  111        8.314952      9.161277  -0.000144  -0.000000
  112        8.353108      9.210552  -0.000049  -0.000000
  113        8.574981      9.214356  -0.000000  -0.000000
  114        8.726607      9.494797  -0.000000  -0.000000
  115        8.834718      9.557119  -0.000000  -0.000000
  116        8.954645      9.613587  -0.000000  -0.000000
  117        8.963324      9.670326  -0.000000  -0.000000
  118        9.239793      9.748356  -0.000000  -0.000000
  119        9.267692      9.750952  -0.000000  -0.000000
  120        9.291625      9.969039  -0.000000  -0.000000
  121        9.294370     10.169186  -0.000000  -0.000000
  122        9.511707     10.265928  -0.000000  -0.000000
  123        9.573275     10.361530  -0.000000  -0.000000
  124       10.234688     11.133190  -0.000000  -0.000000
 
  0.4000000E+00  0.2000000E+00  0.0000000E+00  0.2666667E-01
    1       -2.101373     -2.041705   1.000000   1.000000
    2       -1.658440     -1.598550   1.000000   1.000000
    3       -0.795442     -0.731304   1.000000   1.000000
    4       -0.378925     -0.311510   1.000000   1.000000
    5        0.199809      0.199987   1.000000   1.000000
    6        0.506128      0.528882   1.000000   1.000000
    7        0.837151      0.916992   1.000000   1.000000
    8        1.099951      1.170071   1.000000   1.000000
    9        1.206684      1.297829   1.000000   1.000000
   10        1.393104      1.487799   1.000000   1.000000
   11        1.603352      1.704039   1.000000   1.000000
   12        1.769545      1.967456   1.000000   1.000000