       N       E                     dE             d eps       ncg     rms          ort
DAV:   1     0.132494804518E+04    0.13249E+04   -0.60289E+04  4464   0.132E+03
DAV:   2    -0.900227557504E+02   -0.14150E+04   -0.13628E+04  4464   0.394E+02
DAV:   3    -0.245981377215E+03   -0.15596E+03   -0.13399E+03  4464   0.144E+02
DAV:   4    -0.267910703798E+03   -0.21929E+02   -0.19190E+02  4464   0.608E+01
DAV:   5    -0.269605166070E+03   -0.16945E+01   -0.16249E+01  4464   0.169E+01
DAV:   6    -0.269723000812E+03   -0.11783E+00   -0.11637E+00  4464   0.403E+00
DAV:   7    -0.269734388380E+03   -0.11388E-01   -0.11327E-01  4464   0.108E+00
DAV:   8    -0.269735308878E+03   -0.92050E-03   -0.91787E-03  4464   0.291E-01
SDA:   9    -0.625639073941E+02    0.20717E+03   -0.91787E-03  4464   0.225E+04 0.000E+00
CGA:  10    -0.208881291776E+03   -0.14632E+03   -0.14483E+03  4464   0.123E+03 0.350E+03
CGA:  11    -0.219158840992E+03   -0.10278E+02   -0.10268E+02  4464   0.579E+02 0.122E+01
CGA:  12    -0.228708426206E+03   -0.95496E+01   -0.95566E+01  4464   0.791E+02 0.862E-01
CGA:  13    -0.234073060622E+03   -0.53646E+01   -0.55654E+01  4464   0.953E+01-0.959E+00
CGA:  14    -0.234958030206E+03   -0.88497E+00   -0.88980E+00  4464   0.504E+01-0.153E-01
CGA:  15    -0.235841189872E+03   -0.88316E+00   -0.88316E+00  4464   0.410E+01 0.788E-02
CGA:  16    -0.236171361696E+03   -0.33017E+00   -0.33003E+00  4464   0.115E+01 0.560E-02
CGA:  17    -0.236336798824E+03   -0.16544E+00   -0.16549E+00  4464   0.113E+01 0.390E-03
CGA:  18    -0.236477202607E+03   -0.14040E+00   -0.14073E+00  4464   0.534E+00 0.186E-03
CGA:  19    -0.236525588286E+03   -0.48386E-01   -0.48555E-01  4464   0.237E+00-0.104E-02
CGA:  20    -0.236573221701E+03   -0.47633E-01   -0.47599E-01  4464   0.256E+00 0.641E-03
CGA:  21    -0.236603194068E+03   -0.29972E-01   -0.30000E-01  4464   0.925E-01-0.933E-04
CGA:  22    -0.236615709633E+03   -0.12516E-01   -0.12515E-01  4464   0.658E-01-0.969E-04
CGA:  23    -0.236627154768E+03   -0.11445E-01   -0.11446E-01  4464   0.396E-01-0.167E-03
CGA:  24    -0.236633364808E+03   -0.62100E-02   -0.62096E-02  4464   0.387E-01-0.115E-03
CGA:  25    -0.236640308019E+03   -0.69432E-02   -0.69464E-02  4464   0.327E-01-0.152E-03
CGA:  26    -0.236643983682E+03   -0.36757E-02   -0.36739E-02  4464   0.122E-01-0.591E-05
CGA:  27    -0.236645827719E+03   -0.18440E-02   -0.18438E-02  4464   0.130E-01 0.425E-05
CGA:  28    -0.236647823636E+03   -0.19959E-02   -0.19963E-02  4464   0.923E-02 0.489E-04
CGA:  29    -0.236649320811E+03   -0.14972E-02   -0.14972E-02  4464   0.650E-02 0.743E-05
CGA:  30    -0.236650625365E+03   -0.13046E-02   -0.13024E-02  4464   0.615E-02 0.564E-04
CGA:  31    -0.236651505109E+03   -0.87974E-03   -0.88068E-03  4464   0.381E-02 0.589E-04
CGA:  32    -0.236652196444E+03   -0.69133E-03   -0.69023E-03  4464   0.261E-02 0.635E-04
CGA:  33    -0.236652616240E+03   -0.41980E-03   -0.41990E-03  4464   0.193E-02 0.333E-04
CGA:  34    -0.236652945271E+03   -0.32903E-03   -0.32881E-03  4464   0.235E-02 0.292E-04
CGA:  35    -0.236653340383E+03   -0.39511E-03   -0.39501E-03  4464   0.129E-02 0.322E-04
CGA:  36    -0.236653486989E+03   -0.14661E-03   -0.14763E-03  4464   0.625E-03 0.179E-04
CGA:  37    -0.236653601615E+03   -0.11463E-03   -0.11444E-03  4464   0.678E-03 0.918E-05
CGA:  38    -0.236653731591E+03   -0.12998E-03   -0.12994E-03  4464   0.363E-03 0.872E-07
CGA:  39    -0.236653786709E+03   -0.55118E-04   -0.55056E-04  4464   0.303E-03-0.616E-05
SDA:  40    -0.236653842623E+03   -0.55914E-04   -0.56033E-04  4464   0.243E-03-0.440E-05
CGA:  41    -0.236653865784E+03   -0.23161E-04   -0.23298E-04  4464   0.127E-03 0.206E-05
CGA:  42    -0.236653880780E+03   -0.14996E-04   -0.15110E-04  4464   0.665E-04 0.272E-05
CGA:  43    -0.236653900397E+03   -0.19617E-04   -0.19673E-04  4464   0.857E-04-0.428E-06
CGA:  44    -0.236653907715E+03   -0.73179E-05   -0.72855E-05  4464   0.279E-04-0.417E-06
CGA:  45    -0.236653919329E+03   -0.11614E-04   -0.11394E-04  4464   0.377E-04 0.878E-06
CGA:  46    -0.236653922789E+03   -0.34598E-05   -0.34778E-05  4464   0.149E-04 0.213E-06
CGA:  47    -0.236653927336E+03   -0.45463E-05   -0.44923E-05  4464   0.158E-04 0.417E-06
CGA:  48    -0.236653928911E+03   -0.15752E-05   -0.15919E-05  4464   0.116E-04 0.223E-06
CGA:  49    -0.236653931405E+03   -0.24940E-05   -0.24636E-05  4464   0.350E-05 0.811E-06
CGA:  50    -0.236653932267E+03   -0.86252E-06   -0.86697E-06  4464   0.628E-05-0.962E-07
CGA:  51    -0.236653933030E+03   -0.76267E-06   -0.76270E-06  4464   0.254E-05-0.169E-09
CGA:  52    -0.236653933466E+03   -0.43628E-06   -0.43715E-06  4464   0.200E-05 0.516E-06
CGA:  53    -0.236653933726E+03   -0.25980E-06   -0.27759E-06  4464   0.145E-05 0.313E-06
CGA:  54    -0.236653934024E+03   -0.29792E-06   -0.29570E-06  4464   0.589E-06 0.278E-06
CGA:  55    -0.236653934110E+03   -0.86166E-07   -0.90604E-07  4464   0.664E-06 0.113E-06
CGA:  56    -0.236653934243E+03   -0.13321E-06   -0.13292E-06  4464   0.303E-06 0.352E-06
CGA:  57    -0.236653934271E+03   -0.27303E-07   -0.32358E-07  4464   0.189E-06 0.848E-07
   1 F= -.23665393E+03 E0= -.23667112E+03  d E =0.515519E-01  mag=    24.6804
