 vasp.5.4.4.18Apr17-6-g9f103f2a35 (build Dec 20 2018 12:05:58) complex          
  
 executed on             LinuxIFC date 2019.06.20  14:38:47
 running on   32 total cores
 distrk:  each k-point on    8 cores,    4 groups
 distr:  one band on NCORES_PER_BAND=   4 cores,    2 groups


--------------------------------------------------------------------------------------------------------


 INCAR:
 POTCAR:    PAW_PBE Al 04Jan2001                  
 POTCAR:    PAW_PBE Mn 06Sep2000                  

 ----------------------------------------------------------------------------- 
|                                                                             |
|           W    W    AA    RRRRR   N    N  II  N    N   GGGG   !!!           |
|           W    W   A  A   R    R  NN   N  II  NN   N  G    G  !!!           |
|           W    W  A    A  R    R  N N  N  II  N N  N  G       !!!           |
|           W WW W  AAAAAA  RRRRR   N  N N  II  N  N N  G  GGG   !            |
|           WW  WW  A    A  R   R   N   NN  II  N   NN  G    G                |
|           W    W  A    A  R    R  N    N  II  N    N   GGGG   !!!           |
|                                                                             |
|      You have enabled k-point parallelism (KPAR>1).                         |
|      This developmental code was originally  written by Paul Kent at ORNL,  |
|      and carefully double checked in Vienna.                                |
|      GW as well as linear response parallelism added by Martijn Marsman     |
|      and Georg Kresse.                                                      |
|      Carefully verify results versus KPAR=1.                                |
|      Report problems to Paul Kent and Vienna.                               |
|                                                                             |
 ----------------------------------------------------------------------------- 

 POTCAR:    PAW_PBE Al 04Jan2001                  
   VRHFIN =Al: s2p1                                                             
   LEXCH  = PE                                                                  
   EATOM  =    53.5387 eV,    3.9350 Ry                                         
                                                                                
   TITEL  = PAW_PBE Al 04Jan2001                                                
   LULTRA =        F    use ultrasoft PP ?                                      
   IUNSCR =        1    unscreen: 0-lin 1-nonlin 2-no                           
   RPACOR =    1.500    partial core radius                                     
   POMASS =   26.981; ZVAL   =    3.000    mass and valenz                      
   RCORE  =    1.900    outmost cutoff radius                                   
   RWIGS  =    2.650; RWIGS  =    1.402    wigner-seitz radius (au A)           
   ENMAX  =  240.300; ENMIN  =  180.225 eV                                      
   ICORE  =        2    local potential                                         
   LCOR   =        T    correct aug charges                                     
   LPAW   =        T    paw PP                                                  
   EAUG   =  291.052                                                            
   DEXC   =    0.000                                                            
   RMAX   =    1.939    core radius for proj-oper                               
   RAUG   =    1.300    factor for augmentation sphere                          
   RDEP   =    1.966    radius for radial grids                                 
   RDEPT  =    1.856    core radius for aug-charge                              
                                                                                
   Atomic configuration                                                         
    6 entries                                                                   
     n  l   j            E        occ.                                          
     1  0  0.50     -1511.1048   2.0000                                         
     2  0  0.50      -108.1629   2.0000                                         
     2  1  1.50       -69.6402   6.0000                                         
     3  0  0.50        -7.7528   2.0000                                         
     3  1  1.50        -2.7121   1.0000                                         
     3  2  2.50        -2.7212   0.0000                                         
   Description                                                                  
     l       E           TYP  RCUT    TYP  RCUT                                 
     0     -7.7528455     23  1.900                                             
     0     -3.3096929     23  1.900                                             
     1     -2.7120682     23  1.900                                             
     1     13.6058260     23  1.900                                             
     2     -2.7211652      7  1.900                                             
  local pseudopotential read in
  partial core-charges read in
  partial kinetic energy density read in
  atomic valenz-charges read in
  non local Contribution for L=           0  read in
    real space projection operators read in
  non local Contribution for L=           0  read in
    real space projection operators read in
  non local Contribution for L=           1  read in
    real space projection operators read in
  non local Contribution for L=           1  read in
    real space projection operators read in
    PAW grid and wavefunctions read in
 
   number of l-projection  operators is LMAX  =           4
   number of lm-projection operators is LMMAX =           8
 
 POTCAR:    PAW_PBE Mn 06Sep2000                  
   VRHFIN =Mn: d6 s1                                                            
   LEXCH  = PE                                                                  
   EATOM  =   416.7541 eV,   30.6306 Ry                                         
                                                                                
   TITEL  = PAW_PBE Mn 06Sep2000                                                
   LULTRA =        F    use ultrasoft PP ?                                      
   IUNSCR =        1    unscreen: 0-lin 1-nonlin 2-no                           
   RPACOR =    2.000    partial core radius                                     
   POMASS =   54.938; ZVAL   =    7.000    mass and valenz                      
   RCORE  =    2.300    outmost cutoff radius                                   
   RWIGS  =    2.500; RWIGS  =    1.323    wigner-seitz radius (au A)           
   ENMAX  =  269.864; ENMIN  =  202.398 eV                                      
   RCLOC  =    1.725    cutoff for local pot                                    
   LCOR   =        T    correct aug charges                                     
   LPAW   =        T    paw PP                                                  
   EAUG   =  500.711                                                            
   DEXC   =    0.000                                                            
   RMAX   =    2.343    core radius for proj-oper                               
   RAUG   =    1.300    factor for augmentation sphere                          
   RDEP   =    2.338    radius for radial grids                                 
   RDEPT  =    1.911    core radius for aug-charge                              
                                                                                
   Atomic configuration                                                         
    9 entries                                                                   
     n  l   j            E        occ.                                          
     1  0  0.50     -6424.8288   2.0000                                         
     2  0  0.50      -739.1154   2.0000                                         
     2  1  1.50      -625.3949   6.0000                                         
     3  0  0.50       -81.6100   2.0000                                         
     3  1  1.50       -50.4667   6.0000                                         
     3  2  2.50        -3.3745   6.0000                                         
     4  0  0.50        -4.1331   1.0000                                         
     4  1  0.50        -4.0817   0.0000                                         
     4  3  2.50        -1.3606   0.0000                                         
   Description                                                                  
     l       E           TYP  RCUT    TYP  RCUT                                 
     2     -3.3744664     23  2.300                                             
     2     -4.7350490     23  2.300                                             
     0     -4.1331408     23  2.300                                             
     0      7.6656614     23  2.300                                             
     1     -2.7211652     23  2.300                                             
     1     20.4087390     23  2.300                                             
  local pseudopotential read in
  partial core-charges read in
  partial kinetic energy density read in
  atomic valenz-charges read in
  non local Contribution for L=           2  read in
    real space projection operators read in
  non local Contribution for L=           2  read in
    real space projection operators read in
  non local Contribution for L=           0  read in
    real space projection operators read in
  non local Contribution for L=           0  read in
    real space projection operators read in
  non local Contribution for L=           1  read in
    real space projection operators read in
  non local Contribution for L=           1  read in
    real space projection operators read in
    PAW grid and wavefunctions read in
 
   number of l-projection  operators is LMAX  =           6
   number of lm-projection operators is LMMAX =          18
 

 ----------------------------------------------------------------------------- 
|                                                                             |
|  ADVICE TO THIS USER RUNNING 'VASP/VAMP'   (HEAR YOUR MASTER'S VOICE ...):  |
|                                                                             |
|      You have a (more or less) 'large supercell' and for larger cells       |
|      it might be more efficient to use real space projection opertators     |
|      So try LREAL= Auto  in the INCAR   file.                               |
|      Mind:          For very  accurate calculation you might also keep the  |
|      reciprocal projection scheme          (i.e. LREAL=.FALSE.)             |
|                                                                             |
 ----------------------------------------------------------------------------- 

  PAW_PBE Al 04Jan2001                  :
 energy of atom  1       EATOM=  -53.5387
 kinetic energy error for atom=    0.0005 (will be added to EATOM!!)
  PAW_PBE Mn 06Sep2000                  :
 energy of atom  2       EATOM= -416.7541
 kinetic energy error for atom=    0.0080 (will be added to EATOM!!)
 
 
 POSCAR: NewRef: 18, @ ['Mn', array([1.37502469, 
  positions in cartesian coordinates
  velocities in cartesian coordinates
  No initial velocities read in
 exchange correlation table for  LEXCH =        8
   RHO(1)=    0.500       N(1)  =     2000
   RHO(2)=  100.500       N(2)  =     4000
 


--------------------------------------------------------------------------------------------------------


 ion  position               nearest neighbor table
   1  0.000  0.000  0.000-  20 2.61  24 2.61  32 2.61  36 2.61  31 2.61  23 2.61  35 2.61  19 2.61
                             3 2.75   7 2.75   5 2.75  13 2.75
   2  0.000  0.000  0.500-  19 2.61  23 2.61  31 2.61  35 2.61  20 2.61  32 2.61  24 2.61  36 2.61
                             4 2.75   8 2.75   6 2.75  14 2.75
   3  0.000  0.333  0.000-  20 2.61  32 2.61  22 2.61  34 2.61  19 2.61  31 2.61  33 2.61  21 2.61
                             9 2.75   1 2.75   5 2.75  15 2.75
   4  0.000  0.333  0.500-  19 2.61  31 2.61  21 2.61  33 2.61  32 2.61  20 2.61  22 2.61  34 2.61
                            10 2.75   2 2.75   6 2.75  16 2.75
   5  0.000  0.667  0.000-  22 2.61  34 2.61  24 2.61  36 2.61  21 2.61  33 2.61  35 2.61  23 2.61
                             3 2.75  11 2.75   1 2.75  17 2.75
   6  0.000  0.667  0.500-  21 2.61  33 2.61  23 2.61  35 2.61  34 2.61  22 2.61  24 2.61  36 2.61
                             4 2.75  12 2.75   2 2.75  18 2.75
   7  0.333  0.000  0.000-  20 2.61  24 2.61  26 2.61  30 2.61  23 2.61  19 2.61  29 2.61  25 2.61
                            13 2.75   1 2.75   9 2.75  11 2.75
   8  0.333  0.000  0.500-  19 2.61  23 2.61  25 2.61  29 2.61  20 2.61  24 2.61  26 2.61  30 2.61
                            14 2.75   2 2.75  10 2.75  12 2.75
   9  0.333  0.333  0.000-  20 2.61  22 2.61  26 2.61  19 2.61  28 2.61  21 2.61  25 2.61  27 2.61
                             3 2.75   7 2.75  11 2.75  15 2.75
  10  0.333  0.333  0.500-  19 2.61  21 2.61  25 2.61  20 2.61  27 2.61  26 2.61  22 2.61  28 2.61
                             4 2.75   8 2.75  12 2.75  16 2.75
  11  0.333  0.667  0.000-  22 2.61  24 2.61  28 2.61  21 2.61  30 2.61  23 2.61  27 2.61  29 2.61
                            17 2.75   5 2.75   9 2.75   7 2.75
  12  0.333  0.667  0.500-  21 2.61  23 2.61  27 2.61  22 2.61  29 2.61  28 2.61  24 2.61  30 2.61
                            18 2.75   6 2.75  10 2.75   8 2.75
  13  0.667  0.000  0.000-  26 2.61  30 2.61  32 2.61  36 2.61  29 2.61  25 2.61  35 2.61  31 2.61
                             7 2.75  15 2.75   1 2.75  17 2.75
  14  0.667  0.000  0.500-  25 2.61  29 2.61  31 2.61  35 2.61  26 2.61  30 2.61  32 2.61  36 2.61
                             8 2.75  16 2.75   2 2.75  18 2.75
  15  0.667  0.333  0.000-  26 2.61  28 2.61  32 2.61  25 2.61  34 2.61  27 2.61  31 2.61  33 2.61
                            17 2.75   9 2.75  13 2.75   3 2.75
  16  0.667  0.333  0.500-  25 2.61  27 2.61  31 2.61  26 2.61  33 2.61  32 2.61  28 2.61  34 2.61
                            18 2.75  10 2.75  14 2.75   4 2.75
  17  0.667  0.667  0.000-  28 2.61  30 2.61  34 2.61  27 2.61  36 2.61  29 2.61  33 2.61  35 2.61
                            11 2.75  15 2.75  13 2.75   5 2.75
  18  0.667  0.667  0.500-  27 2.61  29 2.61  33 2.61  28 2.61  35 2.61  34 2.61  30 2.61  36 2.61
                            12 2.75  16 2.75  14 2.75   6 2.75
  19  0.167  0.167  0.250-  10 2.61   8 2.61   4 2.61   9 2.61   2 2.61   7 2.61   3 2.61   1 2.61
                            21 2.75  25 2.75  23 2.75  31 2.75
  20  0.167  0.167  0.750-   9 2.61   7 2.61   3 2.61  10 2.61   1 2.61   4 2.61   8 2.61   2 2.61
                            22 2.75  26 2.75  24 2.75  32 2.75
  21  0.167  0.500  0.250-  12 2.61  10 2.61   6 2.61  11 2.61   4 2.61   9 2.61   5 2.61   3 2.61
                            19 2.75  23 2.75  27 2.75  33 2.75
  22  0.167  0.500  0.750-  11 2.61   9 2.61   5 2.61  12 2.61   3 2.61   6 2.61  10 2.61   4 2.61
                            20 2.75  24 2.75  28 2.75  34 2.75
  23  0.167  0.833  0.250-   8 2.61  12 2.61   2 2.61   6 2.61  11 2.61   7 2.61   5 2.61   1 2.61
                            21 2.75  29 2.75  19 2.75  35 2.75
  24  0.167  0.833  0.750-   7 2.61  11 2.61   1 2.61   5 2.61   8 2.61  12 2.61   2 2.61   6 2.61
                            22 2.75  30 2.75  20 2.75  36 2.75
  25  0.500  0.167  0.250-  16 2.61  14 2.61  10 2.61  15 2.61   8 2.61  13 2.61   9 2.61   7 2.61
                            19 2.75  27 2.75  31 2.75  29 2.75
  26  0.500  0.167  0.750-  15 2.61  13 2.61   9 2.61  16 2.61   7 2.61  10 2.61  14 2.61   8 2.61
                            20 2.75  28 2.75  32 2.75  30 2.75
  27  0.500  0.500  0.250-  18 2.61  16 2.61  12 2.61  17 2.61  10 2.61  15 2.61  11 2.61   9 2.61
                            21 2.75  25 2.75  29 2.75  33 2.75
  28  0.500  0.500  0.750-  17 2.61  15 2.61  11 2.61  18 2.61   9 2.61  12 2.61  16 2.61  10 2.61
                            22 2.75  26 2.75  30 2.75  34 2.75
  29  0.500  0.833  0.250-  14 2.61  18 2.61   8 2.61  12 2.61  17 2.61  13 2.61  11 2.61   7 2.61
                            23 2.75  27 2.75  35 2.75  25 2.75
  30  0.500  0.833  0.750-  13 2.61  17 2.61   7 2.61  11 2.61  14 2.61  18 2.61   8 2.61  12 2.61
                            24 2.75  28 2.75  36 2.75  26 2.75
  31  0.833  0.167  0.250-   4 2.61  16 2.61  14 2.61   2 2.61  15 2.61   3 2.61  13 2.61   1 2.61
                            25 2.75  33 2.75  19 2.75  35 2.75
  32  0.833  0.167  0.750-   3 2.61  15 2.61  13 2.61   1 2.61   4 2.61  16 2.61   2 2.61  14 2.61
                            26 2.75  34 2.75  20 2.75  36 2.75
  33  0.833  0.500  0.250-   6 2.61  18 2.61  16 2.61   4 2.61  17 2.61   5 2.61  15 2.61   3 2.61
                            27 2.75  31 2.75  35 2.75  21 2.75
  34  0.833  0.500  0.750-   5 2.61  17 2.61  15 2.61   3 2.61   6 2.61  18 2.61   4 2.61  16 2.61
                            28 2.75  32 2.75  36 2.75  22 2.75
  35  0.833  0.833  0.250-   2 2.61   6 2.61  14 2.61  18 2.61  13 2.61   5 2.61  17 2.61   1 2.61
                            29 2.75  33 2.75  31 2.75  23 2.75
  36  0.833  0.833  0.750-   1 2.61   5 2.61  13 2.61  17 2.61   2 2.61  14 2.61   6 2.61  18 2.61
                            30 2.75  34 2.75  32 2.75  24 2.75
 
  LATTYP: Found a simple tetragonal cell.
 ALAT       =     8.2501481662
 C/A-ratio  =     0.8428059861
  
  Lattice vectors:
  
 A1 = (   8.2501481662,   0.0000000000,   0.0000000000)
 A2 = (   0.0000000000,   8.2501481662,   0.0000000000)
 A3 = (   0.0000000000,   0.0000000000,   6.9532742610)


Analysis of symmetry for initial positions (statically):
=====================================================================
 Subroutine PRICEL returns following result:
 
  LATTYP: Found a simple tetragonal cell.
 ALAT       =     2.7500493888
 C/A-ratio  =     1.2642089792
  
  Lattice vectors:
  
 A1 = (   2.7500493888,   0.0000000000,   0.0000000000)
 A2 = (   0.0000000000,   2.7500493888,   0.0000000000)
 A3 = (   0.0000000000,   0.0000000000,   3.4766371305)
 
  18 primitive cells build up your supercell.
 

 Routine SETGRP: Setting up the symmetry group for a 
 simple tetragonal supercell.


 Subroutine GETGRP returns: Found 16 space group operations
 (whereof 16 operations were pure point group operations)
 out of a pool of 16 trial point group operations.


The static configuration has the point symmetry D_4h.


Analysis of symmetry for dynamics (positions and initial velocities):
=====================================================================
 Subroutine PRICEL returns following result:
 
  LATTYP: Found a simple tetragonal cell.
 ALAT       =     2.7500493888
 C/A-ratio  =     1.2642089792
  
  Lattice vectors:
  
 A1 = (   2.7500493888,   0.0000000000,   0.0000000000)
 A2 = (   0.0000000000,   2.7500493888,   0.0000000000)
 A3 = (   0.0000000000,   0.0000000000,   3.4766371305)
 
  18 primitive cells build up your supercell.
 

 Routine SETGRP: Setting up the symmetry group for a 
 simple tetragonal supercell.


 Subroutine GETGRP returns: Found 16 space group operations
 (whereof 16 operations were pure point group operations)
 out of a pool of 16 trial point group operations.


The dynamic configuration has the point symmetry D_4h.


Analysis of structural, dynamic, and magnetic symmetry:
=====================================================================
 Subroutine PRICEL returns:
 Original cell was already a primitive cell.
 

 Routine SETGRP: Setting up the symmetry group for a 
 simple tetragonal supercell.


 Subroutine GETGRP returns: Found  8 space group operations
 (whereof  4 operations were pure point group operations)
 out of a pool of 16 trial point group operations.


The magnetic configuration has the point symmetry C_2h.
 The point group associated with its full space group is D_2h.


 Subroutine INISYM returns: Found  8 space group operations
 (whereof  4 operations are pure point group operations),
 and found     1 'primitive' translations

 
 
 KPOINTS: automatic KPOINTS                       

Automatic generation of k-mesh.
 generate k-points for:    5    5    6
Space group operators:
 irot       det(A)        alpha          n_x          n_y          n_z        tau_x        tau_y        tau_z
    1     1.000000     0.000001     1.000000     0.000000     0.000000     0.000000     0.000000     0.000000
    2    -1.000000     0.000001     1.000000     0.000000     0.000000     0.000000     0.000000     0.000000
    3     1.000000   180.000000     0.707107     0.707107     0.000000     0.000000     0.000000     0.000000
    4    -1.000000   180.000000     0.707107     0.707107     0.000000     0.000000     0.000000     0.000000
    5     1.000000   179.999999     0.000000     0.000000     1.000000     0.000000     0.000000     0.500000
    6    -1.000000   179.999999     0.000000     0.000000     1.000000     0.000000     0.000000     0.500000
    7     1.000000   180.000000     0.707107    -0.707107     0.000000     0.000000     0.000000     0.500000
    8    -1.000000   180.000000     0.707107    -0.707107     0.000000     0.000000     0.000000     0.500000
 
 Subroutine IBZKPT returns following result:
 ===========================================
 
 Found     36 irreducible k-points:
 
 Following reciprocal coordinates:
            Coordinates               Weight
  0.000000  0.000000  0.000000      1.000000
  0.200000  0.000000  0.000000      4.000000
  0.400000  0.000000  0.000000      4.000000
  0.200000  0.200000  0.000000      2.000000
  0.400000  0.200000  0.000000      4.000000
 -0.400000  0.200000  0.000000      4.000000
 -0.200000  0.200000  0.000000      2.000000
  0.400000  0.400000  0.000000      2.000000
 -0.400000  0.400000  0.000000      2.000000
  0.000000  0.000000  0.166667      2.000000
  0.200000  0.000000  0.166667      8.000000
  0.400000  0.000000  0.166667      8.000000
  0.200000  0.200000  0.166667      4.000000
  0.400000  0.200000  0.166667      8.000000
 -0.400000  0.200000  0.166667      8.000000
 -0.200000  0.200000  0.166667      4.000000
  0.400000  0.400000  0.166667      4.000000
 -0.400000  0.400000  0.166667      4.000000
  0.000000  0.000000  0.333333      2.000000
  0.200000  0.000000  0.333333      8.000000
  0.400000  0.000000  0.333333      8.000000
  0.200000  0.200000  0.333333      4.000000
  0.400000  0.200000  0.333333      8.000000
 -0.400000  0.200000  0.333333      8.000000
 -0.200000  0.200000  0.333333      4.000000
  0.400000  0.400000  0.333333      4.000000
 -0.400000  0.400000  0.333333      4.000000
  0.000000  0.000000  0.500000      1.000000
  0.200000  0.000000  0.500000      4.000000
  0.400000  0.000000  0.500000      4.000000
  0.200000  0.200000  0.500000      2.000000
  0.400000  0.200000  0.500000      4.000000
 -0.400000  0.200000  0.500000      4.000000
 -0.200000  0.200000  0.500000      2.000000
  0.400000  0.400000  0.500000      2.000000
 -0.400000  0.400000  0.500000      2.000000
 
 Following cartesian coordinates:
            Coordinates               Weight
  0.000000  0.000000  0.000000      1.000000
  0.024242  0.000000  0.000000      4.000000
  0.048484  0.000000  0.000000      4.000000
  0.024242  0.024242  0.000000      2.000000
  0.048484  0.024242  0.000000      4.000000
 -0.048484  0.024242  0.000000      4.000000
 -0.024242  0.024242  0.000000      2.000000
  0.048484  0.048484  0.000000      2.000000
 -0.048484  0.048484  0.000000      2.000000
  0.000000  0.000000  0.023970      2.000000
  0.024242  0.000000  0.023970      8.000000
  0.048484  0.000000  0.023970      8.000000
  0.024242  0.024242  0.023970      4.000000
  0.048484  0.024242  0.023970      8.000000
 -0.048484  0.024242  0.023970      8.000000
 -0.024242  0.024242  0.023970      4.000000
  0.048484  0.048484  0.023970      4.000000
 -0.048484  0.048484  0.023970      4.000000
  0.000000  0.000000  0.047939      2.000000
  0.024242  0.000000  0.047939      8.000000
  0.048484  0.000000  0.047939      8.000000
  0.024242  0.024242  0.047939      4.000000
  0.048484  0.024242  0.047939      8.000000
 -0.048484  0.024242  0.047939      8.000000
 -0.024242  0.024242  0.047939      4.000000
  0.048484  0.048484  0.047939      4.000000
 -0.048484  0.048484  0.047939      4.000000
  0.000000  0.000000  0.071909      1.000000
  0.024242  0.000000  0.071909      4.000000
  0.048484  0.000000  0.071909      4.000000
  0.024242  0.024242  0.071909      2.000000
  0.048484  0.024242  0.071909      4.000000
 -0.048484  0.024242  0.071909      4.000000
 -0.024242  0.024242  0.071909      2.000000
  0.048484  0.048484  0.071909      2.000000
 -0.048484  0.048484  0.071909      2.000000
 


--------------------------------------------------------------------------------------------------------




 Dimension of arrays:
   k-points           NKPTS =     36   k-points in BZ     NKDIM =     36   number of bands    NBANDS=    124
   number of dos      NEDOS =    301   number of ions     NIONS =     36
   non local maximal  LDIM  =      6   non local SUM 2l+1 LMDIM =     18
   total plane-waves  NPLWV = 139968
   max r-space proj   IRMAX =      1   max aug-charges    IRDMAX=  92271
   dimension x,y,z NGX =    54 NGY =   54 NGZ =   48
   dimension x,y,z NGXF=   108 NGYF=  108 NGZF=   96
   support grid    NGXF=   216 NGYF=  216 NGZF=  192
   ions per type =              18  18
   NGX,Y,Z   is equivalent  to a cutoff of  10.88, 10.88, 11.48 a.u.
   NGXF,Y,Z  is equivalent  to a cutoff of  21.76, 21.76, 22.95 a.u.

 SYSTEM =  AlMn_pv                                 
 POSCAR =  NewRef: 18, @ ['Mn', array([1.37502469, 

 Startparameter for this run:
   NWRITE =      2    write-flag & timer
   PREC   = accura    normal or accurate (medium, high low for compatibility)
   ISTART =      0    job   : 0-new  1-cont  2-samecut
   ICHARG =      2    charge: 1-file 2-atom 10-const
   ISPIN  =      2    spin polarized calculation?
   LNONCOLLINEAR =      F non collinear calculations
   LSORBIT =      F    spin-orbit coupling
   INIWAV =      1    electr: 0-lowe 1-rand  2-diag
   LASPH  =      F    aspherical Exc in radial PAW
   METAGGA=      F    non-selfconsistent MetaGGA calc.

 Electronic Relaxation 1
   ENCUT  =  404.8 eV  29.75 Ry    5.45 a.u.  13.53 13.53 11.41*2*pi/ulx,y,z
   ENINI  =  404.8     initial cutoff
   ENAUG  =  500.7 eV  augmentation charge cutoff
   NELM   =    100;   NELMIN=  4; NELMDL= -8     # of ELM steps 
   EDIFF  = 0.1E-06   stopping-criterion for ELM
   LREAL  =      F    real-space projection
   NLSPLINE    = F    spline interpolate recip. space projectors
   LCOMPAT=      F    compatible to vasp.4.4
   GGA_COMPAT  = T    GGA compatible to vasp.4.4-vasp.4.6
   LMAXPAW     = -100 max onsite density
   LMAXMIX     =    2 max onsite mixed and CHGCAR
   VOSKOWN=      0    Vosko Wilk Nusair interpolation
   ROPT   =    0.00000   0.00000
 Ionic relaxation
   EDIFFG = 0.1E-05   stopping-criterion for IOM
   NSW    =      0    number of steps for IOM
   NBLOCK =      1;   KBLOCK =      1    inner block; outer block 
   IBRION =     -1    ionic relax: 0-MD 1-quasi-New 2-CG
   NFREE  =      0    steps in history (QN), initial steepest desc. (CG)
   ISIF   =      2    stress and relaxation
   IWAVPR =     10    prediction:  0-non 1-charg 2-wave 3-comb
   ISYM   =      2    0-nonsym 1-usesym 2-fastsym
   LCORR  =      T    Harris-Foulkes like correction to forces

   POTIM  = 0.2000    time-step for ionic-motion
   TEIN   =    0.0    initial temperature
   TEBEG  =    0.0;   TEEND  =   0.0 temperature during run
   SMASS  =  -3.00    Nose mass-parameter (am)
   estimated Nose-frequenzy (Omega)   =  0.10E-29 period in steps =****** mass=  -0.156E-26a.u.
   SCALEE = 1.0000    scale energy and forces
   NPACO  =    256;   APACO  = 16.0  distance and # of slots for P.C.
   PSTRESS=    0.0 pullay stress

  Mass of Ions in am
   POMASS =  26.98 54.94
  Ionic Valenz
   ZVAL   =   3.00  7.00
  Atomic Wigner-Seitz radii
   RWIGS  =  -1.00 -1.00
  virtual crystal weights 
   VCA    =   1.00  1.00
   NELECT =     180.0000    total number of electrons
   NUPDOWN=      -1.0000    fix difference up-down

 DOS related values:
   EMIN   =  10.00;   EMAX   =-10.00  energy-range for DOS
   EFERMI =   0.00
   ISMEAR =     1;   SIGMA  =   0.20  broadening in eV -4-tet -1-fermi 0-gaus

 Electronic relaxation 2 (details)
   IALGO  =     58    algorithm
   LDIAG  =      T    sub-space diagonalisation (order eigenvalues)
   LSUBROT=      F    optimize rotation matrix (better conditioning)
   TURBO    =      0    0=normal 1=particle mesh
   IRESTART =      0    0=no restart 2=restart with 2 vectors
   NREBOOT  =      0    no. of reboots
   NMIN     =      0    reboot dimension
   EREF     =   0.00    reference energy to select bands
   IMIX   =      4    mixing-type and parameters
     AMIX     =   0.40;   BMIX     =  1.00
     AMIX_MAG =   1.60;   BMIX_MAG =  1.00
     AMIN     =   0.10
     WC   =   100.;   INIMIX=   1;  MIXPRE=   1;  MAXMIX= -45

 Intra band minimization:
   WEIMIN = 0.0000     energy-eigenvalue tresh-hold
   EBREAK =  0.20E-09  absolut break condition
   DEPER  =   0.30     relativ break condition  

   TIME   =   0.40     timestep for ELM

  volume/ion in A,a.u.               =      13.15        88.72
  Fermi-wavevector in a.u.,A,eV,Ry     =   1.186118  2.241439 19.141722  1.406877
  Thomas-Fermi vector in A             =   2.322298
 
 Write flags
   LWAVE        =      F    write WAVECAR
   LDOWNSAMPLE  =      F    k-point downsampling of WAVECAR
   LCHARG       =      F    write CHGCAR
   LVTOT        =      F    write LOCPOT, total local potential
   LVHAR        =      F    write LOCPOT, Hartree potential only
   LELF         =      F    write electronic localiz. function (ELF)
   LORBIT       =     10    0 simple, 1 ext, 2 COOP (PROOUT), +10 PAW based schemes


 Dipole corrections
   LMONO  =      F    monopole corrections only (constant potential shift)
   LDIPOL =      F    correct potential (dipole corrections)
   IDIPOL =      0    1-x, 2-y, 3-z, 4-all directions 
   EPSILON=  1.0000000 bulk dielectric constant

 Exchange correlation treatment:
   GGA     =    --    GGA type
   LEXCH   =     8    internal setting for exchange type
   VOSKOWN=      0    Vosko Wilk Nusair interpolation
   LHFCALC =     F    Hartree Fock is set to
   LHFONE  =     F    Hartree Fock one center treatment
   AEXX    =    0.0000 exact exchange contribution

 Linear response parameters
   LEPSILON=     F    determine dielectric tensor
   LRPA    =     F    only Hartree local field effects (RPA)
   LNABLA  =     F    use nabla operator in PAW spheres
   LVEL    =     F    velocity operator in full k-point grid
   LINTERFAST=   F  fast interpolation
   KINTER  =     0    interpolate to denser k-point grid
   CSHIFT  =0.1000    complex shift for real part using Kramers Kronig
   OMEGAMAX=  -1.0    maximum frequency
   DEG_THRESHOLD= 0.2000000E-02 threshold for treating states as degnerate
   RTIME   =   -0.100 relaxation time in fs
  (WPLASMAI=    0.000 imaginary part of plasma frequency in eV, 0.658/RTIME)
   DFIELD  = 0.0000000 0.0000000 0.0000000 field for delta impulse in time
 
 Orbital magnetization related:
   ORBITALMAG=     F  switch on orbital magnetization
   LCHIMAG   =     F  perturbation theory with respect to B field
   DQ        =  0.001000  dq finite difference perturbation B field
   LLRAUG    =     F  two centre corrections for induced B field



--------------------------------------------------------------------------------------------------------


 Static calculation
 charge density and potential will be updated during run
 spin polarized calculation
 Conjugate gradient for all bands (Freysoldt, et al. PRB 79, 241103 (2009))
 preconditioned conjugated gradient                                        
 perform sub-space diagonalisation
    before iterative eigenvector-optimisation
 modified Broyden-mixing scheme, WC =      100.0
 initial mixing is a Kerker type mixing with AMIX =  0.4000 and BMIX =      1.0000
 Hartree-type preconditioning will be used
 using additional bands           34
 reciprocal scheme for non local part
 use partial core corrections
 no Harris-corrections to forces 
 use gradient corrections 
 use of overlap-Matrix (Vanderbilt PP)
 Methfessel and Paxton  Order N= 1 SIGMA  =   0.20


--------------------------------------------------------------------------------------------------------


  energy-cutoff  :      404.80
  volume of cell :      473.27
      direct lattice vectors                 reciprocal lattice vectors
     8.250148166  0.000000000  0.000000000     0.121209944  0.000000000  0.000000000
     0.000000000  8.250148166  0.000000000     0.000000000  0.121209944  0.000000000
     0.000000000  0.000000000  6.953274261     0.000000000  0.000000000  0.143817137

  length of vectors
     8.250148166  8.250148166  6.953274261     0.121209944  0.121209944  0.143817137


 
 k-points in units of 2pi/SCALE and weight: automatic KPOINTS                       
   0.00000000  0.00000000  0.00000000       0.007
   0.02424199  0.00000000  0.00000000       0.027
   0.04848398  0.00000000  0.00000000       0.027
   0.02424199  0.02424199  0.00000000       0.013
   0.04848398  0.02424199  0.00000000       0.027
  -0.04848398  0.02424199  0.00000000       0.027
  -0.02424199  0.02424199  0.00000000       0.013
   0.04848398  0.04848398  0.00000000       0.013
  -0.04848398  0.04848398  0.00000000       0.013
   0.00000000  0.00000000  0.02396952       0.013
   0.02424199  0.00000000  0.02396952       0.053
   0.04848398  0.00000000  0.02396952       0.053
   0.02424199  0.02424199  0.02396952       0.027
   0.04848398  0.02424199  0.02396952       0.053
  -0.04848398  0.02424199  0.02396952       0.053
  -0.02424199  0.02424199  0.02396952       0.027
   0.04848398  0.04848398  0.02396952       0.027
  -0.04848398  0.04848398  0.02396952       0.027
   0.00000000  0.00000000  0.04793905       0.013
   0.02424199  0.00000000  0.04793905       0.053
   0.04848398  0.00000000  0.04793905       0.053
   0.02424199  0.02424199  0.04793905       0.027
   0.04848398  0.02424199  0.04793905       0.053
  -0.04848398  0.02424199  0.04793905       0.053
  -0.02424199  0.02424199  0.04793905       0.027
   0.04848398  0.04848398  0.04793905       0.027
  -0.04848398  0.04848398  0.04793905       0.027
   0.00000000  0.00000000  0.07190857       0.007
   0.02424199  0.00000000  0.07190857       0.027
   0.04848398  0.00000000  0.07190857       0.027
   0.02424199  0.02424199  0.07190857       0.013
   0.04848398  0.02424199  0.07190857       0.027
  -0.04848398  0.02424199  0.07190857       0.027
  -0.02424199  0.02424199  0.07190857       0.013
   0.04848398  0.04848398  0.07190857       0.013
  -0.04848398  0.04848398  0.07190857       0.013
 
 k-points in reciprocal lattice and weights: automatic KPOINTS                       
   0.00000000  0.00000000  0.00000000       0.007
   0.20000000  0.00000000  0.00000000       0.027
   0.40000000  0.00000000  0.00000000       0.027
   0.20000000  0.20000000  0.00000000       0.013
   0.40000000  0.20000000  0.00000000       0.027
  -0.40000000  0.20000000  0.00000000       0.027
  -0.20000000  0.20000000  0.00000000       0.013
   0.40000000  0.40000000  0.00000000       0.013
  -0.40000000  0.40000000  0.00000000       0.013
   0.00000000  0.00000000  0.16666667       0.013
   0.20000000  0.00000000  0.16666667       0.053
   0.40000000  0.00000000  0.16666667       0.053
   0.20000000  0.20000000  0.16666667       0.027
   0.40000000  0.20000000  0.16666667       0.053
  -0.40000000  0.20000000  0.16666667       0.053
  -0.20000000  0.20000000  0.16666667       0.027
   0.40000000  0.40000000  0.16666667       0.027
  -0.40000000  0.40000000  0.16666667       0.027
   0.00000000  0.00000000  0.33333333       0.013
   0.20000000  0.00000000  0.33333333       0.053
   0.40000000  0.00000000  0.33333333       0.053
   0.20000000  0.20000000  0.33333333       0.027
   0.40000000  0.20000000  0.33333333       0.053
  -0.40000000  0.20000000  0.33333333       0.053
  -0.20000000  0.20000000  0.33333333       0.027
   0.40000000  0.40000000  0.33333333       0.027
  -0.40000000  0.40000000  0.33333333       0.027
   0.00000000  0.00000000  0.50000000       0.007
   0.20000000  0.00000000  0.50000000       0.027
   0.40000000  0.00000000  0.50000000       0.027
   0.20000000  0.20000000  0.50000000       0.013
   0.40000000  0.20000000  0.50000000       0.027
  -0.40000000  0.20000000  0.50000000       0.027
  -0.20000000  0.20000000  0.50000000       0.013
   0.40000000  0.40000000  0.50000000       0.013
  -0.40000000  0.40000000  0.50000000       0.013
 
 position of ions in fractional coordinates (direct lattice) 
   0.00000000  0.00000000  0.00000000
   0.00000000  0.00000000  0.50000000
   0.00000000  0.33333333  0.00000000
   0.00000000  0.33333333  0.50000000
   0.00000000  0.66666667  0.00000000
   0.00000000  0.66666667  0.50000000
   0.33333333  0.00000000  0.00000000
   0.33333333  0.00000000  0.50000000
   0.33333333  0.33333333  0.00000000
   0.33333333  0.33333333  0.50000000
   0.33333333  0.66666667  0.00000000
   0.33333333  0.66666667  0.50000000
   0.66666667  0.00000000  0.00000000
   0.66666667  0.00000000  0.50000000
   0.66666667  0.33333333  0.00000000
   0.66666667  0.33333333  0.50000000
   0.66666667  0.66666667  0.00000000
   0.66666667  0.66666667  0.50000000
   0.16666667  0.16666667  0.25000000
   0.16666667  0.16666667  0.75000000
   0.16666667  0.50000000  0.25000000
   0.16666667  0.50000000  0.75000000
   0.16666667  0.83333333  0.25000000
   0.16666667  0.83333333  0.75000000
   0.50000000  0.16666667  0.25000000
   0.50000000  0.16666667  0.75000000
   0.50000000  0.50000000  0.25000000
   0.50000000  0.50000000  0.75000000
   0.50000000  0.83333333  0.25000000
   0.50000000  0.83333333  0.75000000
   0.83333333  0.16666667  0.25000000
   0.83333333  0.16666667  0.75000000
   0.83333333  0.50000000  0.25000000
   0.83333333  0.50000000  0.75000000
   0.83333333  0.83333333  0.25000000
   0.83333333  0.83333333  0.75000000
 
 position of ions in cartesian coordinates  (Angst):
   0.00000000  0.00000000  0.00000000
   0.00000000  0.00000000  3.47663713
   0.00000000  2.75004939  0.00000000
   0.00000000  2.75004939  3.47663713
   0.00000000  5.50009878  0.00000000
   0.00000000  5.50009878  3.47663713
   2.75004939  0.00000000  0.00000000
   2.75004939  0.00000000  3.47663713
   2.75004939  2.75004939  0.00000000
   2.75004939  2.75004939  3.47663713
   2.75004939  5.50009878  0.00000000
   2.75004939  5.50009878  3.47663713
   5.50009878  0.00000000  0.00000000
   5.50009878  0.00000000  3.47663713
   5.50009878  2.75004939  0.00000000
   5.50009878  2.75004939  3.47663713
   5.50009878  5.50009878  0.00000000
   5.50009878  5.50009878  3.47663713
   1.37502469  1.37502469  1.73831857
   1.37502469  1.37502469  5.21495570
   1.37502469  4.12507408  1.73831857
   1.37502469  4.12507408  5.21495570
   1.37502469  6.87512347  1.73831857
   1.37502469  6.87512347  5.21495570
   4.12507408  1.37502469  1.73831857
   4.12507408  1.37502469  5.21495570
   4.12507408  4.12507408  1.73831857
   4.12507408  4.12507408  5.21495570
   4.12507408  6.87512347  1.73831857
   4.12507408  6.87512347  5.21495570
   6.87512347  1.37502469  1.73831857
   6.87512347  1.37502469  5.21495570
   6.87512347  4.12507408  1.73831857
   6.87512347  4.12507408  5.21495570
   6.87512347  6.87512347  1.73831857
   6.87512347  6.87512347  5.21495570
 


--------------------------------------------------------------------------------------------------------


 k-point  1 :   0.0000 0.0000 0.0000  plane waves:    8799
 k-point  2 :   0.2000 0.0000 0.0000  plane waves:    8753
 k-point  3 :   0.4000 0.0000 0.0000  plane waves:    8757
 k-point  4 :   0.2000 0.2000 0.0000  plane waves:    8767
 k-point  5 :   0.4000 0.2000 0.0000  plane waves:    8761
 k-point  6 :  -0.4000 0.2000 0.0000  plane waves:    8761
 k-point  7 :  -0.2000 0.2000 0.0000  plane waves:    8767
 k-point  8 :   0.4000 0.4000 0.0000  plane waves:    8731
 k-point  9 :  -0.4000 0.4000 0.0000  plane waves:    8731
 k-point 10 :   0.0000 0.0000 0.1667  plane waves:    8763
 k-point 11 :   0.2000 0.0000 0.1667  plane waves:    8771
 k-point 12 :   0.4000 0.0000 0.1667  plane waves:    8747
 k-point 13 :   0.2000 0.2000 0.1667  plane waves:    8764
 k-point 14 :   0.4000 0.2000 0.1667  plane waves:    8768
 k-point 15 :  -0.4000 0.2000 0.1667  plane waves:    8768
 k-point 16 :  -0.2000 0.2000 0.1667  plane waves:    8764
 k-point 17 :   0.4000 0.4000 0.1667  plane waves:    8740
 k-point 18 :  -0.4000 0.4000 0.1667  plane waves:    8740
 k-point 19 :   0.0000 0.0000 0.3333  plane waves:    8743
 k-point 20 :   0.2000 0.0000 0.3333  plane waves:    8736
 k-point 21 :   0.4000 0.0000 0.3333  plane waves:    8753
 k-point 22 :   0.2000 0.2000 0.3333  plane waves:    8753
 k-point 23 :   0.4000 0.2000 0.3333  plane waves:    8743
 k-point 24 :  -0.4000 0.2000 0.3333  plane waves:    8743
 k-point 25 :  -0.2000 0.2000 0.3333  plane waves:    8753
 k-point 26 :   0.4000 0.4000 0.3333  plane waves:    8755
 k-point 27 :  -0.4000 0.4000 0.3333  plane waves:    8755
 k-point 28 :   0.0000 0.0000 0.5000  plane waves:    8742
 k-point 29 :   0.2000 0.0000 0.5000  plane waves:    8756
 k-point 30 :   0.4000 0.0000 0.5000  plane waves:    8744
 k-point 31 :   0.2000 0.2000 0.5000  plane waves:    8762
 k-point 32 :   0.4000 0.2000 0.5000  plane waves:    8732
 k-point 33 :  -0.4000 0.2000 0.5000  plane waves:    8732
 k-point 34 :  -0.2000 0.2000 0.5000  plane waves:    8762
 k-point 35 :   0.4000 0.4000 0.5000  plane waves:    8736
 k-point 36 :  -0.4000 0.4000 0.5000  plane waves:    8736

 maximum and minimum number of plane-waves per node :      2206     2165

 maximum number of plane-waves:      8799
 maximum index in each direction: 
   IXMAX=   13   IYMAX=   13   IZMAX=   11
   IXMIN=  -13   IYMIN=  -13   IZMIN=  -11


 parallel 3D FFT for wavefunctions:
    minimum data exchange during FFTs selected (reduces bandwidth)
 parallel 3D FFT for charge:
    minimum data exchange during FFTs selected (reduces bandwidth)


 total amount of memory used by VASP MPI-rank0   589704. kBytes
=======================================================================

   base      :      30000. kBytes
   nonl-proj :      24142. kBytes
   fftplans  :      21726. kBytes
   grid      :      14732. kBytes
   one-center:        279. kBytes
   wavefun   :     498825. kBytes
 
     INWAV:  cpu time    0.0000: real time    0.0000
 Broyden mixing: mesh for mixing (old mesh)
   NGX = 27   NGY = 27   NGZ = 23
  (NGX  =108   NGY  =108   NGZ  = 96)
  gives a total of  16767 points

 initial charge density was supplied:
 charge density of overlapping atoms calculated
 number of electron     180.0000000 magnetization      30.0000000
 keeping initial charge density in first step


--------------------------------------------------------------------------------------------------------


 Maximum index for augmentation-charges        11261 (set IRDMAX)


--------------------------------------------------------------------------------------------------------


 First call to EWALD:  gamma=   0.227
 Maximum number of real-space cells 3x 3x 3
 Maximum number of reciprocal cells 3x 3x 3

    FEWALD:  cpu time    0.0037: real time    0.0037


--------------------------------------- Iteration      1(   1)  ---------------------------------------


    POTLOK:  cpu time    0.2522: real time    0.2523
    SETDIJ:  cpu time    0.3285: real time    0.3287
    TRIAL :  cpu time   15.3250: real time   16.0870
    CORREC:  cpu time    0.0051: real time    0.0059
    --------------------------------------------
      LOOP:  cpu time   16.0330: real time   16.8571

 eigenvalue-minimisations  : 17856
 total energy-change (2. order) : 0.1324948E+04  (-0.6028901E+04)
 number of electron     180.0000000 magnetization      30.0000000
 augmentation part      180.0000000 magnetization      30.0000000

 Free energy of the ion-electron system (eV)
  ---------------------------------------------------
  alpha Z        PSCENC =       532.25742704
  Ewald energy   TEWEN  =     -8601.05107233
  -Hartree energ DENC   =     -1903.73857242
  -exchange      EXHF   =         0.00000000
  -V(xc)+E(xc)   XCENC  =      -664.46567993
  PAW double counting   =      8494.55058411    -7650.81563588
  entropy T*S    EENTRO =        -0.00065161
  eigenvalues    EBANDS =      2653.09563774
  atomic energy  EATOM  =      8465.11600846
  ---------------------------------------------------
  free energy    TOTEN  =      1324.94804518 eV

  energy without entropy =     1324.94869679  energy(sigma->0) =     1324.94826238


--------------------------------------------------------------------------------------------------------




--------------------------------------- Iteration      1(   2)  ---------------------------------------


    TRIAL :  cpu time   14.9697: real time   15.3383
    CORREC:  cpu time    0.0063: real time    0.0064
    --------------------------------------------
      LOOP:  cpu time   14.9786: real time   15.3478

 eigenvalue-minimisations  : 17856
 total energy-change (2. order) :-0.1414971E+04  (-0.1362807E+04)
 number of electron     180.0000000 magnetization      30.0000000
 augmentation part      180.0000000 magnetization      30.0000000

 Free energy of the ion-electron system (eV)
  ---------------------------------------------------
  alpha Z        PSCENC =       532.25742704
  Ewald energy   TEWEN  =     -8601.05107233
  -Hartree energ DENC   =     -1903.73857242
  -exchange      EXHF   =         0.00000000
  -V(xc)+E(xc)   XCENC  =      -664.46567993
  PAW double counting   =      8494.55058411    -7650.81563588
  entropy T*S    EENTRO =        -0.00156391
  eigenvalues    EBANDS =      1238.12574911
  atomic energy  EATOM  =      8465.11600846
  ---------------------------------------------------
  free energy    TOTEN  =       -90.02275575 eV

  energy without entropy =      -90.02119184  energy(sigma->0) =      -90.02223445


--------------------------------------------------------------------------------------------------------




--------------------------------------- Iteration      1(   3)  ---------------------------------------


    TRIAL :  cpu time   20.2098: real time   20.7565
    CORREC:  cpu time    0.0068: real time    0.0077
    --------------------------------------------
      LOOP:  cpu time   20.2200: real time   20.7678

 eigenvalue-minimisations  : 26696
 total energy-change (2. order) :-0.1559586E+03  (-0.1339867E+03)
 number of electron     180.0000000 magnetization      30.0000000
 augmentation part      180.0000000 magnetization      30.0000000

 Free energy of the ion-electron system (eV)
  ---------------------------------------------------
  alpha Z        PSCENC =       532.25742704
  Ewald energy   TEWEN  =     -8601.05107233
  -Hartree energ DENC   =     -1903.73857242
  -exchange      EXHF   =         0.00000000
  -V(xc)+E(xc)   XCENC  =      -664.46567993
  PAW double counting   =      8494.55058411    -7650.81563588
  entropy T*S    EENTRO =         0.00870169
  eigenvalues    EBANDS =      1082.15686205
  atomic energy  EATOM  =      8465.11600846
  ---------------------------------------------------
  free energy    TOTEN  =      -245.98137721 eV

  energy without entropy =     -245.99007890  energy(sigma->0) =     -245.98427778


--------------------------------------------------------------------------------------------------------




--------------------------------------- Iteration      1(   4)  ---------------------------------------


    TRIAL :  cpu time   23.2427: real time   23.8543
    CORREC:  cpu time    0.0072: real time    0.0081
    --------------------------------------------
      LOOP:  cpu time   23.2660: real time   23.9010

 eigenvalue-minimisations  : 28744
 total energy-change (2. order) :-0.2192933E+02  (-0.1919003E+02)
 number of electron     180.0000000 magnetization      30.0000000
 augmentation part      180.0000000 magnetization      30.0000000

 Free energy of the ion-electron system (eV)
  ---------------------------------------------------
  alpha Z        PSCENC =       532.25742704
  Ewald energy   TEWEN  =     -8601.05107233
  -Hartree energ DENC   =     -1903.73857242
  -exchange      EXHF   =         0.00000000
  -V(xc)+E(xc)   XCENC  =      -664.46567993
  PAW double counting   =      8494.55058411    -7650.81563588
  entropy T*S    EENTRO =         0.03917863
  eigenvalues    EBANDS =      1060.19705853
  atomic energy  EATOM  =      8465.11600846
  ---------------------------------------------------
  free energy    TOTEN  =      -267.91070380 eV

  energy without entropy =     -267.94988242  energy(sigma->0) =     -267.92376334


--------------------------------------------------------------------------------------------------------




--------------------------------------- Iteration      1(   5)  ---------------------------------------


    TRIAL :  cpu time   21.4877: real time   21.9819
    CORREC:  cpu time    0.0071: real time    0.0072
    --------------------------------------------
      LOOP:  cpu time   21.4962: real time   21.9927

 eigenvalue-minimisations  : 28832
 total energy-change (2. order) :-0.1694462E+01  (-0.1624940E+01)
 number of electron     180.0000000 magnetization      30.0000000
 augmentation part      180.0000000 magnetization      30.0000000

 Free energy of the ion-electron system (eV)
  ---------------------------------------------------
  alpha Z        PSCENC =       532.25742704
  Ewald energy   TEWEN  =     -8601.05107233
  -Hartree energ DENC   =     -1903.73857242
  -exchange      EXHF   =         0.00000000
  -V(xc)+E(xc)   XCENC  =      -664.46567993
  PAW double counting   =      8494.55058411    -7650.81563588
  entropy T*S    EENTRO =         0.04046270
  eigenvalues    EBANDS =      1058.50131218
  atomic energy  EATOM  =      8465.11600846
  ---------------------------------------------------
  free energy    TOTEN  =      -269.60516607 eV

  energy without entropy =     -269.64562877  energy(sigma->0) =     -269.61865364


--------------------------------------------------------------------------------------------------------




--------------------------------------- Iteration      1(   6)  ---------------------------------------


    TRIAL :  cpu time   22.4588: real time   23.0912
    CORREC:  cpu time    0.0074: real time    0.0082
    --------------------------------------------
      LOOP:  cpu time   22.4672: real time   23.1031

 eigenvalue-minimisations  : 28800
 total energy-change (2. order) :-0.1178347E+00  (-0.1163698E+00)
 number of electron     180.0000000 magnetization      30.0000000
 augmentation part      180.0000000 magnetization      30.0000000

 Free energy of the ion-electron system (eV)
  ---------------------------------------------------
  alpha Z        PSCENC =       532.25742704
  Ewald energy   TEWEN  =     -8601.05107233
  -Hartree energ DENC   =     -1903.73857242
  -exchange      EXHF   =         0.00000000
  -V(xc)+E(xc)   XCENC  =      -664.46567993
  PAW double counting   =      8494.55058411    -7650.81563588
  entropy T*S    EENTRO =         0.04036285
  eigenvalues    EBANDS =      1058.38357729
  atomic energy  EATOM  =      8465.11600846
  ---------------------------------------------------
  free energy    TOTEN  =      -269.72300081 eV

  energy without entropy =     -269.76336366  energy(sigma->0) =     -269.73645510


--------------------------------------------------------------------------------------------------------




--------------------------------------- Iteration      1(   7)  ---------------------------------------


    TRIAL :  cpu time   22.7218: real time   23.1947
    CORREC:  cpu time    0.0073: real time    0.0075
    --------------------------------------------
      LOOP:  cpu time   22.7303: real time   23.2056

 eigenvalue-minimisations  : 29304
 total energy-change (2. order) :-0.1138757E-01  (-0.1132738E-01)
 number of electron     180.0000000 magnetization      30.0000000
 augmentation part      180.0000000 magnetization      30.0000000

 Free energy of the ion-electron system (eV)
  ---------------------------------------------------
  alpha Z        PSCENC =       532.25742704
  Ewald energy   TEWEN  =     -8601.05107233
  -Hartree energ DENC   =     -1903.73857242
  -exchange      EXHF   =         0.00000000
  -V(xc)+E(xc)   XCENC  =      -664.46567993
  PAW double counting   =      8494.55058411    -7650.81563588
  entropy T*S    EENTRO =         0.04035720
  eigenvalues    EBANDS =      1058.37219537
  atomic energy  EATOM  =      8465.11600846
  ---------------------------------------------------
  free energy    TOTEN  =      -269.73438838 eV

  energy without entropy =     -269.77474558  energy(sigma->0) =     -269.74784078


--------------------------------------------------------------------------------------------------------




--------------------------------------- Iteration      1(   8)  ---------------------------------------


    TRIAL :  cpu time   21.6807: real time   22.1897
    CORREC:  cpu time    0.0076: real time    0.0085
    CHARGE:  cpu time    0.9355: real time    0.9598
    --------------------------------------------
      LOOP:  cpu time   22.6273: real time   23.1617

 eigenvalue-minimisations  : 28440
 total energy-change (2. order) :-0.9204981E-03  (-0.9178742E-03)
 number of electron     179.9999997 magnetization      21.2556356
 augmentation part       42.6061101 magnetization      12.3634494

 Free energy of the ion-electron system (eV)
  ---------------------------------------------------
  alpha Z        PSCENC =       532.25742704
  Ewald energy   TEWEN  =     -8601.05107233
  -Hartree energ DENC   =     -1903.73857242
  -exchange      EXHF   =         0.00000000
  -V(xc)+E(xc)   XCENC  =      -664.46567993
  PAW double counting   =      8494.55058411    -7650.81563588
  entropy T*S    EENTRO =         0.04035965
  eigenvalues    EBANDS =      1058.37127243
  atomic energy  EATOM  =      8465.11600846
  ---------------------------------------------------
  free energy    TOTEN  =      -269.73530888 eV

  energy without entropy =     -269.77566853  energy(sigma->0) =     -269.74876209


--------------------------------------------------------------------------------------------------------




--------------------------------------- Iteration      1(   9)  ---------------------------------------


    POTLOK:  cpu time    0.2529: real time    0.2530
    SETDIJ:  cpu time    0.5928: real time    1.2422
    TRIAL :  cpu time    7.1280: real time    7.3071
    CORREC:  cpu time    2.8778: real time    2.9180
    CHARGE:  cpu time    0.9125: real time    0.9355
    --------------------------------------------
      LOOP:  cpu time   11.7655: real time   12.6577

 eigenvalue-minimisations  :     0
 total energy-change (2. order) : 0.2071714E+03  (-0.1448289E+03)
 number of electron     179.9999997 magnetization      22.4188762
 augmentation part       54.4281698 magnetization      14.6346424

 Free energy of the ion-electron system (eV)
  ---------------------------------------------------
  alpha Z        PSCENC =       532.25742704
  Ewald energy   TEWEN  =     -8601.05107233
  -Hartree energ DENC   =      -844.38430577
  -exchange      EXHF   =         0.00000000
  -V(xc)+E(xc)   XCENC  =      -694.72613709
  PAW double counting   =     12756.66519728   -11809.76647117
  entropy T*S    EENTRO =         0.01142977
  eigenvalues    EBANDS =       133.28508655
  atomic energy  EATOM  =      8465.11600846
  ---------------------------------------------------
  free energy    TOTEN  =       -62.56390739 eV

  energy without entropy =      -62.57533716  energy(sigma->0) =      -62.56771732


--------------------------------------------------------------------------------------------------------




--------------------------------------- Iteration      1(  10)  ---------------------------------------


    POTLOK:  cpu time    0.2473: real time    0.2477
    SETDIJ:  cpu time    0.3240: real time    0.3242
    TRIAL :  cpu time    7.8145: real time    8.0220
    CORREC:  cpu time    3.0322: real time    3.7261
    CHARGE:  cpu time    0.9185: real time    0.9203
    --------------------------------------------
      LOOP:  cpu time   12.3431: real time   13.2480

 eigenvalue-minimisations  :     0
 total energy-change (2. order) :-0.1463174E+03  (-0.1026773E+02)
 number of electron     179.9999996 magnetization      22.5425988
 augmentation part       57.7749160 magnetization      15.3347200

 Free energy of the ion-electron system (eV)
  ---------------------------------------------------
  alpha Z        PSCENC =       532.25742704
  Ewald energy   TEWEN  =     -8601.05107233
  -Hartree energ DENC   =     -1376.50122222
  -exchange      EXHF   =         0.00000000
  -V(xc)+E(xc)   XCENC  =      -676.51398517
  PAW double counting   =     13673.11529280   -12842.62511427
  entropy T*S    EENTRO =         0.00480416
  eigenvalues    EBANDS =       617.30994414
  atomic energy  EATOM  =      8465.11600846
  ---------------------------------------------------
  free energy    TOTEN  =      -208.88129178 eV

  energy without entropy =     -208.88609594  energy(sigma->0) =     -208.88289316


--------------------------------------------------------------------------------------------------------




--------------------------------------- Iteration      1(  11)  ---------------------------------------


    POTLOK:  cpu time    0.2432: real time    0.2664
    SETDIJ:  cpu time    0.3147: real time    0.3148
    TRIAL :  cpu time    8.1482: real time    8.3372
    CORREC:  cpu time    2.9143: real time    2.9677
    CHARGE:  cpu time    0.9133: real time    0.9374
    --------------------------------------------
      LOOP:  cpu time   12.5353: real time   12.8258

 eigenvalue-minimisations  :     0
 total energy-change (2. order) :-0.1027755E+02  (-0.9556602E+01)
 number of electron     179.9999996 magnetization      23.4070292
 augmentation part       59.1783661 magnetization      16.2240950

 Free energy of the ion-electron system (eV)
  ---------------------------------------------------
  alpha Z        PSCENC =       532.25742704
  Ewald energy   TEWEN  =     -8601.05107233
  -Hartree energ DENC   =     -1570.20340229
  -exchange      EXHF   =         0.00000000
  -V(xc)+E(xc)   XCENC  =      -669.64996311
  PAW double counting   =     14455.01279747   -13658.54370505
  entropy T*S    EENTRO =         0.00443045
  eigenvalues    EBANDS =       827.89826465
  atomic energy  EATOM  =      8465.11600846
  ---------------------------------------------------
  free energy    TOTEN  =      -219.15884099 eV

  energy without entropy =     -219.16327144  energy(sigma->0) =     -219.16031781


--------------------------------------------------------------------------------------------------------




--------------------------------------- Iteration      1(  12)  ---------------------------------------


    POTLOK:  cpu time    0.2480: real time    0.2480
    SETDIJ:  cpu time    0.3111: real time    0.3518
    TRIAL :  cpu time    7.0888: real time    7.2675
    CORREC:  cpu time    3.8811: real time    3.9661
    CHARGE:  cpu time    0.9142: real time    0.9144
    --------------------------------------------
      LOOP:  cpu time   12.4501: real time   12.7558

 eigenvalue-minimisations  :     0
 total energy-change (2. order) :-0.9549585E+01  (-0.5565377E+01)
 number of electron     179.9999997 magnetization      23.4403138
 augmentation part       58.1136732 magnetization      16.3200070

 Free energy of the ion-electron system (eV)
  ---------------------------------------------------
  alpha Z        PSCENC =       532.25742704
  Ewald energy   TEWEN  =     -8601.05107233
  -Hartree energ DENC   =     -1713.60973440
  -exchange      EXHF   =         0.00000000
  -V(xc)+E(xc)   XCENC  =      -665.11426253
  PAW double counting   =     14402.38463787   -13604.58954552
  entropy T*S    EENTRO =         0.01584376
  eigenvalues    EBANDS =       955.89368476
  atomic energy  EATOM  =      8465.11600846
  ---------------------------------------------------
  free energy    TOTEN  =      -228.70842621 eV

  energy without entropy =     -228.72426996  energy(sigma->0) =     -228.71370746


--------------------------------------------------------------------------------------------------------




--------------------------------------- Iteration      1(  13)  ---------------------------------------


    POTLOK:  cpu time    0.2479: real time    0.2486
    SETDIJ:  cpu time    0.3209: real time    0.3217
    TRIAL :  cpu time    7.0225: real time    7.2753
    CORREC:  cpu time    2.9080: real time    3.0111
    CHARGE:  cpu time    0.9305: real time    0.9563
    --------------------------------------------
      LOOP:  cpu time   11.4338: real time   11.8195

 eigenvalue-minimisations  :     0
 total energy-change (2. order) :-0.5364634E+01  (-0.8898044E+00)
 number of electron     179.9999997 magnetization      23.4037326
 augmentation part       57.2954010 magnetization      16.1666415

 Free energy of the ion-electron system (eV)
  ---------------------------------------------------
  alpha Z        PSCENC =       532.25742704
  Ewald energy   TEWEN  =     -8601.05107233
  -Hartree energ DENC   =     -1700.46551509
  -exchange      EXHF   =         0.00000000
  -V(xc)+E(xc)   XCENC  =      -666.07392306
  PAW double counting   =     14094.91804586   -13271.30749256
  entropy T*S    EENTRO =         0.01723583
  eigenvalues    EBANDS =       912.51761731
  atomic energy  EATOM  =      8465.11600846
  ---------------------------------------------------
  free energy    TOTEN  =      -234.07306062 eV

  energy without entropy =     -234.09029645  energy(sigma->0) =     -234.07880590


--------------------------------------------------------------------------------------------------------




--------------------------------------- Iteration      1(  14)  ---------------------------------------


    POTLOK:  cpu time    0.2478: real time    0.2481
    SETDIJ:  cpu time    0.3195: real time    0.3202
    TRIAL :  cpu time    7.7914: real time    8.0416
    CORREC:  cpu time    2.8178: real time    2.8608
    CHARGE:  cpu time    0.9179: real time    0.9487
    --------------------------------------------
      LOOP:  cpu time   12.0994: real time   12.4272

 eigenvalue-minimisations  :     0
 total energy-change (2. order) :-0.8849696E+00  (-0.8831629E+00)
 number of electron     179.9999996 magnetization      23.5060381
 augmentation part       57.4317232 magnetization      16.0899359

 Free energy of the ion-electron system (eV)
  ---------------------------------------------------
  alpha Z        PSCENC =       532.25742704
  Ewald energy   TEWEN  =     -8601.05107233
  -Hartree energ DENC   =     -1655.80049807
  -exchange      EXHF   =         0.00000000
  -V(xc)+E(xc)   XCENC  =      -667.67404340
  PAW double counting   =     13752.03896225   -12916.13480396
  entropy T*S    EENTRO =         0.02286353
  eigenvalues    EBANDS =       856.27275399
  atomic energy  EATOM  =      8465.11600846
  ---------------------------------------------------
  free energy    TOTEN  =      -234.95803021 eV

  energy without entropy =     -234.98089374  energy(sigma->0) =     -234.96565138


--------------------------------------------------------------------------------------------------------




--------------------------------------- Iteration      1(  15)  ---------------------------------------


    POTLOK:  cpu time    0.2487: real time    0.2487
    SETDIJ:  cpu time    0.3194: real time    0.3195
    TRIAL :  cpu time    7.2171: real time    8.0793
    CORREC:  cpu time    2.8510: real time    2.9238
    CHARGE:  cpu time    0.9195: real time    0.9332
    --------------------------------------------
      LOOP:  cpu time   11.5618: real time   12.5120

 eigenvalue-minimisations  :     0
 total energy-change (2. order) :-0.8831597E+00  (-0.3300289E+00)
 number of electron     179.9999996 magnetization      23.4319777
 augmentation part       57.9255087 magnetization      16.1404540

 Free energy of the ion-electron system (eV)
  ---------------------------------------------------
  alpha Z        PSCENC =       532.25742704
  Ewald energy   TEWEN  =     -8601.05107233
  -Hartree energ DENC   =     -1648.38402181
  -exchange      EXHF   =         0.00000000
  -V(xc)+E(xc)   XCENC  =      -667.74583676
  PAW double counting   =     13205.47066838   -12367.80925465
  entropy T*S    EENTRO =         0.02570145
  eigenvalues    EBANDS =       846.28202828
  atomic energy  EATOM  =      8465.11600846
  ---------------------------------------------------
  free energy    TOTEN  =      -235.84118987 eV

  energy without entropy =     -235.86689132  energy(sigma->0) =     -235.84975702


--------------------------------------------------------------------------------------------------------




--------------------------------------- Iteration      1(  16)  ---------------------------------------


    POTLOK:  cpu time    0.2476: real time    0.2477
    SETDIJ:  cpu time    0.3241: real time    0.3241
    TRIAL :  cpu time    7.1388: real time    7.2828
    CORREC:  cpu time    3.5598: real time    3.6647
    CHARGE:  cpu time    0.9189: real time    0.9192
    --------------------------------------------
      LOOP:  cpu time   12.2350: real time   12.4890

 eigenvalue-minimisations  :     0
 total energy-change (2. order) :-0.3301718E+00  (-0.1654917E+00)
 number of electron     179.9999996 magnetization      23.5370867
 augmentation part       58.2407442 magnetization      16.3309152

 Free energy of the ion-electron system (eV)
  ---------------------------------------------------
  alpha Z        PSCENC =       532.25742704
  Ewald energy   TEWEN  =     -8601.05107233
  -Hartree energ DENC   =     -1667.16559943
  -exchange      EXHF   =         0.00000000
  -V(xc)+E(xc)   XCENC  =      -666.91119455
  PAW double counting   =     13045.87317309   -12212.81647500
  entropy T*S    EENTRO =         0.02893263
  eigenvalues    EBANDS =       868.50066958
  atomic energy  EATOM  =      8465.11600846
  ---------------------------------------------------
  free energy    TOTEN  =      -236.17136170 eV

  energy without entropy =     -236.20029433  energy(sigma->0) =     -236.18100591


--------------------------------------------------------------------------------------------------------




--------------------------------------- Iteration      1(  17)  ---------------------------------------


    POTLOK:  cpu time    0.2500: real time    0.2501
    SETDIJ:  cpu time    0.2923: real time    0.4143
    TRIAL :  cpu time    7.0804: real time    7.1750
    CORREC:  cpu time    2.8011: real time    2.8702
    CHARGE:  cpu time    0.8962: real time    0.9250
    --------------------------------------------
      LOOP:  cpu time   11.3298: real time   11.6453

 eigenvalue-minimisations  :     0
 total energy-change (2. order) :-0.1654371E+00  (-0.1407260E+00)
 number of electron     179.9999996 magnetization      23.5735185
 augmentation part       58.1345060 magnetization      16.4875210

 Free energy of the ion-electron system (eV)
  ---------------------------------------------------
  alpha Z        PSCENC =       532.25742704
  Ewald energy   TEWEN  =     -8601.05107233
  -Hartree energ DENC   =     -1680.27950313
  -exchange      EXHF   =         0.00000000
  -V(xc)+E(xc)   XCENC  =      -666.25620508
  PAW double counting   =     13005.45339753   -12175.87204355
  entropy T*S    EENTRO =         0.03212167
  eigenvalues    EBANDS =       884.26625961
  atomic energy  EATOM  =      8465.11600846
  ---------------------------------------------------
  free energy    TOTEN  =      -236.33679882 eV

  energy without entropy =     -236.36892049  energy(sigma->0) =     -236.34750605


--------------------------------------------------------------------------------------------------------




--------------------------------------- Iteration      1(  18)  ---------------------------------------


    POTLOK:  cpu time    0.2483: real time    0.2486
    SETDIJ:  cpu time    0.3212: real time    0.3213
    TRIAL :  cpu time    8.2013: real time    8.4893
    CORREC:  cpu time    2.8468: real time    2.9007
    CHARGE:  cpu time    0.9166: real time    0.9171
    --------------------------------------------
      LOOP:  cpu time   12.5373: real time   12.8803

 eigenvalue-minimisations  :     0
 total energy-change (2. order) :-0.1404038E+00  (-0.4855471E-01)
 number of electron     179.9999996 magnetization      23.6126758
 augmentation part       57.9493529 magnetization      16.5482870

 Free energy of the ion-electron system (eV)
  ---------------------------------------------------
  alpha Z        PSCENC =       532.25742704
  Ewald energy   TEWEN  =     -8601.05107233
  -Hartree energ DENC   =     -1672.57609488
  -exchange      EXHF   =         0.00000000
  -V(xc)+E(xc)   XCENC  =      -666.33780328
  PAW double counting   =     12973.81098240   -12143.25215903
  entropy T*S    EENTRO =         0.03350783
  eigenvalues    EBANDS =       875.52338735
  atomic energy  EATOM  =      8465.11600846
  ---------------------------------------------------
  free energy    TOTEN  =      -236.47720261 eV

  energy without entropy =     -236.51071044  energy(sigma->0) =     -236.48837189


--------------------------------------------------------------------------------------------------------




--------------------------------------- Iteration      1(  19)  ---------------------------------------


    POTLOK:  cpu time    0.2480: real time    0.2480
    SETDIJ:  cpu time    0.2859: real time    0.3491
    TRIAL :  cpu time    7.7941: real time    8.0353
    CORREC:  cpu time    2.8499: real time    2.8835
    CHARGE:  cpu time    0.9166: real time    0.9170
    --------------------------------------------
      LOOP:  cpu time   12.0981: real time   12.4371

 eigenvalue-minimisations  :     0
 total energy-change (2. order) :-0.4838568E-01  (-0.4759879E-01)
 number of electron     179.9999996 magnetization      23.6645207
 augmentation part       57.8340178 magnetization      16.6350681

 Free energy of the ion-electron system (eV)
  ---------------------------------------------------
  alpha Z        PSCENC =       532.25742704
  Ewald energy   TEWEN  =     -8601.05107233
  -Hartree energ DENC   =     -1663.04163504
  -exchange      EXHF   =         0.00000000
  -V(xc)+E(xc)   XCENC  =      -666.60280569
  PAW double counting   =     12962.14117251   -12129.69306511
  entropy T*S    EENTRO =         0.03634469
  eigenvalues    EBANDS =       864.31487403
  atomic energy  EATOM  =      8465.11600846
  ---------------------------------------------------
  free energy    TOTEN  =      -236.52558829 eV

  energy without entropy =     -236.56193298  energy(sigma->0) =     -236.53770318


--------------------------------------------------------------------------------------------------------




--------------------------------------- Iteration      1(  20)  ---------------------------------------


    POTLOK:  cpu time    0.2430: real time    0.2665
    SETDIJ:  cpu time    0.3181: real time    0.3182
    TRIAL :  cpu time    7.7663: real time    7.9195
    CORREC:  cpu time    3.8514: real time    3.9871
    CHARGE:  cpu time    0.9175: real time    0.9179
    --------------------------------------------
      LOOP:  cpu time   13.1050: real time   13.4183

 eigenvalue-minimisations  :     0
 total energy-change (2. order) :-0.4763341E-01  (-0.2999965E-01)
 number of electron     179.9999996 magnetization      23.7290744
 augmentation part       57.9209879 magnetization      16.7295817

 Free energy of the ion-electron system (eV)
  ---------------------------------------------------
  alpha Z        PSCENC =       532.25742704
  Ewald energy   TEWEN  =     -8601.05107233
  -Hartree energ DENC   =     -1659.13167841
  -exchange      EXHF   =         0.00000000
  -V(xc)+E(xc)   XCENC  =      -666.64939816
  PAW double counting   =     12967.36816741   -12134.02573658
  entropy T*S    EENTRO =         0.03855417
  eigenvalues    EBANDS =       859.50671617
  atomic energy  EATOM  =      8465.11600846
  ---------------------------------------------------
  free energy    TOTEN  =      -236.57322170 eV

  energy without entropy =     -236.61177587  energy(sigma->0) =     -236.58607309


--------------------------------------------------------------------------------------------------------




--------------------------------------- Iteration      1(  21)  ---------------------------------------


    POTLOK:  cpu time    0.2487: real time    0.2488
    SETDIJ:  cpu time    0.3538: real time    0.3656
    TRIAL :  cpu time    7.1113: real time    7.2524
    CORREC:  cpu time    2.8783: real time    2.9757
    CHARGE:  cpu time    0.9013: real time    0.9399
    --------------------------------------------
      LOOP:  cpu time   11.4968: real time   11.7868

 eigenvalue-minimisations  :     0
 total energy-change (2. order) :-0.2997237E-01  (-0.1251519E-01)
 number of electron     179.9999996 magnetization      23.7860244
 augmentation part       57.9946093 magnetization      16.7946117

 Free energy of the ion-electron system (eV)
  ---------------------------------------------------
  alpha Z        PSCENC =       532.25742704
  Ewald energy   TEWEN  =     -8601.05107233
  -Hartree energ DENC   =     -1665.54683355
  -exchange      EXHF   =         0.00000000
  -V(xc)+E(xc)   XCENC  =      -666.35207673
  PAW double counting   =     12986.56228522   -12154.48418442
  entropy T*S    EENTRO =         0.04017637
  eigenvalues    EBANDS =       866.85669807
  atomic energy  EATOM  =      8465.11600846
  ---------------------------------------------------
  free energy    TOTEN  =      -236.60319407 eV

  energy without entropy =     -236.64337044  energy(sigma->0) =     -236.61658619


--------------------------------------------------------------------------------------------------------




--------------------------------------- Iteration      1(  22)  ---------------------------------------


    POTLOK:  cpu time    0.9629: real time    0.9843
    SETDIJ:  cpu time    0.3041: real time    0.3305
    TRIAL :  cpu time    7.0477: real time    7.1320
    CORREC:  cpu time    2.8583: real time    2.9579
    CHARGE:  cpu time    0.9128: real time    0.9133
    --------------------------------------------
      LOOP:  cpu time   12.2983: real time   12.5635

 eigenvalue-minimisations  :     0
 total energy-change (2. order) :-0.1251557E-01  (-0.1144640E-01)
 number of electron     179.9999996 magnetization      23.8790507
 augmentation part       57.9717012 magnetization      16.8657317

 Free energy of the ion-electron system (eV)
  ---------------------------------------------------
  alpha Z        PSCENC =       532.25742704
  Ewald energy   TEWEN  =     -8601.05107233
  -Hartree energ DENC   =     -1670.10014389
  -exchange      EXHF   =         0.00000000
  -V(xc)+E(xc)   XCENC  =      -666.15481930
  PAW double counting   =     12992.87645681   -12161.70470496
  entropy T*S    EENTRO =         0.04196520
  eigenvalues    EBANDS =       872.10496217
  atomic energy  EATOM  =      8465.11600846
  ---------------------------------------------------
  free energy    TOTEN  =      -236.61570963 eV

  energy without entropy =     -236.65767484  energy(sigma->0) =     -236.62969803


--------------------------------------------------------------------------------------------------------




--------------------------------------- Iteration      1(  23)  ---------------------------------------


    POTLOK:  cpu time    0.2482: real time    0.2482
    SETDIJ:  cpu time    0.3212: real time    0.3218
    TRIAL :  cpu time    7.7836: real time    8.0802
    CORREC:  cpu time    2.8335: real time    2.8984
    CHARGE:  cpu time    0.9142: real time    0.9567
    --------------------------------------------
      LOOP:  cpu time   12.1047: real time   12.5111

 eigenvalue-minimisations  :     0
 total energy-change (2. order) :-0.1144514E-01  (-0.6209615E-02)
 number of electron     179.9999996 magnetization      23.9588043
 augmentation part       57.9174752 magnetization      16.9235944

 Free energy of the ion-electron system (eV)
  ---------------------------------------------------
  alpha Z        PSCENC =       532.25742704
  Ewald energy   TEWEN  =     -8601.05107233
  -Hartree energ DENC   =     -1669.11893970
  -exchange      EXHF   =         0.00000000
  -V(xc)+E(xc)   XCENC  =      -666.15527141
  PAW double counting   =     12983.65727417   -12152.20944554
  entropy T*S    EENTRO =         0.04320031
  eigenvalues    EBANDS =       870.83489935
  atomic energy  EATOM  =      8465.11600846
  ---------------------------------------------------
  free energy    TOTEN  =      -236.62715477 eV

  energy without entropy =     -236.67035508  energy(sigma->0) =     -236.64155487


--------------------------------------------------------------------------------------------------------




--------------------------------------- Iteration      1(  24)  ---------------------------------------


    POTLOK:  cpu time    0.2477: real time    0.2478
    SETDIJ:  cpu time    0.3360: real time    0.3361
    TRIAL :  cpu time    7.7959: real time    8.3234
    CORREC:  cpu time    2.8914: real time    2.9221
    CHARGE:  cpu time    0.8962: real time    0.9246
    --------------------------------------------
      LOOP:  cpu time   12.1721: real time   12.7596

 eigenvalue-minimisations  :     0
 total energy-change (2. order) :-0.6210040E-02  (-0.6946448E-02)
 number of electron     179.9999996 magnetization      24.0604933
 augmentation part       57.9117209 magnetization      17.0197687

 Free energy of the ion-electron system (eV)
  ---------------------------------------------------
  alpha Z        PSCENC =       532.25742704
  Ewald energy   TEWEN  =     -8601.05107233
  -Hartree energ DENC   =     -1666.00240814
  -exchange      EXHF   =         0.00000000
  -V(xc)+E(xc)   XCENC  =      -666.24118391
  PAW double counting   =     12972.05284638   -12139.92254589
  entropy T*S    EENTRO =         0.04482624
  eigenvalues    EBANDS =       867.11436328
  atomic energy  EATOM  =      8465.11600846
  ---------------------------------------------------
  free energy    TOTEN  =      -236.63336481 eV

  energy without entropy =     -236.67819105  energy(sigma->0) =     -236.64830689


--------------------------------------------------------------------------------------------------------




--------------------------------------- Iteration      1(  25)  ---------------------------------------


    POTLOK:  cpu time    0.2441: real time    0.2801
    SETDIJ:  cpu time    0.3171: real time    0.3172
    TRIAL :  cpu time    7.8476: real time    8.0000
    CORREC:  cpu time    3.5442: real time    3.6427
    CHARGE:  cpu time    0.9141: real time    0.9143
    --------------------------------------------
      LOOP:  cpu time   12.8685: real time   13.1566

 eigenvalue-minimisations  :     0
 total energy-change (2. order) :-0.6943210E-02  (-0.3673853E-02)
 number of electron     179.9999996 magnetization      24.1411723
[...]
  8.441  14.385   0.000  -0.000   0.000   0.000  -0.000   0.000
 14.385  24.515   0.000  -0.000   0.000   0.000  -0.000   0.000
  0.000   0.000   1.996  -0.000   0.000   5.750  -0.000   0.000
 -0.000  -0.000  -0.000   1.996   0.000  -0.000   5.749   0.000
  0.000   0.000   0.000   0.000   1.996   0.000   0.000   5.750
  0.000   0.000   5.750  -0.000   0.000  16.480  -0.000   0.000
 -0.000  -0.000  -0.000   5.749   0.000  -0.000  16.475   0.000
  0.000   0.000   0.000   0.000   5.750   0.000   0.000  16.480
 total augmentation occupancy for first ion, spin component:           1
  4.349  -1.236   0.000   0.000   0.000   0.000   0.000   0.000
 -1.236   0.370   0.000   0.000   0.000   0.000   0.000   0.000
  0.000   0.000   1.387   0.003  -0.001  -0.099  -0.000   0.000
  0.000   0.000   0.003   1.510  -0.003  -0.000  -0.102   0.000
  0.000   0.000  -0.001  -0.003   1.387   0.000   0.000  -0.099
  0.000   0.000  -0.099  -0.000   0.000   0.007   0.000  -0.000
  0.000   0.000  -0.000  -0.102   0.000   0.000   0.007  -0.000
  0.000   0.000   0.000   0.000  -0.099  -0.000  -0.000   0.007
 total augmentation occupancy for first ion, spin component:           2
 -0.232   0.071   0.000   0.000   0.000   0.000   0.000   0.000
  0.071  -0.022   0.000   0.000   0.000   0.000   0.000   0.000
  0.000   0.000  -0.082   0.007   0.003   0.005  -0.000  -0.000
  0.000   0.000   0.007  -0.159  -0.007  -0.000   0.007   0.000
  0.000   0.000   0.003  -0.007  -0.082  -0.000   0.000   0.005
  0.000   0.000   0.005  -0.000  -0.000  -0.000   0.000   0.000
  0.000   0.000  -0.000   0.007   0.000   0.000  -0.000  -0.000
  0.000   0.000  -0.000   0.000   0.005   0.000  -0.000  -0.000


------------------------ aborting loop because EDIFF is reached ----------------------------------------


 


 total charge     
 
# of ion       s       p       d       tot
------------------------------------------
    1        0.406   0.423   0.000   0.829
    2        0.405   0.423   0.000   0.828
    3        0.405   0.428   0.000   0.832
    4        0.405   0.427   0.000   0.832
    5        0.405   0.428   0.000   0.832
    6        0.405   0.427   0.000   0.832
    7        0.405   0.427   0.000   0.832
    8        0.404   0.427   0.000   0.832
    9        0.404   0.428   0.000   0.832
   10        0.404   0.428   0.000   0.832
   11        0.405   0.427   0.000   0.831
   12        0.405   0.427   0.000   0.832
   13        0.405   0.427   0.000   0.832
   14        0.404   0.427   0.000   0.832
   15        0.405   0.427   0.000   0.831
   16        0.405   0.427   0.000   0.832
   17        0.404   0.428   0.000   0.832
   18        0.404   0.428   0.000   0.832
   19        0.334   0.350   5.148   5.832
   20        0.332   0.354   5.127   5.813
   21        0.333   0.358   5.147   5.838
   22        0.331   0.349   5.147   5.828
   23        0.331   0.344   5.160   5.835
   24        0.337   0.359   5.115   5.810
   25        0.331   0.349   5.161   5.841
   26        0.332   0.362   5.090   5.783
   27        0.337   0.354   5.121   5.812
   28        0.337   0.354   5.121   5.812
   29        0.332   0.362   5.090   5.783
   30        0.331   0.349   5.161   5.841
   31        0.337   0.359   5.115   5.810
   32        0.331   0.344   5.160   5.835
   33        0.331   0.349   5.147   5.828
   34        0.333   0.358   5.147   5.838
   35        0.332   0.354   5.127   5.813
   36        0.334   0.350   5.148   5.832
--------------------------------------------------
tot         13.278  14.043  92.431 119.753
 


 magnetization (x)
 
# of ion       s       p       d       tot
------------------------------------------
    1       -0.018  -0.035   0.000  -0.053
    2       -0.018  -0.035   0.000  -0.053
    3       -0.012  -0.021   0.000  -0.034
    4       -0.012  -0.021   0.000  -0.033
    5       -0.012  -0.021   0.000  -0.034
    6       -0.012  -0.021   0.000  -0.033
    7       -0.012  -0.019   0.000  -0.031
    8       -0.012  -0.019   0.000  -0.032
    9       -0.011  -0.019   0.000  -0.030
   10       -0.011  -0.019   0.000  -0.030
   11       -0.011  -0.017   0.000  -0.027
   12       -0.011  -0.017   0.000  -0.027
   13       -0.012  -0.019   0.000  -0.031
   14       -0.012  -0.019   0.000  -0.032
   15       -0.011  -0.017   0.000  -0.027
   16       -0.011  -0.017   0.000  -0.027
   17       -0.011  -0.019   0.000  -0.030
   18       -0.011  -0.019   0.000  -0.030
   19        0.022   0.018   2.282   2.322
   20        0.021   0.016   2.304   2.341
   21        0.014   0.030   2.291   2.335
   22       -0.030  -0.032  -2.009  -2.071
   23        0.013  -0.003   2.173   2.182
   24        0.028   0.039   2.424   2.491
   25       -0.029  -0.030  -2.007  -2.067
   26        0.013   0.031   2.325   2.369
   27        0.035   0.023   2.534   2.592
   28        0.035   0.023   2.534   2.592
   29        0.013   0.031   2.325   2.369
   30       -0.029  -0.030  -2.007  -2.067
   31        0.028   0.039   2.424   2.491
   32        0.013  -0.003   2.173   2.182
   33       -0.030  -0.032  -2.009  -2.071
   34        0.014   0.030   2.291   2.335
   35        0.021   0.016   2.304   2.341
   36        0.022   0.018   2.282   2.322
--------------------------------------------------
tot         -0.049  -0.189  24.634  24.396
 
    FORLOC:  cpu time    0.0291: real time    0.0291
    FORNL :  cpu time   10.5829: real time   11.3457
    STRESS:  cpu time   15.5969: real time   15.7689
    FORCOR:  cpu time    0.2730: real time    0.2730
    OFIELD:  cpu time    0.0015: real time    0.0015

  FORCE on cell =-STRESS in cart. coord.  units (eV):
  Direction    XX          YY          ZZ          XY          YZ          ZX
  --------------------------------------------------------------------------------------
  Alpha Z   532.25743   532.25743   532.25743
  Ewald   -2702.40749 -2702.40749 -3196.26924    -0.00000    -0.00000    -0.00000
  Hartree   721.70066   721.70066   224.05563    -0.31320    -0.00000    -0.00000
  E(xc)    -759.73496  -759.73496  -759.81280     0.09571    -0.00000    -0.00000
  Local     248.31516   248.31516  1264.15977     0.99821     0.00000    -0.00000
  n-local  -113.38456  -111.06595  -124.00147    -0.37920    -0.22340    -0.13737
  augment   520.63919   520.63919   514.59327    -0.19751     0.00001     0.00001
  Kinetic  1552.60313  1559.70036  1542.97941    -1.05138     1.39841     0.16611
  Fock        0.00000     0.00000     0.00000     0.00000     0.00000     0.00000
  -------------------------------------------------------------------------------------
  Total       4.69648     4.69648    -2.03802    -0.84392    -0.00000     0.00000
  in kB      15.89903    15.89903    -6.89932    -2.85694    -0.00000     0.00000
  external pressure =        8.30 kB  Pullay stress =        0.00 kB


 VOLUME and BASIS-vectors are now :
 -----------------------------------------------------------------------------
  energy-cutoff  :      404.80
  volume of cell :      473.27
      direct lattice vectors                 reciprocal lattice vectors
     8.250148166  0.000000000  0.000000000     0.121209944  0.000000000  0.000000000
     0.000000000  8.250148166  0.000000000     0.000000000  0.121209944  0.000000000
     0.000000000  0.000000000  6.953274261     0.000000000  0.000000000  0.143817137

  length of vectors
     8.250148166  8.250148166  6.953274261     0.121209944  0.121209944  0.143817137


 FORCES acting on ions:
    Electron-Ion                     Ewald-Force                    Non-Local-Force
 -----------------------------------------------------------------------------------------------
   -.280E-10 -.228E-10 -.191E-08   -.239E-08 -.239E-08 0.411E-08   0.000E+00 0.000E+00 0.000E+00
   -.228E-10 -.280E-10 -.191E-08   -.239E-08 -.239E-08 0.411E-08   0.000E+00 0.000E+00 0.000E+00
   0.408E-01 -.184E+00 0.356E-01   -.239E-08 -.802E-09 0.411E-08   -.169E-02 -.104E-02 -.374E-01
   0.408E-01 -.184E+00 -.356E-01   -.239E-08 -.802E-09 0.411E-08   -.169E-02 -.104E-02 0.374E-01
   -.408E-01 0.184E+00 -.356E-01   -.239E-08 0.631E-08 0.411E-08   0.169E-02 0.104E-02 0.374E-01
   -.408E-01 0.184E+00 0.356E-01   -.239E-08 0.631E-08 0.411E-08   0.169E-02 0.104E-02 -.374E-01
   -.184E+00 0.408E-01 -.356E-01   -.802E-09 -.239E-08 0.411E-08   -.104E-02 -.169E-02 0.374E-01
   -.184E+00 0.408E-01 0.356E-01   -.802E-09 -.239E-08 0.411E-08   -.104E-02 -.169E-02 -.374E-01
   -.267E-01 -.267E-01 -.181E-08   -.802E-09 -.802E-09 0.411E-08   0.268E-01 0.268E-01 -.217E-18
   -.267E-01 -.267E-01 -.181E-08   -.802E-09 -.802E-09 0.411E-08   0.268E-01 0.268E-01 0.217E-18
   0.249E-01 -.249E-01 0.148E+00   -.802E-09 0.631E-08 0.411E-08   0.324E-02 -.324E-02 -.123E-01
   0.249E-01 -.249E-01 -.148E+00   -.802E-09 0.631E-08 0.411E-08   0.324E-02 -.324E-02 0.123E-01
   0.184E+00 -.408E-01 0.356E-01   0.631E-08 -.239E-08 0.411E-08   0.104E-02 0.169E-02 -.374E-01
   0.184E+00 -.408E-01 -.356E-01   0.631E-08 -.239E-08 0.411E-08   0.104E-02 0.169E-02 0.374E-01
   -.249E-01 0.249E-01 -.148E+00   0.631E-08 -.802E-09 0.411E-08   -.324E-02 0.324E-02 0.123E-01
   -.249E-01 0.249E-01 0.148E+00   0.631E-08 -.802E-09 0.411E-08   -.324E-02 0.324E-02 -.123E-01
   0.267E-01 0.267E-01 -.200E-08   0.631E-08 0.631E-08 0.411E-08   -.268E-01 -.268E-01 0.217E-18
   0.267E-01 0.267E-01 -.201E-08   0.631E-08 0.631E-08 0.411E-08   -.268E-01 -.268E-01 -.217E-18
   -.382E+00 0.120E+00 -.286E-08   -.169E-07 -.169E-07 -.411E-08   0.202E+00 -.104E+00 0.651E-18
   0.120E+00 -.382E+00 -.286E-08   -.169E-07 -.169E-07 -.411E-08   -.104E+00 0.202E+00 -.434E-18
   0.499E+00 -.103E+00 0.209E-10   -.169E-07 0.802E-09 -.411E-08   -.372E+00 0.118E+00 0.130E-17
   0.406E+00 -.983E-01 -.533E-08   -.169E-07 0.802E-09 -.411E-08   -.393E+00 0.170E+00 -.867E-18
   0.428E-02 -.428E-02 -.229E-08   -.169E-07 0.130E-07 -.411E-08   0.605E-01 -.605E-01 -.867E-18
   -.453E+00 0.453E+00 -.231E-08   -.169E-07 0.130E-07 -.411E-08   0.205E+00 -.205E+00 0.000E+00
   -.983E-01 0.406E+00 -.533E-08   0.802E-09 -.169E-07 -.411E-08   0.170E+00 -.393E+00 0.108E-18
   -.103E+00 0.499E+00 0.212E-10   0.802E-09 -.169E-07 -.411E-08   0.118E+00 -.372E+00 -.325E-18
   -.413E+00 0.413E+00 -.225E-08   0.802E-09 0.802E-09 -.411E-08   0.117E+00 -.117E+00 0.434E-18
   0.413E+00 -.413E+00 -.225E-08   0.802E-09 0.802E-09 -.411E-08   -.117E+00 0.117E+00 0.434E-18
   0.103E+00 -.499E+00 -.497E-08   0.802E-09 0.130E-07 -.411E-08   -.118E+00 0.372E+00 -.976E-18
   0.983E-01 -.406E+00 0.778E-09   0.802E-09 0.130E-07 -.411E-08   -.170E+00 0.393E+00 -.108E-18
   0.453E+00 -.453E+00 -.229E-08   0.130E-07 -.169E-07 -.411E-08   -.205E+00 0.205E+00 0.000E+00
   -.428E-02 0.428E-02 -.229E-08   0.130E-07 -.169E-07 -.411E-08   -.605E-01 0.605E-01 0.173E-17
   -.406E+00 0.983E-01 0.790E-09   0.130E-07 0.802E-09 -.411E-08   0.393E+00 -.170E+00 0.867E-18
   -.499E+00 0.103E+00 -.496E-08   0.130E-07 0.802E-09 -.411E-08   0.372E+00 -.118E+00 0.130E-17
   -.120E+00 0.382E+00 -.173E-08   0.130E-07 0.130E-07 -.411E-08   0.104E+00 -.202E+00 0.434E-18
   0.382E+00 -.120E+00 -.174E-08   0.130E-07 0.130E-07 -.411E-08   -.202E+00 0.104E+00 -.217E-18
 -----------------------------------------------------------------------------------------------
   -.300E-07 -.300E-07 -.783E-07   -.197E-14 0.275E-13 0.265E-14   0.111E-15 0.278E-16 0.694E-17
 
 
 POSITION                                       TOTAL-FORCE (eV/Angst)
 -----------------------------------------------------------------------------------
      0.00000      0.00000      0.00000         0.000000      0.000000      0.000000
      0.00000      0.00000      3.47664         0.000000      0.000000      0.000000
      0.00000      2.75005      0.00000         0.039564     -0.183914      0.001934
      0.00000      2.75005      3.47664         0.039564     -0.183914     -0.001934
      0.00000      5.50010      0.00000        -0.039564      0.183914     -0.001934
      0.00000      5.50010      3.47664        -0.039564      0.183914      0.001934
      2.75005      0.00000      0.00000        -0.183914      0.039564     -0.001934
      2.75005      0.00000      3.47664        -0.183914      0.039564      0.001934
      2.75005      2.75005      0.00000        -0.001954     -0.001954      0.000000
      2.75005      2.75005      3.47664        -0.001954     -0.001954      0.000000
      2.75005      5.50010      0.00000         0.028188     -0.028188      0.135679
      2.75005      5.50010      3.47664         0.028188     -0.028188     -0.135679
      5.50010      0.00000      0.00000         0.183914     -0.039564      0.001934
      5.50010      0.00000      3.47664         0.183914     -0.039564     -0.001934
      5.50010      2.75005      0.00000        -0.028188      0.028188     -0.135679
      5.50010      2.75005      3.47664        -0.028188      0.028188      0.135679
      5.50010      5.50010      0.00000         0.001954      0.001954      0.000000
      5.50010      5.50010      3.47664         0.001954      0.001954      0.000000
      1.37502      1.37502      1.73832        -0.191927      0.015418      0.000000
      1.37502      1.37502      5.21496         0.015418     -0.191927      0.000000
      1.37502      4.12507      1.73832         0.132083      0.014086      0.000000
      1.37502      4.12507      5.21496         0.022892      0.072892      0.000000
      1.37502      6.87512      1.73832         0.061352     -0.061352      0.000000
      1.37502      6.87512      5.21496        -0.257048      0.257048      0.000000
      4.12507      1.37502      1.73832         0.072892      0.022892      0.000000
      4.12507      1.37502      5.21496         0.014086      0.132083      0.000000
      4.12507      4.12507      1.73832        -0.305696      0.305696      0.000000
      4.12507      4.12507      5.21496         0.305696     -0.305696      0.000000
      4.12507      6.87512      1.73832        -0.014086     -0.132083      0.000000
      4.12507      6.87512      5.21496        -0.072892     -0.022892      0.000000
      6.87512      1.37502      1.73832         0.257048     -0.257048      0.000000
      6.87512      1.37502      5.21496        -0.061352      0.061352      0.000000
      6.87512      4.12507      1.73832        -0.022892     -0.072892      0.000000
      6.87512      4.12507      5.21496        -0.132083     -0.014086      0.000000
      6.87512      6.87512      1.73832        -0.015418      0.191927      0.000000
      6.87512      6.87512      5.21496         0.191927     -0.015418      0.000000
 -----------------------------------------------------------------------------------
    total drift:                               -0.000000     -0.000000     -0.000000


--------------------------------------------------------------------------------------------------------



  FREE ENERGIE OF THE ION-ELECTRON SYSTEM (eV)
  ---------------------------------------------------
  free  energy   TOTEN  =      -236.65393427 eV

  energy  without entropy=     -236.70548616  energy(sigma->0) =     -236.67111823
 


--------------------------------------------------------------------------------------------------------


    POTLOK:  cpu time    0.6354: real time    0.6356


--------------------------------------------------------------------------------------------------------


     LOOP+:  cpu time  791.7185: real time  813.3876
    4ORBIT:  cpu time    0.0000: real time    0.0000
 


 total charge     
 
# of ion       s       p       d       tot
------------------------------------------
    1        0.406   0.423   0.000   0.829
    2        0.405   0.423   0.000   0.828
    3        0.405   0.428   0.000   0.832
    4        0.405   0.427   0.000   0.832
    5        0.405   0.428   0.000   0.832
    6        0.405   0.427   0.000   0.832
    7        0.405   0.427   0.000   0.832
    8        0.404   0.427   0.000   0.832
    9        0.404   0.428   0.000   0.832
   10        0.404   0.428   0.000   0.832
   11        0.405   0.427   0.000   0.831
   12        0.405   0.427   0.000   0.832
   13        0.405   0.427   0.000   0.832
   14        0.404   0.427   0.000   0.832
   15        0.405   0.427   0.000   0.831
   16        0.405   0.427   0.000   0.832
   17        0.404   0.428   0.000   0.832
   18        0.404   0.428   0.000   0.832
   19        0.334   0.350   5.148   5.832
   20        0.332   0.354   5.127   5.813
   21        0.333   0.358   5.147   5.838
   22        0.331   0.349   5.147   5.828
   23        0.331   0.344   5.160   5.835
   24        0.337   0.359   5.115   5.810
   25        0.331   0.349   5.161   5.841
   26        0.332   0.362   5.090   5.783
   27        0.337   0.354   5.121   5.812
   28        0.337   0.354   5.121   5.812
   29        0.332   0.362   5.090   5.783
   30        0.331   0.349   5.161   5.841
   31        0.337   0.359   5.115   5.810
   32        0.331   0.344   5.160   5.835
   33        0.331   0.349   5.147   5.828
   34        0.333   0.358   5.147   5.838
   35        0.332   0.354   5.127   5.813
   36        0.334   0.350   5.148   5.832
--------------------------------------------------
tot         13.278  14.043  92.431 119.753
 


 magnetization (x)
 
# of ion       s       p       d       tot
------------------------------------------
    1       -0.018  -0.035   0.000  -0.053
    2       -0.018  -0.035   0.000  -0.053
    3       -0.012  -0.021   0.000  -0.034
    4       -0.012  -0.021   0.000  -0.033
    5       -0.012  -0.021   0.000  -0.034
    6       -0.012  -0.021   0.000  -0.033
    7       -0.012  -0.019   0.000  -0.031
    8       -0.012  -0.019   0.000  -0.032
    9       -0.011  -0.019   0.000  -0.030
   10       -0.011  -0.019   0.000  -0.030
   11       -0.011  -0.017   0.000  -0.027
   12       -0.011  -0.017   0.000  -0.027
   13       -0.012  -0.019   0.000  -0.031
   14       -0.012  -0.019   0.000  -0.032
   15       -0.011  -0.017   0.000  -0.027
   16       -0.011  -0.017   0.000  -0.027
   17       -0.011  -0.019   0.000  -0.030
   18       -0.011  -0.019   0.000  -0.030
   19        0.022   0.018   2.282   2.322
   20        0.021   0.016   2.304   2.341
   21        0.014   0.030   2.291   2.335
   22       -0.030  -0.032  -2.009  -2.071
   23        0.013  -0.003   2.173   2.182
   24        0.028   0.039   2.424   2.491
   25       -0.029  -0.030  -2.007  -2.067
   26        0.013   0.031   2.325   2.369
   27        0.035   0.023   2.534   2.592
   28        0.035   0.023   2.534   2.592
   29        0.013   0.031   2.325   2.369
   30       -0.029  -0.030  -2.007  -2.067
   31        0.028   0.039   2.424   2.491
   32        0.013  -0.003   2.173   2.182
   33       -0.030  -0.032  -2.009  -2.071
   34        0.014   0.030   2.291   2.335
   35        0.021   0.016   2.304   2.341
   36        0.022   0.018   2.282   2.322
--------------------------------------------------
tot         -0.049  -0.189  24.634  24.396
 

 total amount of memory used by VASP MPI-rank0   589704. kBytes
=======================================================================

   base      :      30000. kBytes
   nonl-proj :      24142. kBytes
   fftplans  :      21726. kBytes
   grid      :      14732. kBytes
   one-center:        279. kBytes
   wavefun   :     498825. kBytes
 
  
  
 General timing and accounting informations for this job:
 ========================================================
  
                  Total CPU time used (sec):      812.307
                            User time (sec):      795.680
                          System time (sec):       16.627
                         Elapsed time (sec):      837.946
  
                   Maximum memory used (kb):      726096.
                   Average memory used (kb):           0.
  
                          Minor page faults:       257610
                          Major page faults:           15
                 Voluntary context switches:         3156
