 vasp.5.4.4.18Apr17-6-g9f103f2a35 (build Dec 20 2018 12:05:58) complex          
  
 executed on             LinuxIFC date 2019.06.20  18:50:25
 running on   32 total cores
 distrk:  each k-point on    8 cores,    4 groups
 distr:  one band on NCORES_PER_BAND=   4 cores,    2 groups


--------------------------------------------------------------------------------------------------------


 INCAR:
 POTCAR:    PAW_PBE Al 04Jan2001                  
 POTCAR:    PAW_PBE Mn 06Sep2000                  

 ----------------------------------------------------------------------------- 
|                                                                             |
|           W    W    AA    RRRRR   N    N  II  N    N   GGGG   !!!           |
|           W    W   A  A   R    R  NN   N  II  NN   N  G    G  !!!           |
|           W    W  A    A  R    R  N N  N  II  N N  N  G       !!!           |
|           W WW W  AAAAAA  RRRRR   N  N N  II  N  N N  G  GGG   !            |
|           WW  WW  A    A  R   R   N   NN  II  N   NN  G    G                |
|           W    W  A    A  R    R  N    N  II  N    N   GGGG   !!!           |
|                                                                             |
|      You have enabled k-point parallelism (KPAR>1).                         |
|      This developmental code was originally  written by Paul Kent at ORNL,  |
|      and carefully double checked in Vienna.                                |
|      GW as well as linear response parallelism added by Martijn Marsman     |
|      and Georg Kresse.                                                      |
|      Carefully verify results versus KPAR=1.                                |
|      Report problems to Paul Kent and Vienna.                               |
|                                                                             |
 ----------------------------------------------------------------------------- 

 POTCAR:    PAW_PBE Al 04Jan2001                  
   VRHFIN =Al: s2p1                                                             
   LEXCH  = PE                                                                  
   EATOM  =    53.5387 eV,    3.9350 Ry                                         
                                                                                
   TITEL  = PAW_PBE Al 04Jan2001                                                
   LULTRA =        F    use ultrasoft PP ?                                      
   IUNSCR =        1    unscreen: 0-lin 1-nonlin 2-no                           
   RPACOR =    1.500    partial core radius                                     
   POMASS =   26.981; ZVAL   =    3.000    mass and valenz                      
   RCORE  =    1.900    outmost cutoff radius                                   
   RWIGS  =    2.650; RWIGS  =    1.402    wigner-seitz radius (au A)           
   ENMAX  =  240.300; ENMIN  =  180.225 eV                                      
   ICORE  =        2    local potential                                         
   LCOR   =        T    correct aug charges                                     
   LPAW   =        T    paw PP                                                  
   EAUG   =  291.052                                                            
   DEXC   =    0.000                                                            
   RMAX   =    1.939    core radius for proj-oper                               
   RAUG   =    1.300    factor for augmentation sphere                          
   RDEP   =    1.966    radius for radial grids                                 
   RDEPT  =    1.856    core radius for aug-charge                              
                                                                                
   Atomic configuration                                                         
    6 entries                                                                   
     n  l   j            E        occ.                                          
     1  0  0.50     -1511.1048   2.0000                                         
     2  0  0.50      -108.1629   2.0000                                         
     2  1  1.50       -69.6402   6.0000                                         
     3  0  0.50        -7.7528   2.0000                                         
     3  1  1.50        -2.7121   1.0000                                         
     3  2  2.50        -2.7212   0.0000                                         
   Description                                                                  
     l       E           TYP  RCUT    TYP  RCUT                                 
     0     -7.7528455     23  1.900                                             
     0     -3.3096929     23  1.900                                             
     1     -2.7120682     23  1.900                                             
     1     13.6058260     23  1.900                                             
     2     -2.7211652      7  1.900                                             
  local pseudopotential read in
  partial core-charges read in
  partial kinetic energy density read in
  atomic valenz-charges read in
  non local Contribution for L=           0  read in
    real space projection operators read in
  non local Contribution for L=           0  read in
    real space projection operators read in
  non local Contribution for L=           1  read in
    real space projection operators read in
  non local Contribution for L=           1  read in
    real space projection operators read in
    PAW grid and wavefunctions read in
 
   number of l-projection  operators is LMAX  =           4
   number of lm-projection operators is LMMAX =           8
 
 POTCAR:    PAW_PBE Mn 06Sep2000                  
   VRHFIN =Mn: d6 s1                                                            
   LEXCH  = PE                                                                  
   EATOM  =   416.7541 eV,   30.6306 Ry                                         
                                                                                
   TITEL  = PAW_PBE Mn 06Sep2000                                                
   LULTRA =        F    use ultrasoft PP ?                                      
   IUNSCR =        1    unscreen: 0-lin 1-nonlin 2-no                           
   RPACOR =    2.000    partial core radius                                     
   POMASS =   54.938; ZVAL   =    7.000    mass and valenz                      
   RCORE  =    2.300    outmost cutoff radius                                   
   RWIGS  =    2.500; RWIGS  =    1.323    wigner-seitz radius (au A)           
   ENMAX  =  269.864; ENMIN  =  202.398 eV                                      
   RCLOC  =    1.725    cutoff for local pot                                    
   LCOR   =        T    correct aug charges                                     
   LPAW   =        T    paw PP                                                  
   EAUG   =  500.711                                                            
   DEXC   =    0.000                                                            
   RMAX   =    2.343    core radius for proj-oper                               
   RAUG   =    1.300    factor for augmentation sphere                          
   RDEP   =    2.338    radius for radial grids                                 
   RDEPT  =    1.911    core radius for aug-charge                              
                                                                                
   Atomic configuration                                                         
    9 entries                                                                   
     n  l   j            E        occ.                                          
     1  0  0.50     -6424.8288   2.0000                                         
     2  0  0.50      -739.1154   2.0000                                         
     2  1  1.50      -625.3949   6.0000                                         
     3  0  0.50       -81.6100   2.0000                                         
     3  1  1.50       -50.4667   6.0000                                         
     3  2  2.50        -3.3745   6.0000                                         
     4  0  0.50        -4.1331   1.0000                                         
     4  1  0.50        -4.0817   0.0000                                         
     4  3  2.50        -1.3606   0.0000                                         
   Description                                                                  
     l       E           TYP  RCUT    TYP  RCUT                                 
     2     -3.3744664     23  2.300                                             
     2     -4.7350490     23  2.300                                             
     0     -4.1331408     23  2.300                                             
     0      7.6656614     23  2.300                                             
     1     -2.7211652     23  2.300                                             
     1     20.4087390     23  2.300                                             
  local pseudopotential read in
  partial core-charges read in
  partial kinetic energy density read in
  atomic valenz-charges read in
  non local Contribution for L=           2  read in
    real space projection operators read in
  non local Contribution for L=           2  read in
    real space projection operators read in
  non local Contribution for L=           0  read in
    real space projection operators read in
  non local Contribution for L=           0  read in
    real space projection operators read in
  non local Contribution for L=           1  read in
    real space projection operators read in
  non local Contribution for L=           1  read in
    real space projection operators read in
    PAW grid and wavefunctions read in
 
   number of l-projection  operators is LMAX  =           6
   number of lm-projection operators is LMMAX =          18
 

 ----------------------------------------------------------------------------- 
|                                                                             |
|  ADVICE TO THIS USER RUNNING 'VASP/VAMP'   (HEAR YOUR MASTER'S VOICE ...):  |
|                                                                             |
|      You have a (more or less) 'large supercell' and for larger cells       |
|      it might be more efficient to use real space projection opertators     |
|      So try LREAL= Auto  in the INCAR   file.                               |
|      Mind:          For very  accurate calculation you might also keep the  |
|      reciprocal projection scheme          (i.e. LREAL=.FALSE.)             |
|                                                                             |
 ----------------------------------------------------------------------------- 

  PAW_PBE Al 04Jan2001                  :
 energy of atom  1       EATOM=  -53.5387
 kinetic energy error for atom=    0.0005 (will be added to EATOM!!)
  PAW_PBE Mn 06Sep2000                  :
 energy of atom  2       EATOM= -416.7541
 kinetic energy error for atom=    0.0080 (will be added to EATOM!!)
 
 
 POSCAR: NewRef: 27, @ ['Mn', array([1.37502469, 
  positions in cartesian coordinates
  velocities in cartesian coordinates
  No initial velocities read in
 exchange correlation table for  LEXCH =        8
   RHO(1)=    0.500       N(1)  =     2000
   RHO(2)=  100.500       N(2)  =     4000
 


--------------------------------------------------------------------------------------------------------


 ion  position               nearest neighbor table
   1  0.000  0.000  0.000-  28 2.61  30 2.61  34 2.61  36 2.61  46 2.61  48 2.61  52 2.61  54 2.61
                             4 2.75  10 2.75   7 2.75  19 2.75
   2  0.000  0.000  0.333-  28 2.61  34 2.61  46 2.61  52 2.61  29 2.61  47 2.61  35 2.61  53 2.61
                             5 2.75  11 2.75   8 2.75  20 2.75
   3  0.000  0.000  0.667-  29 2.61  35 2.61  47 2.61  53 2.61  30 2.61  48 2.61  36 2.61  54 2.61
                             6 2.75  12 2.75   9 2.75  21 2.75
   4  0.000  0.333  0.000-  28 2.61  30 2.61  46 2.61  48 2.61  31 2.61  33 2.61  49 2.61  51 2.61
                            13 2.75   1 2.75   7 2.75  22 2.75
   5  0.000  0.333  0.333-  28 2.61  46 2.61  31 2.61  49 2.61  47 2.61  29 2.61  32 2.61  50 2.61
                            14 2.75   2 2.75   8 2.75  23 2.75
   6  0.000  0.333  0.667-  29 2.61  47 2.61  32 2.61  50 2.61  48 2.61  30 2.61  33 2.61  51 2.61
                            15 2.75   3 2.75   9 2.75  24 2.75
   7  0.000  0.667  0.000-  31 2.61  33 2.61  49 2.61  51 2.61  34 2.61  36 2.61  52 2.61  54 2.61
                             4 2.75  16 2.75   1 2.75  25 2.75
   8  0.000  0.667  0.333-  31 2.61  49 2.61  34 2.61  52 2.61  50 2.61  32 2.61  35 2.61  53 2.61
                             5 2.75  17 2.75   2 2.75  26 2.75
   9  0.000  0.667  0.667-  32 2.61  50 2.61  35 2.61  53 2.61  51 2.61  33 2.61  36 2.61  54 2.61
                             6 2.75  18 2.75   3 2.75  27 2.75
  10  0.333  0.000  0.000-  28 2.61  30 2.61  34 2.61  36 2.61  37 2.61  39 2.61  43 2.61  45 2.61
                            19 2.75   1 2.75  13 2.75  16 2.75
  11  0.333  0.000  0.333-  28 2.61  34 2.61  37 2.61  43 2.61  29 2.61  35 2.61  38 2.61  44 2.61
                            20 2.75   2 2.75  14 2.75  17 2.75
  12  0.333  0.000  0.667-  29 2.61  35 2.61  38 2.61  44 2.61  30 2.61  36 2.61  39 2.61  45 2.61
                            21 2.75   3 2.75  15 2.75  18 2.75
  13  0.333  0.333  0.000-  28 2.61  30 2.61  31 2.61  33 2.61  37 2.61  39 2.61  40 2.61  42 2.61
                             4 2.75  10 2.75  16 2.75  22 2.75
  14  0.333  0.333  0.333-  28 2.61  31 2.61  37 2.61  29 2.61  40 2.61  38 2.61  32 2.61  41 2.61
                             5 2.75  11 2.75  17 2.75  23 2.75
  15  0.333  0.333  0.667-  29 2.61  32 2.61  38 2.61  30 2.61  41 2.61  39 2.61  33 2.61  42 2.61
                             6 2.75  12 2.75  18 2.75  24 2.75
  16  0.333  0.667  0.000-  31 2.61  33 2.61  34 2.61  36 2.61  40 2.61  42 2.61  43 2.61  45 2.61
                            25 2.75   7 2.75  13 2.75  10 2.75
  17  0.333  0.667  0.333-  31 2.61  34 2.61  40 2.61  32 2.61  43 2.61  41 2.61  35 2.61  44 2.61
                            26 2.75   8 2.75  14 2.75  11 2.75
  18  0.333  0.667  0.667-  32 2.61  35 2.61  41 2.61  33 2.61  44 2.61  42 2.61  36 2.61  45 2.61
                            27 2.75   9 2.75  15 2.75  12 2.75
  19  0.667  0.000  0.000-  37 2.61  39 2.61  43 2.61  45 2.61  46 2.61  48 2.61  52 2.61  54 2.61
                            10 2.75  22 2.75   1 2.75  25 2.75
  20  0.667  0.000  0.333-  37 2.61  43 2.61  46 2.61  52 2.61  38 2.61  44 2.61  47 2.61  53 2.61
                            11 2.75  23 2.75   2 2.75  26 2.75
  21  0.667  0.000  0.667-  38 2.61  44 2.61  47 2.61  53 2.61  39 2.61  45 2.61  48 2.61  54 2.61
                            12 2.75  24 2.75   3 2.75  27 2.75
  22  0.667  0.333  0.000-  37 2.61  39 2.61  40 2.61  42 2.61  46 2.61  48 2.61  49 2.61  51 2.61
                            25 2.75  13 2.75  19 2.75   4 2.75
  23  0.667  0.333  0.333-  37 2.61  40 2.61  46 2.61  38 2.61  49 2.61  47 2.61  41 2.61  50 2.61
                            26 2.75  14 2.75  20 2.75   5 2.75
  24  0.667  0.333  0.667-  38 2.61  41 2.61  47 2.61  39 2.61  50 2.61  48 2.61  42 2.61  51 2.61
                            27 2.75  15 2.75  21 2.75   6 2.75
  25  0.667  0.667  0.000-  40 2.61  42 2.61  43 2.61  45 2.61  49 2.61  51 2.61  52 2.61  54 2.61
                            16 2.75  22 2.75  19 2.75   7 2.75
  26  0.667  0.667  0.333-  40 2.61  43 2.61  49 2.61  41 2.61  52 2.61  50 2.61  44 2.61  53 2.61
                            17 2.75  23 2.75  20 2.75   8 2.75
  27  0.667  0.667  0.667-  41 2.61  44 2.61  50 2.61  42 2.61  53 2.61  51 2.61  45 2.61  54 2.61
                            18 2.75  24 2.75  21 2.75   9 2.75
  28  0.167  0.167  0.167-  14 2.61  11 2.61   5 2.61  13 2.61   2 2.61  10 2.61   4 2.61   1 2.61
                            31 2.75  37 2.75  34 2.75  46 2.75
  29  0.167  0.167  0.500-  15 2.61  12 2.61   6 2.61  14 2.61   3 2.61  11 2.61   5 2.61   2 2.61
                            32 2.75  38 2.75  35 2.75  47 2.75
  30  0.167  0.167  0.833-  13 2.61  15 2.61  10 2.61  12 2.61   4 2.61   6 2.61   1 2.61   3 2.61
                            33 2.75  39 2.75  36 2.75  48 2.75
  31  0.167  0.500  0.167-  17 2.61  14 2.61   8 2.61  16 2.61   5 2.61  13 2.61   7 2.61   4 2.61
                            28 2.75  34 2.75  40 2.75  49 2.75
  32  0.167  0.500  0.500-  18 2.61  15 2.61   9 2.61  17 2.61   6 2.61  14 2.61   8 2.61   5 2.61
                            29 2.75  35 2.75  41 2.75  50 2.75
  33  0.167  0.500  0.833-  16 2.61  18 2.61  13 2.61  15 2.61   7 2.61   9 2.61   4 2.61   6 2.61
                            30 2.75  36 2.75  42 2.75  51 2.75
  34  0.167  0.833  0.167-  11 2.61  17 2.61   2 2.61   8 2.61  16 2.61  10 2.61   7 2.61   1 2.61
                            31 2.75  43 2.75  28 2.75  52 2.75
  35  0.167  0.833  0.500-  12 2.61  18 2.61   3 2.61   9 2.61  17 2.61  11 2.61   8 2.61   2 2.61
                            32 2.75  44 2.75  29 2.75  53 2.75
  36  0.167  0.833  0.833-  10 2.61  12 2.61  16 2.61  18 2.61   1 2.61   3 2.61   7 2.61   9 2.61
                            33 2.75  45 2.75  30 2.75  54 2.75
  37  0.500  0.167  0.167-  23 2.61  20 2.61  14 2.61  22 2.61  11 2.61  19 2.61  13 2.61  10 2.61
                            28 2.75  40 2.75  46 2.75  43 2.75
  38  0.500  0.167  0.500-  24 2.61  21 2.61  15 2.61  23 2.61  12 2.61  20 2.61  14 2.61  11 2.61
                            29 2.75  41 2.75  47 2.75  44 2.75
  39  0.500  0.167  0.833-  22 2.61  24 2.61  19 2.61  21 2.61  13 2.61  15 2.61  10 2.61  12 2.61
                            30 2.75  42 2.75  48 2.75  45 2.75
  40  0.500  0.500  0.167-  26 2.61  23 2.61  17 2.61  25 2.61  14 2.61  22 2.61  16 2.61  13 2.61
                            31 2.75  37 2.75  43 2.75  49 2.75
  41  0.500  0.500  0.500-  27 2.61  24 2.61  18 2.61  26 2.61  15 2.61  23 2.61  17 2.61  14 2.61
                            32 2.75  38 2.75  44 2.75  50 2.75
  42  0.500  0.500  0.833-  25 2.61  27 2.61  22 2.61  24 2.61  16 2.61  18 2.61  13 2.61  15 2.61
                            33 2.75  39 2.75  45 2.75  51 2.75
  43  0.500  0.833  0.167-  20 2.61  26 2.61  11 2.61  17 2.61  25 2.61  19 2.61  16 2.61  10 2.61
                            34 2.75  40 2.75  52 2.75  37 2.75
  44  0.500  0.833  0.500-  21 2.61  27 2.61  12 2.61  18 2.61  26 2.61  20 2.61  17 2.61  11 2.61
                            35 2.75  41 2.75  53 2.75  38 2.75
  45  0.500  0.833  0.833-  19 2.61  21 2.61  25 2.61  27 2.61  10 2.61  12 2.61  16 2.61  18 2.61
                            36 2.75  42 2.75  54 2.75  39 2.75
  46  0.833  0.167  0.167-   5 2.61  23 2.61  20 2.61   2 2.61  22 2.61   4 2.61  19 2.61   1 2.61
                            37 2.75  49 2.75  28 2.75  52 2.75
  47  0.833  0.167  0.500-   6 2.61  24 2.61  21 2.61   3 2.61  23 2.61   5 2.61  20 2.61   2 2.61
                            38 2.75  50 2.75  29 2.75  53 2.75
  48  0.833  0.167  0.833-   4 2.61   6 2.61  22 2.61  24 2.61  19 2.61  21 2.61   1 2.61   3 2.61
                            39 2.75  51 2.75  30 2.75  54 2.75
  49  0.833  0.500  0.167-   8 2.61  26 2.61  23 2.61   5 2.61  25 2.61   7 2.61  22 2.61   4 2.61
                            40 2.75  46 2.75  52 2.75  31 2.75
  50  0.833  0.500  0.500-   9 2.61  27 2.61  24 2.61   6 2.61  26 2.61   8 2.61  23 2.61   5 2.61
                            41 2.75  47 2.75  53 2.75  32 2.75
  51  0.833  0.500  0.833-   7 2.61   9 2.61  25 2.61  27 2.61  22 2.61  24 2.61   4 2.61   6 2.61
                            42 2.75  48 2.75  54 2.75  33 2.75
  52  0.833  0.833  0.167-   2 2.61   8 2.61  20 2.61  26 2.61  19 2.61   7 2.61  25 2.61   1 2.61
                            43 2.75  49 2.75  46 2.75  34 2.75
  53  0.833  0.833  0.500-   3 2.61   9 2.61  21 2.61  27 2.61  20 2.61   8 2.61  26 2.61   2 2.61
                            44 2.75  50 2.75  47 2.75  35 2.75
  54  0.833  0.833  0.833-   1 2.61   3 2.61   7 2.61   9 2.61  19 2.61  21 2.61  25 2.61  27 2.61
                            45 2.75  51 2.75  48 2.75  36 2.75
 
  LATTYP: Found a simple tetragonal cell.
 ALAT       =     8.2501481662
 C/A-ratio  =     1.2642089792
  
  Lattice vectors:
  
 A1 = (   8.2501481662,   0.0000000000,   0.0000000000)
 A2 = (   0.0000000000,   8.2501481662,   0.0000000000)
 A3 = (   0.0000000000,   0.0000000000,  10.4299113916)


Analysis of symmetry for initial positions (statically):
=====================================================================
 Subroutine PRICEL returns following result:
 
  LATTYP: Found a simple tetragonal cell.
 ALAT       =     2.7500493888
 C/A-ratio  =     1.2642089792
  
  Lattice vectors:
  
 A1 = (   2.7500493888,   0.0000000000,   0.0000000000)
 A2 = (   0.0000000000,   2.7500493888,   0.0000000000)
 A3 = (   0.0000000000,   0.0000000000,   3.4766371306)
 
  27 primitive cells build up your supercell.
 

 Routine SETGRP: Setting up the symmetry group for a 
 simple tetragonal supercell.


 Subroutine GETGRP returns: Found 16 space group operations
 (whereof 16 operations were pure point group operations)
 out of a pool of 16 trial point group operations.


The static configuration has the point symmetry D_4h.


Analysis of symmetry for dynamics (positions and initial velocities):
=====================================================================
 Subroutine PRICEL returns following result:
 
  LATTYP: Found a simple tetragonal cell.
 ALAT       =     2.7500493888
 C/A-ratio  =     1.2642089792
  
  Lattice vectors:
  
 A1 = (   2.7500493888,   0.0000000000,   0.0000000000)
 A2 = (   0.0000000000,   2.7500493888,   0.0000000000)
 A3 = (   0.0000000000,   0.0000000000,   3.4766371306)
 
  27 primitive cells build up your supercell.
 

 Routine SETGRP: Setting up the symmetry group for a 
 simple tetragonal supercell.


 Subroutine GETGRP returns: Found 16 space group operations
 (whereof 16 operations were pure point group operations)
 out of a pool of 16 trial point group operations.


The dynamic configuration has the point symmetry D_4h.


Analysis of structural, dynamic, and magnetic symmetry:
=====================================================================
 Subroutine PRICEL returns:
 Original cell was already a primitive cell.
 

 Routine SETGRP: Setting up the symmetry group for a 
 simple tetragonal supercell.


 Subroutine GETGRP returns: Found  2 space group operations
 (whereof  1 operations were pure point group operations)
 out of a pool of 16 trial point group operations.


The magnetic configuration has the point symmetry C_1 .
 The point group associated with its full space group is C_1h.


 Subroutine INISYM returns: Found  2 space group operations
 (whereof  1 operations are pure point group operations),
 and found     1 'primitive' translations

 
 
 KPOINTS: automatic KPOINTS                       

Automatic generation of k-mesh.
 generate k-points for:    5    5    4
Space group operators:
 irot       det(A)        alpha          n_x          n_y          n_z        tau_x        tau_y        tau_z
    1     1.000000     0.000001     1.000000     0.000000     0.000000     0.000000     0.000000     0.000000
    2    -1.000000   180.000000     0.000000     1.000000     0.000000     0.000000     0.333333     0.000000
 
 Subroutine IBZKPT returns following result:
 ===========================================
 
 Found     33 irreducible k-points:
 
 Following reciprocal coordinates:
            Coordinates               Weight
  0.000000  0.000000  0.000000      1.000000
  0.200000  0.000000  0.000000      2.000000
  0.400000  0.000000  0.000000      2.000000
  0.000000  0.200000  0.000000      2.000000
  0.200000  0.200000  0.000000      4.000000
  0.400000  0.200000  0.000000      4.000000
  0.000000  0.400000  0.000000      2.000000
  0.200000  0.400000  0.000000      4.000000
  0.400000  0.400000  0.000000      4.000000
  0.000000  0.000000  0.250000      2.000000
  0.200000  0.000000  0.250000      2.000000
  0.400000  0.000000  0.250000      2.000000
 -0.400000  0.000000  0.250000      2.000000
 -0.200000  0.000000  0.250000      2.000000
  0.000000  0.200000  0.250000      4.000000
  0.200000  0.200000  0.250000      4.000000
  0.400000  0.200000  0.250000      4.000000
 -0.400000  0.200000  0.250000      4.000000
 -0.200000  0.200000  0.250000      4.000000
  0.000000  0.400000  0.250000      4.000000
  0.200000  0.400000  0.250000      4.000000
  0.400000  0.400000  0.250000      4.000000
 -0.400000  0.400000  0.250000      4.000000
 -0.200000  0.400000  0.250000      4.000000
  0.000000  0.000000  0.500000      1.000000
  0.200000  0.000000  0.500000      2.000000
  0.400000  0.000000  0.500000      2.000000
  0.000000  0.200000  0.500000      2.000000
  0.200000  0.200000  0.500000      4.000000
  0.400000  0.200000  0.500000      4.000000
  0.000000  0.400000  0.500000      2.000000
  0.200000  0.400000  0.500000      4.000000
  0.400000  0.400000  0.500000      4.000000
 
 Following cartesian coordinates:
            Coordinates               Weight
  0.000000  0.000000  0.000000      1.000000
  0.024242  0.000000  0.000000      2.000000
  0.048484  0.000000  0.000000      2.000000
  0.000000  0.024242  0.000000      2.000000
  0.024242  0.024242  0.000000      4.000000
  0.048484  0.024242  0.000000      4.000000
  0.000000  0.048484  0.000000      2.000000
  0.024242  0.048484  0.000000      4.000000
  0.048484  0.048484  0.000000      4.000000
  0.000000  0.000000  0.023970      2.000000
  0.024242  0.000000  0.023970      2.000000
  0.048484  0.000000  0.023970      2.000000
 -0.048484  0.000000  0.023970      2.000000
 -0.024242  0.000000  0.023970      2.000000
  0.000000  0.024242  0.023970      4.000000
  0.024242  0.024242  0.023970      4.000000
  0.048484  0.024242  0.023970      4.000000
 -0.048484  0.024242  0.023970      4.000000
 -0.024242  0.024242  0.023970      4.000000
  0.000000  0.048484  0.023970      4.000000
  0.024242  0.048484  0.023970      4.000000
  0.048484  0.048484  0.023970      4.000000
 -0.048484  0.048484  0.023970      4.000000
 -0.024242  0.048484  0.023970      4.000000
  0.000000  0.000000  0.047939      1.000000
  0.024242  0.000000  0.047939      2.000000
  0.048484  0.000000  0.047939      2.000000
  0.000000  0.024242  0.047939      2.000000
  0.024242  0.024242  0.047939      4.000000
  0.048484  0.024242  0.047939      4.000000
  0.000000  0.048484  0.047939      2.000000
  0.024242  0.048484  0.047939      4.000000
  0.048484  0.048484  0.047939      4.000000
 


--------------------------------------------------------------------------------------------------------




 Dimension of arrays:
   k-points           NKPTS =     33   k-points in BZ     NKDIM =     33   number of bands    NBANDS=    150
   number of dos      NEDOS =    301   number of ions     NIONS =     54
   non local maximal  LDIM  =      6   non local SUM 2l+1 LMDIM =     18
   total plane-waves  NPLWV = 204120
   max r-space proj   IRMAX =      1   max aug-charges    IRDMAX=  89713
   dimension x,y,z NGX =    54 NGY =   54 NGZ =   70
   dimension x,y,z NGXF=   108 NGYF=  108 NGZF=  140
   support grid    NGXF=   216 NGYF=  216 NGZF=  280
   ions per type =              27  27
   NGX,Y,Z   is equivalent  to a cutoff of  10.88, 10.88, 11.16 a.u.
   NGXF,Y,Z  is equivalent  to a cutoff of  21.76, 21.76, 22.32 a.u.

 SYSTEM =  AlMn_pv                                 
 POSCAR =  NewRef: 27, @ ['Mn', array([1.37502469, 

 Startparameter for this run:
   NWRITE =      2    write-flag & timer
   PREC   = accura    normal or accurate (medium, high low for compatibility)
   ISTART =      0    job   : 0-new  1-cont  2-samecut
   ICHARG =      2    charge: 1-file 2-atom 10-const
   ISPIN  =      2    spin polarized calculation?
   LNONCOLLINEAR =      F non collinear calculations
   LSORBIT =      F    spin-orbit coupling
   INIWAV =      1    electr: 0-lowe 1-rand  2-diag
   LASPH  =      F    aspherical Exc in radial PAW
   METAGGA=      F    non-selfconsistent MetaGGA calc.

 Electronic Relaxation 1
   ENCUT  =  404.8 eV  29.75 Ry    5.45 a.u.  13.53 13.53 17.11*2*pi/ulx,y,z
   ENINI  =  404.8     initial cutoff
   ENAUG  =  500.7 eV  augmentation charge cutoff
   NELM   =    100;   NELMIN=  4; NELMDL= -8     # of ELM steps 
   EDIFF  = 0.1E-06   stopping-criterion for ELM
   LREAL  =      F    real-space projection
   NLSPLINE    = F    spline interpolate recip. space projectors
   LCOMPAT=      F    compatible to vasp.4.4
   GGA_COMPAT  = T    GGA compatible to vasp.4.4-vasp.4.6
   LMAXPAW     = -100 max onsite density
   LMAXMIX     =    2 max onsite mixed and CHGCAR
   VOSKOWN=      0    Vosko Wilk Nusair interpolation
   ROPT   =    0.00000   0.00000
 Ionic relaxation
   EDIFFG = 0.1E-05   stopping-criterion for IOM
   NSW    =      0    number of steps for IOM
   NBLOCK =      1;   KBLOCK =      1    inner block; outer block 
   IBRION =     -1    ionic relax: 0-MD 1-quasi-New 2-CG
   NFREE  =      0    steps in history (QN), initial steepest desc. (CG)
   ISIF   =      2    stress and relaxation
   IWAVPR =     10    prediction:  0-non 1-charg 2-wave 3-comb
   ISYM   =      2    0-nonsym 1-usesym 2-fastsym
   LCORR  =      T    Harris-Foulkes like correction to forces

   POTIM  = 0.2000    time-step for ionic-motion
   TEIN   =    0.0    initial temperature
   TEBEG  =    0.0;   TEEND  =   0.0 temperature during run
   SMASS  =  -3.00    Nose mass-parameter (am)
   estimated Nose-frequenzy (Omega)   =  0.10E-29 period in steps =****** mass=  -0.156E-26a.u.
   SCALEE = 1.0000    scale energy and forces
   NPACO  =    256;   APACO  = 16.0  distance and # of slots for P.C.
   PSTRESS=    0.0 pullay stress

  Mass of Ions in am
   POMASS =  26.98 54.94
  Ionic Valenz
   ZVAL   =   3.00  7.00
  Atomic Wigner-Seitz radii
   RWIGS  =  -1.00 -1.00
  virtual crystal weights 
   VCA    =   1.00  1.00
   NELECT =     270.0000    total number of electrons
   NUPDOWN=      -1.0000    fix difference up-down

 DOS related values:
   EMIN   =  10.00;   EMAX   =-10.00  energy-range for DOS
   EFERMI =   0.00
   ISMEAR =     1;   SIGMA  =   0.20  broadening in eV -4-tet -1-fermi 0-gaus

 Electronic relaxation 2 (details)
   IALGO  =     58    algorithm
   LDIAG  =      T    sub-space diagonalisation (order eigenvalues)
   LSUBROT=      F    optimize rotation matrix (better conditioning)
   TURBO    =      0    0=normal 1=particle mesh
   IRESTART =      0    0=no restart 2=restart with 2 vectors
   NREBOOT  =      0    no. of reboots
   NMIN     =      0    reboot dimension
   EREF     =   0.00    reference energy to select bands
   IMIX   =      4    mixing-type and parameters
     AMIX     =   0.40;   BMIX     =  1.00
     AMIX_MAG =   1.60;   BMIX_MAG =  1.00
     AMIN     =   0.10
     WC   =   100.;   INIMIX=   1;  MIXPRE=   1;  MAXMIX= -45

 Intra band minimization:
   WEIMIN = 0.0000     energy-eigenvalue tresh-hold
   EBREAK =  0.17E-09  absolut break condition
   DEPER  =   0.30     relativ break condition  

   TIME   =   0.40     timestep for ELM

  volume/ion in A,a.u.               =      13.15        88.72
  Fermi-wavevector in a.u.,A,eV,Ry     =   1.186118  2.241439 19.141722  1.406877
  Thomas-Fermi vector in A             =   2.322298
 
 Write flags
   LWAVE        =      F    write WAVECAR
   LDOWNSAMPLE  =      F    k-point downsampling of WAVECAR
   LCHARG       =      F    write CHGCAR
   LVTOT        =      F    write LOCPOT, total local potential
   LVHAR        =      F    write LOCPOT, Hartree potential only
   LELF         =      F    write electronic localiz. function (ELF)
   LORBIT       =     10    0 simple, 1 ext, 2 COOP (PROOUT), +10 PAW based schemes


 Dipole corrections
   LMONO  =      F    monopole corrections only (constant potential shift)
   LDIPOL =      F    correct potential (dipole corrections)
   IDIPOL =      0    1-x, 2-y, 3-z, 4-all directions 
   EPSILON=  1.0000000 bulk dielectric constant

 Exchange correlation treatment:
   GGA     =    --    GGA type
   LEXCH   =     8    internal setting for exchange type
   VOSKOWN=      0    Vosko Wilk Nusair interpolation
   LHFCALC =     F    Hartree Fock is set to
   LHFONE  =     F    Hartree Fock one center treatment
   AEXX    =    0.0000 exact exchange contribution

 Linear response parameters
   LEPSILON=     F    determine dielectric tensor
   LRPA    =     F    only Hartree local field effects (RPA)
   LNABLA  =     F    use nabla operator in PAW spheres
   LVEL    =     F    velocity operator in full k-point grid
   LINTERFAST=   F  fast interpolation
   KINTER  =     0    interpolate to denser k-point grid
   CSHIFT  =0.1000    complex shift for real part using Kramers Kronig
   OMEGAMAX=  -1.0    maximum frequency
   DEG_THRESHOLD= 0.2000000E-02 threshold for treating states as degnerate
   RTIME   =   -0.100 relaxation time in fs
  (WPLASMAI=    0.000 imaginary part of plasma frequency in eV, 0.658/RTIME)
   DFIELD  = 0.0000000 0.0000000 0.0000000 field for delta impulse in time
 
 Orbital magnetization related:
   ORBITALMAG=     F  switch on orbital magnetization
   LCHIMAG   =     F  perturbation theory with respect to B field
   DQ        =  0.001000  dq finite difference perturbation B field
   LLRAUG    =     F  two centre corrections for induced B field



--------------------------------------------------------------------------------------------------------


 Static calculation
 charge density and potential will be updated during run
 spin polarized calculation
 Conjugate gradient for all bands (Freysoldt, et al. PRB 79, 241103 (2009))
 preconditioned conjugated gradient                                        
 perform sub-space diagonalisation
    before iterative eigenvector-optimisation
 modified Broyden-mixing scheme, WC =      100.0
 initial mixing is a Kerker type mixing with AMIX =  0.4000 and BMIX =      1.0000
 Hartree-type preconditioning will be used
 using additional bands           15
 reciprocal scheme for non local part
 use partial core corrections
 no Harris-corrections to forces 
 use gradient corrections 
 use of overlap-Matrix (Vanderbilt PP)
 Methfessel and Paxton  Order N= 1 SIGMA  =   0.20


--------------------------------------------------------------------------------------------------------


  energy-cutoff  :      404.80
  volume of cell :      709.91
      direct lattice vectors                 reciprocal lattice vectors
     8.250148166  0.000000000  0.000000000     0.121209944  0.000000000  0.000000000
     0.000000000  8.250148166  0.000000000     0.000000000  0.121209944  0.000000000
     0.000000000  0.000000000 10.429911392     0.000000000  0.000000000  0.095878092

  length of vectors
     8.250148166  8.250148166 10.429911392     0.121209944  0.121209944  0.095878092


 
 k-points in units of 2pi/SCALE and weight: automatic KPOINTS                       
   0.00000000  0.00000000  0.00000000       0.010
   0.02424199  0.00000000  0.00000000       0.020
   0.04848398  0.00000000  0.00000000       0.020
   0.00000000  0.02424199  0.00000000       0.020
   0.02424199  0.02424199  0.00000000       0.040
   0.04848398  0.02424199  0.00000000       0.040
   0.00000000  0.04848398  0.00000000       0.020
   0.02424199  0.04848398  0.00000000       0.040
   0.04848398  0.04848398  0.00000000       0.040
   0.00000000  0.00000000  0.02396952       0.020
   0.02424199  0.00000000  0.02396952       0.020
   0.04848398  0.00000000  0.02396952       0.020
  -0.04848398  0.00000000  0.02396952       0.020
  -0.02424199  0.00000000  0.02396952       0.020
   0.00000000  0.02424199  0.02396952       0.040
   0.02424199  0.02424199  0.02396952       0.040
   0.04848398  0.02424199  0.02396952       0.040
  -0.04848398  0.02424199  0.02396952       0.040
  -0.02424199  0.02424199  0.02396952       0.040
   0.00000000  0.04848398  0.02396952       0.040
   0.02424199  0.04848398  0.02396952       0.040
   0.04848398  0.04848398  0.02396952       0.040
  -0.04848398  0.04848398  0.02396952       0.040
  -0.02424199  0.04848398  0.02396952       0.040
   0.00000000  0.00000000  0.04793905       0.010
   0.02424199  0.00000000  0.04793905       0.020
   0.04848398  0.00000000  0.04793905       0.020
   0.00000000  0.02424199  0.04793905       0.020
   0.02424199  0.02424199  0.04793905       0.040
   0.04848398  0.02424199  0.04793905       0.040
   0.00000000  0.04848398  0.04793905       0.020
   0.02424199  0.04848398  0.04793905       0.040
   0.04848398  0.04848398  0.04793905       0.040
 
 k-points in reciprocal lattice and weights: automatic KPOINTS                       
   0.00000000  0.00000000  0.00000000       0.010
   0.20000000  0.00000000  0.00000000       0.020
   0.40000000  0.00000000  0.00000000       0.020
   0.00000000  0.20000000  0.00000000       0.020
   0.20000000  0.20000000  0.00000000       0.040
   0.40000000  0.20000000  0.00000000       0.040
   0.00000000  0.40000000  0.00000000       0.020
   0.20000000  0.40000000  0.00000000       0.040
   0.40000000  0.40000000  0.00000000       0.040
   0.00000000  0.00000000  0.25000000       0.020
   0.20000000  0.00000000  0.25000000       0.020
   0.40000000  0.00000000  0.25000000       0.020
  -0.40000000  0.00000000  0.25000000       0.020
  -0.20000000  0.00000000  0.25000000       0.020
   0.00000000  0.20000000  0.25000000       0.040
   0.20000000  0.20000000  0.25000000       0.040
   0.40000000  0.20000000  0.25000000       0.040
  -0.40000000  0.20000000  0.25000000       0.040
  -0.20000000  0.20000000  0.25000000       0.040
   0.00000000  0.40000000  0.25000000       0.040
   0.20000000  0.40000000  0.25000000       0.040
   0.40000000  0.40000000  0.25000000       0.040
  -0.40000000  0.40000000  0.25000000       0.040
  -0.20000000  0.40000000  0.25000000       0.040
   0.00000000  0.00000000  0.50000000       0.010
   0.20000000  0.00000000  0.50000000       0.020
   0.40000000  0.00000000  0.50000000       0.020
   0.00000000  0.20000000  0.50000000       0.020
   0.20000000  0.20000000  0.50000000       0.040
   0.40000000  0.20000000  0.50000000       0.040
   0.00000000  0.40000000  0.50000000       0.020
   0.20000000  0.40000000  0.50000000       0.040
   0.40000000  0.40000000  0.50000000       0.040
 
 position of ions in fractional coordinates (direct lattice) 
   0.00000000  0.00000000  0.00000000
   0.00000000  0.00000000  0.33333333
   0.00000000  0.00000000  0.66666667
   0.00000000  0.33333333  0.00000000
   0.00000000  0.33333333  0.33333333
   0.00000000  0.33333333  0.66666667
   0.00000000  0.66666667  0.00000000
   0.00000000  0.66666667  0.33333333
   0.00000000  0.66666667  0.66666667
   0.33333333  0.00000000  0.00000000
   0.33333333  0.00000000  0.33333333
   0.33333333  0.00000000  0.66666667
   0.33333333  0.33333333  0.00000000
   0.33333333  0.33333333  0.33333333
   0.33333333  0.33333333  0.66666667
   0.33333333  0.66666667  0.00000000
   0.33333333  0.66666667  0.33333333
   0.33333333  0.66666667  0.66666667
   0.66666667  0.00000000  0.00000000
   0.66666667  0.00000000  0.33333333
   0.66666667  0.00000000  0.66666667
   0.66666667  0.33333333  0.00000000
   0.66666667  0.33333333  0.33333333
   0.66666667  0.33333333  0.66666667
   0.66666667  0.66666667  0.00000000
   0.66666667  0.66666667  0.33333333
   0.66666667  0.66666667  0.66666667
   0.16666667  0.16666667  0.16666667
   0.16666667  0.16666667  0.50000000
   0.16666667  0.16666667  0.83333333
   0.16666667  0.50000000  0.16666667
   0.16666667  0.50000000  0.50000000
   0.16666667  0.50000000  0.83333333
   0.16666667  0.83333333  0.16666667
   0.16666667  0.83333333  0.50000000
   0.16666667  0.83333333  0.83333333
   0.50000000  0.16666667  0.16666667
   0.50000000  0.16666667  0.50000000
   0.50000000  0.16666667  0.83333333
   0.50000000  0.50000000  0.16666667
   0.50000000  0.50000000  0.50000000
   0.50000000  0.50000000  0.83333333
   0.50000000  0.83333333  0.16666667
   0.50000000  0.83333333  0.50000000
   0.50000000  0.83333333  0.83333333
   0.83333333  0.16666667  0.16666667
   0.83333333  0.16666667  0.50000000
   0.83333333  0.16666667  0.83333333
   0.83333333  0.50000000  0.16666667
   0.83333333  0.50000000  0.50000000
   0.83333333  0.50000000  0.83333333
   0.83333333  0.83333333  0.16666667
   0.83333333  0.83333333  0.50000000
   0.83333333  0.83333333  0.83333333
 
 position of ions in cartesian coordinates  (Angst):
   0.00000000  0.00000000  0.00000000
   0.00000000  0.00000000  3.47663713
   0.00000000  0.00000000  6.95327426
   0.00000000  2.75004939  0.00000000
   0.00000000  2.75004939  3.47663713
   0.00000000  2.75004939  6.95327426
   0.00000000  5.50009878  0.00000000
   0.00000000  5.50009878  3.47663713
   0.00000000  5.50009878  6.95327426
   2.75004939  0.00000000  0.00000000
   2.75004939  0.00000000  3.47663713
   2.75004939  0.00000000  6.95327426
   2.75004939  2.75004939  0.00000000
   2.75004939  2.75004939  3.47663713
   2.75004939  2.75004939  6.95327426
   2.75004939  5.50009878  0.00000000
   2.75004939  5.50009878  3.47663713
   2.75004939  5.50009878  6.95327426
   5.50009878  0.00000000  0.00000000
   5.50009878  0.00000000  3.47663713
   5.50009878  0.00000000  6.95327426
   5.50009878  2.75004939  0.00000000
   5.50009878  2.75004939  3.47663713
   5.50009878  2.75004939  6.95327426
   5.50009878  5.50009878  0.00000000
   5.50009878  5.50009878  3.47663713
   5.50009878  5.50009878  6.95327426
   1.37502469  1.37502469  1.73831857
   1.37502469  1.37502469  5.21495570
   1.37502469  1.37502469  8.69159283
   1.37502469  4.12507408  1.73831857
   1.37502469  4.12507408  5.21495570
   1.37502469  4.12507408  8.69159283
   1.37502469  6.87512347  1.73831857
   1.37502469  6.87512347  5.21495570
   1.37502469  6.87512347  8.69159283
   4.12507408  1.37502469  1.73831857
   4.12507408  1.37502469  5.21495570
   4.12507408  1.37502469  8.69159283
   4.12507408  4.12507408  1.73831857
   4.12507408  4.12507408  5.21495570
   4.12507408  4.12507408  8.69159283
   4.12507408  6.87512347  1.73831857
   4.12507408  6.87512347  5.21495570
   4.12507408  6.87512347  8.69159283
   6.87512347  1.37502469  1.73831857
   6.87512347  1.37502469  5.21495570
   6.87512347  1.37502469  8.69159283
   6.87512347  4.12507408  1.73831857
   6.87512347  4.12507408  5.21495570
   6.87512347  4.12507408  8.69159283
   6.87512347  6.87512347  1.73831857
   6.87512347  6.87512347  5.21495570
   6.87512347  6.87512347  8.69159283
 


--------------------------------------------------------------------------------------------------------


 k-point  1 :   0.0000 0.0000 0.0000  plane waves:   13099
 k-point  2 :   0.2000 0.0000 0.0000  plane waves:   13101
 k-point  3 :   0.4000 0.0000 0.0000  plane waves:   13111
 k-point  4 :   0.0000 0.2000 0.0000  plane waves:   13101
 k-point  5 :   0.2000 0.2000 0.0000  plane waves:   13137
 k-point  6 :   0.4000 0.2000 0.0000  plane waves:   13119
 k-point  7 :   0.0000 0.4000 0.0000  plane waves:   13111
 k-point  8 :   0.2000 0.4000 0.0000  plane waves:   13119
 k-point  9 :   0.4000 0.4000 0.0000  plane waves:   13129
 k-point 10 :   0.0000 0.0000 0.2500  plane waves:   13134
 k-point 11 :   0.2000 0.0000 0.2500  plane waves:   13149
 k-point 12 :   0.4000 0.0000 0.2500  plane waves:   13119
 k-point 13 :  -0.4000 0.0000 0.2500  plane waves:   13119
 k-point 14 :  -0.2000 0.0000 0.2500  plane waves:   13149
 k-point 15 :   0.0000 0.2000 0.2500  plane waves:   13149
 k-point 16 :   0.2000 0.2000 0.2500  plane waves:   13145
 k-point 17 :   0.4000 0.2000 0.2500  plane waves:   13134
 k-point 18 :  -0.4000 0.2000 0.2500  plane waves:   13134
 k-point 19 :  -0.2000 0.2000 0.2500  plane waves:   13145
 k-point 20 :   0.0000 0.4000 0.2500  plane waves:   13119
 k-point 21 :   0.2000 0.4000 0.2500  plane waves:   13134
 k-point 22 :   0.4000 0.4000 0.2500  plane waves:   13108
 k-point 23 :  -0.4000 0.4000 0.2500  plane waves:   13108
 k-point 24 :  -0.2000 0.4000 0.2500  plane waves:   13134
 k-point 25 :   0.0000 0.0000 0.5000  plane waves:   13186
 k-point 26 :   0.2000 0.0000 0.5000  plane waves:   13124
 k-point 27 :   0.4000 0.0000 0.5000  plane waves:   13152
 k-point 28 :   0.0000 0.2000 0.5000  plane waves:   13124
 k-point 29 :   0.2000 0.2000 0.5000  plane waves:   13136
 k-point 30 :   0.4000 0.2000 0.5000  plane waves:   13128
 k-point 31 :   0.0000 0.4000 0.5000  plane waves:   13152
 k-point 32 :   0.2000 0.4000 0.5000  plane waves:   13128
 k-point 33 :   0.4000 0.4000 0.5000  plane waves:   13112

 maximum and minimum number of plane-waves per node :      3304     3246

 maximum number of plane-waves:     13186
 maximum index in each direction: 
   IXMAX=   13   IYMAX=   13   IZMAX=   17
   IXMIN=  -13   IYMIN=  -13   IZMIN=  -17


 parallel 3D FFT for wavefunctions:
    minimum data exchange during FFTs selected (reduces bandwidth)
 parallel 3D FFT for charge:
    minimum data exchange during FFTs selected (reduces bandwidth)


 total amount of memory used by VASP MPI-rank0   944441. kBytes
=======================================================================

   base      :      30000. kBytes
   nonl-proj :      34193. kBytes
   fftplans  :      31580. kBytes
   grid      :      21385. kBytes
   one-center:        435. kBytes
   wavefun   :     826848. kBytes
 
     INWAV:  cpu time    0.0001: real time    0.0000
 Broyden mixing: mesh for mixing (old mesh)
   NGX = 27   NGY = 27   NGZ = 35
  (NGX  =108   NGY  =108   NGZ  =140)
  gives a total of  25515 points

 initial charge density was supplied:
 charge density of overlapping atoms calculated
 number of electron     270.0000000 magnetization     -27.0000000
 keeping initial charge density in first step


--------------------------------------------------------------------------------------------------------


 Maximum index for augmentation-charges        10967 (set IRDMAX)


--------------------------------------------------------------------------------------------------------


 First call to EWALD:  gamma=   0.199
 Maximum number of real-space cells 3x 3x 2
 Maximum number of reciprocal cells 3x 3x 3

    FEWALD:  cpu time    0.0067: real time    0.0067


--------------------------------------- Iteration      1(   1)  ---------------------------------------


    POTLOK:  cpu time    0.3948: real time    0.3949
    SETDIJ:  cpu time    0.4700: real time    0.4704
    TRIAL :  cpu time   32.9807: real time   33.4258
    CORREC:  cpu time    0.0060: real time    0.0069
    --------------------------------------------
      LOOP:  cpu time   34.1318: real time   34.5860

 eigenvalue-minimisations  : 19800
 total energy-change (2. order) : 0.2111160E+04  (-0.8529200E+04)
 number of electron     270.0000000 magnetization     -27.0000000
 augmentation part      270.0000000 magnetization     -27.0000000

 Free energy of the ion-electron system (eV)
  ---------------------------------------------------
  alpha Z        PSCENC =       798.38614055
  Ewald energy   TEWEN  =    -12901.57693327
  -Hartree energ DENC   =     -2855.60785864
  -exchange      EXHF   =         0.00000000
  -V(xc)+E(xc)   XCENC  =      -996.11142528
  PAW double counting   =     12741.82587617   -11476.22345381
  entropy T*S    EENTRO =        -0.00355813
  eigenvalues    EBANDS =      4102.79769571
  atomic energy  EATOM  =     12697.67401269
  ---------------------------------------------------
  free energy    TOTEN  =      2111.16049598 eV

  energy without entropy =     2111.16405411  energy(sigma->0) =     2111.16168202


--------------------------------------------------------------------------------------------------------




--------------------------------------- Iteration      1(   2)  ---------------------------------------


    TRIAL :  cpu time   33.2754: real time   33.5746
    CORREC:  cpu time    0.0073: real time    0.0082
    --------------------------------------------
      LOOP:  cpu time   33.3031: real time   33.6060

 eigenvalue-minimisations  : 19800
 total energy-change (2. order) :-0.2121583E+04  (-0.2102399E+04)
 number of electron     270.0000000 magnetization     -27.0000000
 augmentation part      270.0000000 magnetization     -27.0000000

 Free energy of the ion-electron system (eV)
  ---------------------------------------------------
  alpha Z        PSCENC =       798.38614055
  Ewald energy   TEWEN  =    -12901.57693327
  -Hartree energ DENC   =     -2855.60785864
  -exchange      EXHF   =         0.00000000
  -V(xc)+E(xc)   XCENC  =      -996.11142528
  PAW double counting   =     12741.82587617   -11476.22345381
  entropy T*S    EENTRO =        -0.00288300
  eigenvalues    EBANDS =      1981.21408020
  atomic energy  EATOM  =     12697.67401269
  ---------------------------------------------------
  free energy    TOTEN  =       -10.42244441 eV

  energy without entropy =      -10.41956141  energy(sigma->0) =      -10.42148341


--------------------------------------------------------------------------------------------------------




--------------------------------------- Iteration      1(   3)  ---------------------------------------


    TRIAL :  cpu time   46.5329: real time   47.0212
    CORREC:  cpu time    0.0087: real time    0.0096
    --------------------------------------------
      LOOP:  cpu time   46.5430: real time   47.0344

 eigenvalue-minimisations  : 30500
 total energy-change (2. order) :-0.3209595E+03  (-0.3031430E+03)
 number of electron     270.0000000 magnetization     -27.0000000
 augmentation part      270.0000000 magnetization     -27.0000000

 Free energy of the ion-electron system (eV)
  ---------------------------------------------------
  alpha Z        PSCENC =       798.38614055
  Ewald energy   TEWEN  =    -12901.57693327
  -Hartree energ DENC   =     -2855.60785864
  -exchange      EXHF   =         0.00000000
  -V(xc)+E(xc)   XCENC  =      -996.11142528
  PAW double counting   =     12741.82587617   -11476.22345381
  entropy T*S    EENTRO =        -0.00341767
  eigenvalues    EBANDS =      1660.25512115
  atomic energy  EATOM  =     12697.67401269
  ---------------------------------------------------
  free energy    TOTEN  =      -331.38193812 eV

  energy without entropy =     -331.37852045  energy(sigma->0) =     -331.38079890


--------------------------------------------------------------------------------------------------------




--------------------------------------- Iteration      1(   4)  ---------------------------------------


    TRIAL :  cpu time   49.2779: real time   49.8524
    CORREC:  cpu time    0.0093: real time    0.0102
    --------------------------------------------
      LOOP:  cpu time   49.2880: real time   49.8664

 eigenvalue-minimisations  : 32536
 total energy-change (2. order) :-0.6088419E+02  (-0.5693702E+02)
 number of electron     270.0000000 magnetization     -27.0000000
 augmentation part      270.0000000 magnetization     -27.0000000

 Free energy of the ion-electron system (eV)
  ---------------------------------------------------
  alpha Z        PSCENC =       798.38614055
  Ewald energy   TEWEN  =    -12901.57693327
  -Hartree energ DENC   =     -2855.60785864
  -exchange      EXHF   =         0.00000000
  -V(xc)+E(xc)   XCENC  =      -996.11142528
  PAW double counting   =     12741.82587617   -11476.22345381
  entropy T*S    EENTRO =         0.00368571
  eigenvalues    EBANDS =      1599.36382801
  atomic energy  EATOM  =     12697.67401269
  ---------------------------------------------------
  free energy    TOTEN  =      -392.26612789 eV

  energy without entropy =     -392.26981360  energy(sigma->0) =     -392.26735646


--------------------------------------------------------------------------------------------------------




--------------------------------------- Iteration      1(   5)  ---------------------------------------


    TRIAL :  cpu time   51.2212: real time   51.7308
    CORREC:  cpu time    0.0092: real time    0.0101
    --------------------------------------------
      LOOP:  cpu time   51.2316: real time   51.7449

 eigenvalue-minimisations  : 34056
 total energy-change (2. order) :-0.9642059E+01  (-0.9116713E+01)
 number of electron     270.0000000 magnetization     -27.0000000
 augmentation part      270.0000000 magnetization     -27.0000000

 Free energy of the ion-electron system (eV)
  ---------------------------------------------------
  alpha Z        PSCENC =       798.38614055
  Ewald energy   TEWEN  =    -12901.57693327
  -Hartree energ DENC   =     -2855.60785864
  -exchange      EXHF   =         0.00000000
  -V(xc)+E(xc)   XCENC  =      -996.11142528
  PAW double counting   =     12741.82587617   -11476.22345381
  entropy T*S    EENTRO =         0.00119169
  eigenvalues    EBANDS =      1589.72426329
  atomic energy  EATOM  =     12697.67401269
  ---------------------------------------------------
  free energy    TOTEN  =      -401.90818662 eV

  energy without entropy =     -401.90937831  energy(sigma->0) =     -401.90858385


--------------------------------------------------------------------------------------------------------




--------------------------------------- Iteration      1(   6)  ---------------------------------------


    TRIAL :  cpu time   50.6692: real time   51.0943
    CORREC:  cpu time    0.0093: real time    0.0101
    --------------------------------------------
      LOOP:  cpu time   51.2026: real time   51.6301

 eigenvalue-minimisations  : 33704
 total energy-change (2. order) :-0.1653698E+01  (-0.1559072E+01)
 number of electron     270.0000000 magnetization     -27.0000000
 augmentation part      270.0000000 magnetization     -27.0000000

 Free energy of the ion-electron system (eV)
  ---------------------------------------------------
  alpha Z        PSCENC =       798.38614055
  Ewald energy   TEWEN  =    -12901.57693327
  -Hartree energ DENC   =     -2855.60785864
  -exchange      EXHF   =         0.00000000
  -V(xc)+E(xc)   XCENC  =      -996.11142528
  PAW double counting   =     12741.82587617   -11476.22345381
  entropy T*S    EENTRO =         0.00439311
  eigenvalues    EBANDS =      1588.06736378
  atomic energy  EATOM  =     12697.67401269
  ---------------------------------------------------
  free energy    TOTEN  =      -403.56188471 eV

  energy without entropy =     -403.56627783  energy(sigma->0) =     -403.56334908


--------------------------------------------------------------------------------------------------------




--------------------------------------- Iteration      1(   7)  ---------------------------------------


    TRIAL :  cpu time   51.6288: real time   52.1079
    CORREC:  cpu time    0.0096: real time    0.0103
    --------------------------------------------
      LOOP:  cpu time   51.6400: real time   52.1221

 eigenvalue-minimisations  : 34344
 total energy-change (2. order) :-0.4405210E+00  (-0.4209727E+00)
 number of electron     270.0000000 magnetization     -27.0000000
 augmentation part      270.0000000 magnetization     -27.0000000

 Free energy of the ion-electron system (eV)
  ---------------------------------------------------
  alpha Z        PSCENC =       798.38614055
  Ewald energy   TEWEN  =    -12901.57693327
  -Hartree energ DENC   =     -2855.60785864
  -exchange      EXHF   =         0.00000000
  -V(xc)+E(xc)   XCENC  =      -996.11142528
  PAW double counting   =     12741.82587617   -11476.22345381
  entropy T*S    EENTRO =         0.00441882
  eigenvalues    EBANDS =      1587.62681705
  atomic energy  EATOM  =     12697.67401269
  ---------------------------------------------------
  free energy    TOTEN  =      -404.00240573 eV

  energy without entropy =     -404.00682456  energy(sigma->0) =     -404.00387868


--------------------------------------------------------------------------------------------------------




--------------------------------------- Iteration      1(   8)  ---------------------------------------


    TRIAL :  cpu time   49.8662: real time   50.3844
    CORREC:  cpu time    0.0097: real time    0.0097
    CHARGE:  cpu time    1.5714: real time    1.6924
    --------------------------------------------
      LOOP:  cpu time   51.4486: real time   52.0909

 eigenvalue-minimisations  : 33112
 total energy-change (2. order) :-0.1505311E+00  (-0.1445184E+00)
 number of electron     269.9999995 magnetization     -18.9051449
 augmentation part       64.2038416 magnetization     -10.9449083

 Free energy of the ion-electron system (eV)
  ---------------------------------------------------
  alpha Z        PSCENC =       798.38614055
  Ewald energy   TEWEN  =    -12901.57693327
  -Hartree energ DENC   =     -2855.60785864
  -exchange      EXHF   =         0.00000000
  -V(xc)+E(xc)   XCENC  =      -996.11142528
  PAW double counting   =     12741.82587617   -11476.22345381
  entropy T*S    EENTRO =         0.00235187
  eigenvalues    EBANDS =      1587.47835295
  atomic energy  EATOM  =     12697.67401269
  ---------------------------------------------------
  free energy    TOTEN  =      -404.15293679 eV

  energy without entropy =     -404.15528866  energy(sigma->0) =     -404.15372074


--------------------------------------------------------------------------------------------------------




--------------------------------------- Iteration      1(   9)  ---------------------------------------


    POTLOK:  cpu time    0.3962: real time    0.3962
    SETDIJ:  cpu time    0.4792: real time    0.4794
    TRIAL :  cpu time   16.7593: real time   17.0044
    CORREC:  cpu time    5.1462: real time    5.2107
    CHARGE:  cpu time    2.4307: real time    2.4601
    --------------------------------------------
      LOOP:  cpu time   25.2132: real time   25.5541

 eigenvalue-minimisations  :     0
 total energy-change (2. order) : 0.2995019E+03  (-0.2201085E+03)
 number of electron     269.9999993 magnetization     -19.7047243
 augmentation part       82.7648536 magnetization     -13.0042253

 Free energy of the ion-electron system (eV)
  ---------------------------------------------------
  alpha Z        PSCENC =       798.38614055
  Ewald energy   TEWEN  =    -12901.57693327
  -Hartree energ DENC   =     -1272.81379825
  -exchange      EXHF   =         0.00000000
  -V(xc)+E(xc)   XCENC  =     -1041.67727571
  PAW double counting   =     19171.19555839   -17751.72762525
  entropy T*S    EENTRO =         0.01851166
  eigenvalues    EBANDS =       195.88656972
  atomic energy  EATOM  =     12697.67401269
  ---------------------------------------------------
  free energy    TOTEN  =      -104.65099927 eV

  energy without entropy =     -104.66951093  energy(sigma->0) =     -104.65716982


--------------------------------------------------------------------------------------------------------




--------------------------------------- Iteration      1(  10)  ---------------------------------------


    POTLOK:  cpu time    0.3913: real time    0.3915
    SETDIJ:  cpu time    0.5150: real time    0.5150
    TRIAL :  cpu time   16.6693: real time   16.8024
    CORREC:  cpu time    5.1084: real time    5.1975
    CHARGE:  cpu time    1.6122: real time    1.6125
    --------------------------------------------
      LOOP:  cpu time   24.3012: real time   24.5254

 eigenvalue-minimisations  :     0
 total energy-change (2. order) :-0.2137321E+03  (-0.1238360E+02)
 number of electron     269.9999993 magnetization     -19.7379286
 augmentation part       87.3830916 magnetization     -13.4733355

 Free energy of the ion-electron system (eV)
  ---------------------------------------------------
  alpha Z        PSCENC =       798.38614055
  Ewald energy   TEWEN  =    -12901.57693327
  -Hartree energ DENC   =     -2118.09098502
  -exchange      EXHF   =         0.00000000
  -V(xc)+E(xc)   XCENC  =     -1012.39495388
  PAW double counting   =     20684.71738465   -19449.37111081
  entropy T*S    EENTRO =         0.01044518
  eigenvalues    EBANDS =       982.25483757
  atomic energy  EATOM  =     12697.67401269
  ---------------------------------------------------
  free energy    TOTEN  =      -318.38309587 eV

  energy without entropy =     -318.39354105  energy(sigma->0) =     -318.38657760


--------------------------------------------------------------------------------------------------------




--------------------------------------- Iteration      1(  11)  ---------------------------------------


    POTLOK:  cpu time    0.3912: real time    0.3911
    SETDIJ:  cpu time    0.4979: real time    0.5035
    TRIAL :  cpu time   16.6807: real time   16.8353
    CORREC:  cpu time    5.1487: real time    5.1770
    CHARGE:  cpu time    1.6160: real time    1.6370
    --------------------------------------------
      LOOP:  cpu time   24.3381: real time   24.5504

 eigenvalue-minimisations  :     0
 total energy-change (2. order) :-0.1228079E+02  (-0.1509650E+02)
 number of electron     269.9999992 magnetization     -19.5812078
 augmentation part       88.6882920 magnetization     -13.6013013

 Free energy of the ion-electron system (eV)
  ---------------------------------------------------
  alpha Z        PSCENC =       798.38614055
  Ewald energy   TEWEN  =    -12901.57693327
  -Hartree energ DENC   =     -2396.11656115
  -exchange      EXHF   =         0.00000000
  -V(xc)+E(xc)   XCENC  =     -1002.68140841
  PAW double counting   =     21763.14032684   -20573.09119240
  entropy T*S    EENTRO =        -0.00435272
  eigenvalues    EBANDS =      1283.59128605
  atomic energy  EATOM  =     12697.67401269
  ---------------------------------------------------
  free energy    TOTEN  =      -330.66388392 eV

  energy without entropy =     -330.65953120  energy(sigma->0) =     -330.66243302


--------------------------------------------------------------------------------------------------------




--------------------------------------- Iteration      1(  12)  ---------------------------------------


    POTLOK:  cpu time    0.3918: real time    0.3919
    SETDIJ:  cpu time    0.4368: real time    0.4770
    TRIAL :  cpu time   16.8577: real time   17.1352
    CORREC:  cpu time    5.6122: real time    5.6380
    CHARGE:  cpu time    1.6037: real time    1.6133
    --------------------------------------------
      LOOP:  cpu time   24.9062: real time   25.2595

 eigenvalue-minimisations  :     0
 total energy-change (2. order) :-0.1498821E+02  (-0.6152083E+01)
 number of electron     269.9999993 magnetization     -19.2884397
 augmentation part       86.7965068 magnetization     -13.3683960

 Free energy of the ion-electron system (eV)
  ---------------------------------------------------
  alpha Z        PSCENC =       798.38614055
  Ewald energy   TEWEN  =    -12901.57693327
  -Hartree energ DENC   =     -2578.29585048
  -exchange      EXHF   =         0.00000000
  -V(xc)+E(xc)   XCENC  =      -997.36386958
  PAW double counting   =     21674.63196030   -20472.25328838
  entropy T*S    EENTRO =        -0.00714056
  eigenvalues    EBANDS =      1433.15008393
  atomic energy  EATOM  =     12697.67401269
  ---------------------------------------------------
  free energy    TOTEN  =      -345.65209697 eV

  energy without entropy =     -345.64495640  energy(sigma->0) =     -345.64971678


--------------------------------------------------------------------------------------------------------




--------------------------------------- Iteration      1(  13)  ---------------------------------------


    POTLOK:  cpu time    0.3869: real time    0.3921
    SETDIJ:  cpu time    0.5109: real time    0.5109
    TRIAL :  cpu time   16.7086: real time   16.8299
    CORREC:  cpu time    5.1084: real time    5.1620
    CHARGE:  cpu time    1.6114: real time    1.6552
    --------------------------------------------
      LOOP:  cpu time   24.3416: real time   24.5657

 eigenvalue-minimisations  :     0
 total energy-change (2. order) :-0.6026559E+01  (-0.1029552E+01)
 number of electron     269.9999993 magnetization     -19.2816099
 augmentation part       85.9378868 magnetization     -13.2625925

 Free energy of the ion-electron system (eV)
  ---------------------------------------------------
  alpha Z        PSCENC =       798.38614055
  Ewald energy   TEWEN  =    -12901.57693327
  -Hartree energ DENC   =     -2522.42554438
  -exchange      EXHF   =         0.00000000
  -V(xc)+E(xc)   XCENC  =      -999.98274595
  PAW double counting   =     21298.04056898   -20060.00660940
  entropy T*S    EENTRO =        -0.00914783
  eigenvalues    EBANDS =      1338.21959520
  atomic energy  EATOM  =     12697.67401269
  ---------------------------------------------------
  free energy    TOTEN  =      -351.67865614 eV

  energy without entropy =     -351.66950831  energy(sigma->0) =     -351.67560686


--------------------------------------------------------------------------------------------------------




--------------------------------------- Iteration      1(  14)  ---------------------------------------


    POTLOK:  cpu time    0.3923: real time    0.3923
    SETDIJ:  cpu time    0.4593: real time    0.4594
    TRIAL :  cpu time   16.6894: real time   16.9025
    CORREC:  cpu time    5.9288: real time    6.0228
    CHARGE:  cpu time    1.6226: real time    1.6380
    --------------------------------------------
      LOOP:  cpu time   25.1034: real time   25.4263

 eigenvalue-minimisations  :     0
 total energy-change (2. order) :-0.1023146E+01  (-0.1099574E+01)
 number of electron     269.9999993 magnetization     -19.1941461
 augmentation part       85.7812233 magnetization     -13.0509498

 Free energy of the ion-electron system (eV)
  ---------------------------------------------------
  alpha Z        PSCENC =       798.38614055
  Ewald energy   TEWEN  =    -12901.57693327
  -Hartree energ DENC   =     -2475.08550647
  -exchange      EXHF   =         0.00000000
  -V(xc)+E(xc)   XCENC  =     -1001.84618887
  PAW double counting   =     20823.32774063   -19571.95630863
  entropy T*S    EENTRO =        -0.00908070
  eigenvalues    EBANDS =      1278.38438881
  atomic energy  EATOM  =     12697.67401269
  ---------------------------------------------------
  free energy    TOTEN  =      -352.70180240 eV

  energy without entropy =     -352.69272171  energy(sigma->0) =     -352.69877550


--------------------------------------------------------------------------------------------------------




--------------------------------------- Iteration      1(  15)  ---------------------------------------


    POTLOK:  cpu time    0.3919: real time    0.3919
    SETDIJ:  cpu time    0.4749: real time    0.4749
    TRIAL :  cpu time   16.7110: real time   16.8760
    CORREC:  cpu time    5.1178: real time    5.1338
    CHARGE:  cpu time    1.6181: real time    1.6238
    --------------------------------------------
      LOOP:  cpu time   24.3173: real time   24.5061

 eigenvalue-minimisations  :     0
 total energy-change (2. order) :-0.1099039E+01  (-0.8497982E+00)
 number of electron     269.9999992 magnetization     -19.0796909
 augmentation part       86.7274758 magnetization     -12.9554793

 Free energy of the ion-electron system (eV)
  ---------------------------------------------------
  alpha Z        PSCENC =       798.38614055
  Ewald energy   TEWEN  =    -12901.57693327
  -Hartree energ DENC   =     -2454.89995216
  -exchange      EXHF   =         0.00000000
  -V(xc)+E(xc)   XCENC  =     -1002.77905334
  PAW double counting   =     20111.01755421   -18853.14783595
  entropy T*S    EENTRO =        -0.01302730
  eigenvalues    EBANDS =      1251.53430672
  atomic energy  EATOM  =     12697.67401269
  ---------------------------------------------------
  free energy    TOTEN  =      -353.80084124 eV

  energy without entropy =     -353.78781394  energy(sigma->0) =     -353.79649881


--------------------------------------------------------------------------------------------------------




--------------------------------------- Iteration      1(  16)  ---------------------------------------


    POTLOK:  cpu time    0.3931: real time    0.3930
    SETDIJ:  cpu time    0.4710: real time    0.4774
    TRIAL :  cpu time   16.6829: real time   16.8440
    CORREC:  cpu time    5.1021: real time    5.1516
    CHARGE:  cpu time    1.6151: real time    1.6157
    --------------------------------------------
      LOOP:  cpu time   24.2684: real time   24.4887

 eigenvalue-minimisations  :     0
 total energy-change (2. order) :-0.8547641E+00  (-0.3272157E+00)
 number of electron     269.9999992 magnetization     -18.9231353
 augmentation part       87.3285654 magnetization     -12.9468246

 Free energy of the ion-electron system (eV)
  ---------------------------------------------------
  alpha Z        PSCENC =       798.38614055
  Ewald energy   TEWEN  =    -12901.57693327
  -Hartree energ DENC   =     -2490.99386778
  -exchange      EXHF   =         0.00000000
  -V(xc)+E(xc)   XCENC  =     -1001.57977357
  PAW double counting   =     19624.93503152   -18374.20503055
  entropy T*S    EENTRO =        -0.01376336
  eigenvalues    EBANDS =      1292.71784243
  atomic energy  EATOM  =     12697.67401269
  ---------------------------------------------------
  free energy    TOTEN  =      -354.65560529 eV

  energy without entropy =     -354.64184193  energy(sigma->0) =     -354.65101750


--------------------------------------------------------------------------------------------------------




--------------------------------------- Iteration      1(  17)  ---------------------------------------


    POTLOK:  cpu time    0.3916: real time    0.3916
    SETDIJ:  cpu time    0.4601: real time    0.4601
    TRIAL :  cpu time   16.7898: real time   16.9447
    CORREC:  cpu time    5.2029: real time    5.2162
    CHARGE:  cpu time    1.6122: real time    1.6212
    --------------------------------------------
      LOOP:  cpu time   24.4947: real time   24.6731

 eigenvalue-minimisations  :     0
 total energy-change (2. order) :-0.3273688E+00  (-0.3322671E+00)
 number of electron     269.9999992 magnetization     -18.7945091
 augmentation part       87.2466265 magnetization     -12.9708788

 Free energy of the ion-electron system (eV)
  ---------------------------------------------------
  alpha Z        PSCENC =       798.38614055
  Ewald energy   TEWEN  =    -12901.57693327
  -Hartree energ DENC   =     -2517.11901965
  -exchange      EXHF   =         0.00000000
  -V(xc)+E(xc)   XCENC  =     -1000.45678227
  PAW double counting   =     19505.10095598   -18260.56385913
  entropy T*S    EENTRO =        -0.01634568
  eigenvalues    EBANDS =      1323.58627435
  atomic energy  EATOM  =     12697.67401269
  ---------------------------------------------------
  free energy    TOTEN  =      -354.98297412 eV

  energy without entropy =     -354.96662844  energy(sigma->0) =     -354.97752556


--------------------------------------------------------------------------------------------------------




--------------------------------------- Iteration      1(  18)  ---------------------------------------


    POTLOK:  cpu time    0.3914: real time    0.3914
    SETDIJ:  cpu time    0.4618: real time    0.4618
    TRIAL :  cpu time   16.6967: real time   16.8157
    CORREC:  cpu time    5.0985: real time    5.1738
    CHARGE:  cpu time    1.6163: real time    1.6168
    --------------------------------------------
      LOOP:  cpu time   24.2778: real time   24.4735

 eigenvalue-minimisations  :     0
 total energy-change (2. order) :-0.3321868E+00  (-0.1421927E+00)
 number of electron     269.9999992 magnetization     -18.7362682
 augmentation part       86.9847879 magnetization     -12.9746886

 Free energy of the ion-electron system (eV)
  ---------------------------------------------------
  alpha Z        PSCENC =       798.38614055
  Ewald energy   TEWEN  =    -12901.57693327
  -Hartree energ DENC   =     -2508.51459547
  -exchange      EXHF   =         0.00000000
  -V(xc)+E(xc)   XCENC  =     -1000.43429876
  PAW double counting   =     19398.11374311   -18152.74903597
  entropy T*S    EENTRO =        -0.01574220
  eigenvalues    EBANDS =      1313.80215185
  atomic energy  EATOM  =     12697.67401269
  ---------------------------------------------------
  free energy    TOTEN  =      -355.31516095 eV

  energy without entropy =     -355.29941875  energy(sigma->0) =     -355.30991355


--------------------------------------------------------------------------------------------------------




--------------------------------------- Iteration      1(  19)  ---------------------------------------


    POTLOK:  cpu time    0.3915: real time    0.3915
    SETDIJ:  cpu time    0.5292: real time    0.5292
    TRIAL :  cpu time   17.4695: real time   17.8433
    CORREC:  cpu time    5.1659: real time    5.2430
    CHARGE:  cpu time    2.1461: real time    2.1530
    --------------------------------------------
      LOOP:  cpu time   25.7174: real time   26.1756

 eigenvalue-minimisations  :     0
 total energy-change (2. order) :-0.1405377E+00  (-0.1245976E+00)
 number of electron     269.9999992 magnetization     -18.7422413
 augmentation part       86.6750820 magnetization     -13.0354603

 Free energy of the ion-electron system (eV)
  ---------------------------------------------------
  alpha Z        PSCENC =       798.38614055
  Ewald energy   TEWEN  =    -12901.57693327
  -Hartree energ DENC   =     -2494.19320846
  -exchange      EXHF   =         0.00000000
  -V(xc)+E(xc)   XCENC  =     -1000.78262460
  PAW double counting   =     19358.99363775   -18110.88568208
  entropy T*S    EENTRO =        -0.01732839
  eigenvalues    EBANDS =      1296.94470097
  atomic energy  EATOM  =     12697.67401269
  ---------------------------------------------------
  free energy    TOTEN  =      -355.45569864 eV

  energy without entropy =     -355.43837025  energy(sigma->0) =     -355.44992251


--------------------------------------------------------------------------------------------------------




--------------------------------------- Iteration      1(  20)  ---------------------------------------


    POTLOK:  cpu time    0.3942: real time    0.4116
    SETDIJ:  cpu time    0.4540: real time    0.4540
    TRIAL :  cpu time   16.6403: real time   16.7617
    CORREC:  cpu time    5.1573: real time    5.1694
    CHARGE:  cpu time    1.6218: real time    1.6281
    --------------------------------------------
      LOOP:  cpu time   24.2785: real time   24.4374

 eigenvalue-minimisations  :     0
 total energy-change (2. order) :-0.1246052E+00  (-0.1736581E+00)
 number of electron     269.9999992 magnetization     -18.7356993
 augmentation part       86.7499484 magnetization     -13.1281058

 Free energy of the ion-electron system (eV)
  ---------------------------------------------------
  alpha Z        PSCENC =       798.38614055
  Ewald energy   TEWEN  =    -12901.57693327
  -Hartree energ DENC   =     -2480.24303620
  -exchange      EXHF   =         0.00000000
  -V(xc)+E(xc)   XCENC  =     -1001.11674040
  PAW double counting   =     19342.99419808   -18091.90671088
  entropy T*S    EENTRO =        -0.01861863
  eigenvalues    EBANDS =      1280.22609403
  atomic energy  EATOM  =     12697.67401269
  ---------------------------------------------------
  free energy    TOTEN  =      -355.58030380 eV

  energy without entropy =     -355.56168517  energy(sigma->0) =     -355.57409759


--------------------------------------------------------------------------------------------------------




--------------------------------------- Iteration      1(  21)  ---------------------------------------


    POTLOK:  cpu time    0.3906: real time    0.3909
    SETDIJ:  cpu time    0.4665: real time    0.4735
    TRIAL :  cpu time   16.6364: real time   16.9841
    CORREC:  cpu time    5.1331: real time    5.1810
    CHARGE:  cpu time    1.6236: real time    1.6315
    --------------------------------------------
      LOOP:  cpu time   24.2640: real time   24.6760

 eigenvalue-minimisations  :     0
 total energy-change (2. order) :-0.1735983E+00  (-0.8300259E-01)
 number of electron     269.9999992 magnetization     -18.7461548
 augmentation part       86.9062635 magnetization     -13.1658048

 Free energy of the ion-electron system (eV)
  ---------------------------------------------------
  alpha Z        PSCENC =       798.38614055
  Ewald energy   TEWEN  =    -12901.57693327
  -Hartree energ DENC   =     -2490.21017914
  -exchange      EXHF   =         0.00000000
  -V(xc)+E(xc)   XCENC  =     -1000.56713634
  PAW double counting   =     19389.83477859   -18140.39788919
  entropy T*S    EENTRO =        -0.02000237
  eigenvalues    EBANDS =      1291.12192262
  atomic energy  EATOM  =     12697.67401269
  ---------------------------------------------------
  free energy    TOTEN  =      -355.75390212 eV

  energy without entropy =     -355.73389975  energy(sigma->0) =     -355.74723466


--------------------------------------------------------------------------------------------------------




--------------------------------------- Iteration      1(  22)  ---------------------------------------


    POTLOK:  cpu time    0.3955: real time    0.4099
    SETDIJ:  cpu time    1.2857: real time    1.2860
    TRIAL :  cpu time   16.6384: real time   16.7456
    CORREC:  cpu time    5.0989: real time    5.2071
    CHARGE:  cpu time    1.6159: real time    1.6165
    --------------------------------------------
      LOOP:  cpu time   25.0408: real time   25.2717

 eigenvalue-minimisations  :     0
 total energy-change (2. order) :-0.8341356E-01  (-0.6287613E-01)
 number of electron     269.9999992 magnetization     -18.7248263
 augmentation part       86.9775589 magnetization     -13.1463744

 Free energy of the ion-electron system (eV)
  ---------------------------------------------------
  alpha Z        PSCENC =       798.38614055
  Ewald energy   TEWEN  =    -12901.57693327
  -Hartree energ DENC   =     -2501.40847427
  -exchange      EXHF   =         0.00000000
  -V(xc)+E(xc)   XCENC  =     -1000.09241053
  PAW double counting   =     19425.65758599   -18178.27523957
  entropy T*S    EENTRO =        -0.01961878
  eigenvalues    EBANDS =      1303.81800510
  atomic energy  EATOM  =     12697.67401269
  ---------------------------------------------------
  free energy    TOTEN  =      -355.83731568 eV

  energy without entropy =     -355.81769690  energy(sigma->0) =     -355.83077609


--------------------------------------------------------------------------------------------------------




--------------------------------------- Iteration      1(  23)  ---------------------------------------


    POTLOK:  cpu time    0.3918: real time    0.3919
    SETDIJ:  cpu time    0.4847: real time    0.4847
    TRIAL :  cpu time   16.6848: real time   16.8399
    CORREC:  cpu time    5.1579: real time    5.1721
    CHARGE:  cpu time    1.6207: real time    1.6305
    --------------------------------------------
      LOOP:  cpu time   24.3459: real time   24.5250

 eigenvalue-minimisations  :     0
 total energy-change (2. order) :-0.6285628E-01  (-0.5944510E-01)
 number of electron     269.9999992 magnetization     -18.7606889
 augmentation part       86.8962792 magnetization     -13.1460882

 Free energy of the ion-electron system (eV)
  ---------------------------------------------------
  alpha Z        PSCENC =       798.38614055
[...]
   45       -0.018  -0.020  -2.375  -2.412
   46       -0.028  -0.023  -2.424  -2.475
   47       -0.032  -0.027  -2.402  -2.461
   48       -0.021  -0.012  -2.353  -2.386
   49       -0.014  -0.018  -2.345  -2.376
   50        0.022   0.022   2.324   2.368
   51       -0.016  -0.024  -2.362  -2.402
   52       -0.013  -0.018  -2.345  -2.376
   53        0.022   0.022   2.328   2.373
   54       -0.016  -0.025  -2.364  -2.405
--------------------------------------------------
tot          0.017   0.116 -21.804 -21.671
 
    FORLOC:  cpu time    0.0600: real time    0.0600
    FORNL :  cpu time   25.9906: real time   26.2331
    STRESS:  cpu time   36.7309: real time   37.0557
    FORCOR:  cpu time    0.4398: real time    0.4399
    OFIELD:  cpu time    0.0018: real time    0.0018

  FORCE on cell =-STRESS in cart. coord.  units (eV):
  Direction    XX          YY          ZZ          XY          YZ          ZX
  --------------------------------------------------------------------------------------
  Alpha Z   798.38614   798.38614   798.38614
  Ewald   -4053.61603 -4053.61603 -4794.40593    -0.00000    -0.00000    -0.00000
  Hartree  1084.12871  1083.52968   333.29778    -0.00000    -0.00000    -0.21745
  E(xc)   -1141.83839 -1141.78856 -1140.17998     0.00000     0.00000     0.04315
  Local     369.02795   369.85024  1903.92797     0.00000     0.00000     0.67203
  n-local  -169.07938  -168.96986  -174.86843     0.00206    -0.18197     0.14547
  augment   784.72933   784.47017   768.20766     0.00000     0.00001    -0.24067
  Kinetic  2335.19240  2334.47989  2309.18503    -0.88033    -1.46382    -0.68286
  Fock        0.00000     0.00000     0.00000     0.00000     0.00000     0.00000
  -------------------------------------------------------------------------------------
  Total       6.93072     6.34167     3.55023     0.00000     0.00000    -0.28033
  in kB      15.64172    14.31232     8.01241     0.00000     0.00000    -0.63267
  external pressure =       12.66 kB  Pullay stress =        0.00 kB


 VOLUME and BASIS-vectors are now :
 -----------------------------------------------------------------------------
  energy-cutoff  :      404.80
  volume of cell :      709.91
      direct lattice vectors                 reciprocal lattice vectors
     8.250148166  0.000000000  0.000000000     0.121209944  0.000000000  0.000000000
     0.000000000  8.250148166  0.000000000     0.000000000  0.121209944  0.000000000
     0.000000000  0.000000000 10.429911392     0.000000000  0.000000000  0.095878092

  length of vectors
     8.250148166  8.250148166 10.429911392     0.121209944  0.121209944  0.095878092


 FORCES acting on ions:
    Electron-Ion                     Ewald-Force                    Non-Local-Force
 -----------------------------------------------------------------------------------------------
   0.709E-02 -.103E-01 -.121E-01   -.239E-08 -.239E-08 -.210E-08   -.257E-01 -.440E-01 -.332E-01
   0.172E-01 -.700E-01 0.289E-01   -.239E-08 -.239E-08 0.171E-08   -.588E-03 0.127E+00 -.187E-01
   0.123E+00 -.158E+00 0.426E-01   -.239E-08 -.239E-08 0.861E-08   -.799E-01 0.104E+00 0.109E-01
   0.709E-02 0.103E-01 -.121E-01   -.239E-08 -.802E-09 -.210E-08   -.257E-01 0.440E-01 -.332E-01
   0.172E-01 0.700E-01 0.289E-01   -.239E-08 -.802E-09 0.171E-08   -.588E-03 -.127E+00 -.187E-01
   0.123E+00 0.158E+00 0.426E-01   -.239E-08 -.802E-09 0.861E-08   -.799E-01 -.104E+00 0.109E-01
   0.347E-01 -.328E-08 0.188E-01   -.239E-08 0.631E-08 -.210E-08   -.144E-01 0.000E+00 0.917E-02
   0.609E-02 -.328E-08 0.730E-01   -.239E-08 0.631E-08 0.171E-08   -.107E-01 0.000E+00 -.375E-01
   -.206E-01 -.328E-08 -.140E+00   -.239E-08 0.631E-08 0.861E-08   0.594E-02 0.000E+00 0.606E-01
   0.468E-01 -.359E-01 -.380E-01   -.802E-09 -.239E-08 -.210E-08   0.141E-01 -.305E-02 -.919E-02
   0.111E+00 -.847E-01 0.130E+00   -.802E-09 -.239E-08 0.171E-08   -.838E-01 0.885E-01 -.426E-01
   0.273E-01 0.505E-02 -.570E-01   -.803E-09 -.239E-08 0.861E-08   -.730E-02 0.854E-02 0.234E-01
   0.468E-01 0.359E-01 -.380E-01   -.802E-09 -.802E-09 -.210E-08   0.141E-01 0.305E-02 -.919E-02
   0.111E+00 0.847E-01 0.130E+00   -.802E-09 -.802E-09 0.171E-08   -.838E-01 -.885E-01 -.426E-01
   0.273E-01 -.505E-02 -.570E-01   -.803E-09 -.802E-09 0.861E-08   -.730E-02 -.854E-02 0.234E-01
   -.375E-01 -.328E-08 0.283E-01   -.802E-09 0.631E-08 -.210E-08   0.110E-01 0.000E+00 0.793E-02
   -.227E-01 -.329E-08 0.927E-01   -.802E-09 0.631E-08 0.171E-08   0.111E-01 0.000E+00 -.116E-01
   0.172E-01 -.329E-08 -.168E+00   -.803E-09 0.631E-08 0.861E-08   -.629E-02 0.000E+00 0.419E-01
   -.198E-01 0.196E-01 0.221E-01   0.631E-08 -.239E-08 -.210E-08   -.593E-02 -.961E-02 0.500E-04
   -.142E+00 -.112E+00 0.447E-02   0.631E-08 -.239E-08 0.171E-08   0.101E+00 0.862E-01 -.310E-01
   -.195E+00 -.143E+00 -.602E-01   0.631E-08 -.239E-08 0.861E-08   0.112E+00 0.104E+00 0.493E-01
   -.198E-01 -.196E-01 0.221E-01   0.631E-08 -.802E-09 -.210E-08   -.593E-02 0.961E-02 0.500E-04
   -.142E+00 0.112E+00 0.447E-02   0.631E-08 -.802E-09 0.171E-08   0.101E+00 -.862E-01 -.310E-01
   -.195E+00 0.143E+00 -.602E-01   0.631E-08 -.802E-09 0.861E-08   0.112E+00 -.104E+00 0.493E-01
   -.868E-02 -.328E-08 -.129E-01   0.631E-08 0.631E-08 -.210E-08   0.946E-02 0.000E+00 0.408E-01
   0.192E-01 -.329E-08 0.108E+00   0.631E-08 0.631E-08 0.171E-08   -.211E-02 0.000E+00 -.779E-01
   0.358E-02 -.329E-08 -.101E+00   0.631E-08 0.631E-08 0.861E-08   0.283E-02 0.000E+00 0.619E-01
   -.827E-01 0.475E-08 0.452E+00   -.169E-07 -.169E-07 -.180E-07   0.582E-01 0.000E+00 -.483E+00
   0.350E+00 0.488E-08 -.334E+00   -.169E-07 -.169E-07 -.170E-08   -.210E+00 0.000E+00 0.451E+00
   0.563E-01 0.488E-08 -.174E+00   -.169E-07 -.169E-07 0.115E-07   -.531E-01 0.000E+00 0.183E+00
   -.489E-01 0.220E+00 -.193E-01   -.169E-07 0.802E-09 -.180E-07   0.592E-01 -.798E-01 0.223E-01
   -.105E+00 -.500E-01 0.120E+00   -.169E-07 0.802E-09 -.170E-08   0.101E+00 0.114E+00 -.121E+00
   -.336E-01 -.772E-01 0.228E-01   -.169E-07 0.802E-09 0.115E-07   0.274E-01 0.247E-01 -.870E-01
   -.489E-01 -.220E+00 -.193E-01   -.169E-07 0.130E-07 -.180E-07   0.592E-01 0.798E-01 0.223E-01
   -.105E+00 0.500E-01 0.120E+00   -.169E-07 0.130E-07 -.170E-08   0.101E+00 -.114E+00 -.121E+00
   -.336E-01 0.772E-01 0.228E-01   -.169E-07 0.130E-07 0.115E-07   0.274E-01 -.247E-01 -.870E-01
   0.219E+00 0.489E-08 -.982E-01   0.802E-09 -.169E-07 -.180E-07   -.122E+00 0.000E+00 0.122E+00
   -.250E+00 0.490E-08 0.185E+00   0.802E-09 -.169E-07 -.170E-08   0.144E+00 0.000E+00 -.187E+00
   -.110E+00 0.485E-08 0.113E+00   0.802E-09 -.169E-07 0.115E-07   0.300E-01 0.000E+00 -.157E+00
   -.870E-01 -.157E+00 0.289E-01   0.802E-09 0.802E-09 -.180E-07   0.101E+00 0.151E+00 0.371E-01
   0.864E-01 -.136E+00 -.763E-02   0.802E-09 0.802E-09 -.170E-08   -.105E+00 0.111E+00 0.710E-02
   0.253E-02 -.768E-01 -.530E-01   0.802E-09 0.802E-09 0.115E-07   0.403E-01 0.101E+00 -.130E-01
   -.870E-01 0.157E+00 0.289E-01   0.802E-09 0.130E-07 -.180E-07   0.101E+00 -.151E+00 0.371E-01
   0.864E-01 0.136E+00 -.763E-02   0.802E-09 0.130E-07 -.170E-08   -.105E+00 -.111E+00 0.710E-02
   0.253E-02 0.768E-01 -.530E-01   0.802E-09 0.130E-07 0.115E-07   0.403E-01 -.101E+00 -.130E-01
   -.257E+00 0.484E-08 0.221E+00   0.130E-07 -.169E-07 -.180E-07   0.126E+00 0.000E+00 -.246E+00
   0.561E-01 0.473E-08 -.135E+00   0.130E-07 -.169E-07 -.170E-08   -.401E-01 0.000E+00 0.203E+00
   0.557E-01 0.479E-08 -.168E+00   0.130E-07 -.169E-07 0.115E-07   0.347E-02 0.000E+00 0.135E+00
   0.125E+00 -.358E-01 0.439E-02   0.130E-07 0.802E-09 -.180E-07   -.126E+00 0.706E-01 0.311E-01
   0.186E-01 0.261E+00 -.603E-01   0.130E-07 0.802E-09 -.170E-08   -.131E-01 -.158E+00 0.657E-01
   0.237E-01 0.436E-01 0.200E-01   0.130E-07 0.802E-09 0.115E-07   -.492E-01 0.322E-02 -.509E-01
   0.125E+00 0.358E-01 0.439E-02   0.130E-07 0.130E-07 -.180E-07   -.126E+00 -.706E-01 0.311E-01
   0.186E-01 -.261E+00 -.603E-01   0.130E-07 0.130E-07 -.170E-08   -.131E-01 0.158E+00 0.657E-01
   0.237E-01 -.436E-01 0.200E-01   0.130E-07 0.130E-07 0.115E-07   -.492E-01 -.322E-02 -.509E-01
 -----------------------------------------------------------------------------------------------
   -.633E-01 -.405E-07 0.205E+00   -.614E-13 -.142E-13 0.128E-13   0.627E-01 0.520E-17 -.205E+00
 
 
 POSITION                                       TOTAL-FORCE (eV/Angst)
 -----------------------------------------------------------------------------------
      0.00000      0.00000      0.00000        -0.015502     -0.050450     -0.041077
      0.00000      0.00000      3.47664         0.016854      0.047226      0.011759
      0.00000      0.00000      6.95327         0.050112     -0.062695      0.051854
      0.00000      2.75005      0.00000        -0.015502      0.050450     -0.041077
      0.00000      2.75005      3.47664         0.016854     -0.047226      0.011759
      0.00000      2.75005      6.95327         0.050112      0.062695      0.051854
      0.00000      5.50010      0.00000         0.021663     -0.000000      0.027464
      0.00000      5.50010      3.47664        -0.003698     -0.000000      0.038878
      0.00000      5.50010      6.95327        -0.015591     -0.000000     -0.086029
      2.75005      0.00000      0.00000         0.059570     -0.037970     -0.045419
      2.75005      0.00000      3.47664         0.034647     -0.003182      0.090660
      2.75005      0.00000      6.95327         0.020651      0.013390     -0.035696
      2.75005      2.75005      0.00000         0.059570      0.037970     -0.045419
      2.75005      2.75005      3.47664         0.034647      0.003182      0.090660
      2.75005      2.75005      6.95327         0.020651     -0.013390     -0.035696
      2.75005      5.50010      0.00000        -0.028036     -0.000000      0.036055
      2.75005      5.50010      3.47664        -0.013079     -0.000000      0.082335
      2.75005      5.50010      6.95327         0.011403     -0.000000     -0.131327
      5.50010      0.00000      0.00000        -0.025543      0.010937      0.022480
      5.50010      0.00000      3.47664        -0.048854     -0.032575     -0.023126
      5.50010      0.00000      6.95327        -0.093032     -0.048100     -0.016726
      5.50010      2.75005      0.00000        -0.025543     -0.010937      0.022480
      5.50010      2.75005      3.47664        -0.048854      0.032575     -0.023126
      5.50010      2.75005      6.95327        -0.093032      0.048100     -0.016726
      5.50010      5.50010      0.00000         0.000379     -0.000000      0.024532
      5.50010      5.50010      3.47664         0.017822     -0.000000      0.037813
      5.50010      5.50010      6.95327         0.006719     -0.000000     -0.044891
      1.37502      1.37502      1.73832        -0.024960     -0.000000     -0.022840
      1.37502      1.37502      5.21496         0.141409     -0.000000      0.111882
      1.37502      1.37502      8.69159         0.005015     -0.000000      0.005420
      1.37502      4.12507      1.73832         0.009597      0.143226     -0.001372
      1.37502      4.12507      5.21496        -0.005520      0.061472      0.000827
      1.37502      4.12507      8.69159        -0.006774     -0.050781     -0.056893
      1.37502      6.87512      1.73832         0.009597     -0.143226     -0.001372
      1.37502      6.87512      5.21496        -0.005520     -0.061472      0.000827
      1.37502      6.87512      8.69159        -0.006774      0.050781     -0.056893
      4.12507      1.37502      1.73832         0.099212     -0.000000      0.016907
      4.12507      1.37502      5.21496        -0.106661     -0.000000      0.001983
      4.12507      1.37502      8.69159        -0.078942     -0.000000     -0.032386
      4.12507      4.12507      1.73832         0.012633     -0.007755      0.058805
      4.12507      4.12507      5.21496        -0.017379     -0.026874     -0.002110
      4.12507      4.12507      8.69159         0.042520      0.023112     -0.058882
      4.12507      6.87512      1.73832         0.012633      0.007755      0.058805
      4.12507      6.87512      5.21496        -0.017379      0.026874     -0.002110
      4.12507      6.87512      8.69159         0.042520     -0.023112     -0.058882
      6.87512      1.37502      1.73832        -0.138565     -0.000000     -0.026698
      6.87512      1.37502      5.21496         0.019727     -0.000000      0.065855
      6.87512      1.37502      8.69159         0.056467     -0.000000     -0.031919
      6.87512      4.12507      1.73832         0.000075      0.034366      0.027341
      6.87512      4.12507      5.21496         0.006017      0.101157      0.003901
      6.87512      4.12507      8.69159        -0.025214      0.047532     -0.022843
      6.87512      6.87512      1.73832         0.000075     -0.034366      0.027341
      6.87512      6.87512      5.21496         0.006017     -0.101157      0.003901
      6.87512      6.87512      8.69159        -0.025214     -0.047532     -0.022843
 -----------------------------------------------------------------------------------
    total drift:                               -0.000547     -0.000000      0.000012


--------------------------------------------------------------------------------------------------------



  FREE ENERGIE OF THE ION-ELECTRON SYSTEM (eV)
  ---------------------------------------------------
  free  energy   TOTEN  =      -356.52961600 eV

  energy  without entropy=     -356.47984215  energy(sigma->0) =     -356.51302471
 


--------------------------------------------------------------------------------------------------------


    POTLOK:  cpu time    0.9238: real time    0.9299


--------------------------------------------------------------------------------------------------------


     LOOP+:  cpu time 2699.2412: real time 2726.5338
    4ORBIT:  cpu time    0.0000: real time    0.0000
 


 total charge     
 
# of ion       s       p       d       tot
------------------------------------------
    1        0.405   0.429   0.000   0.834
    2        0.405   0.430   0.000   0.835
    3        0.405   0.428   0.000   0.834
    4        0.405   0.429   0.000   0.834
    5        0.405   0.429   0.000   0.834
    6        0.406   0.429   0.000   0.834
    7        0.404   0.429   0.000   0.832
    8        0.405   0.426   0.000   0.831
    9        0.405   0.426   0.000   0.832
   10        0.404   0.430   0.000   0.834
   11        0.405   0.428   0.000   0.833
   12        0.405   0.426   0.000   0.831
   13        0.404   0.430   0.000   0.834
   14        0.405   0.427   0.000   0.833
   15        0.405   0.426   0.000   0.832
   16        0.405   0.429   0.000   0.833
   17        0.405   0.426   0.000   0.832
   18        0.405   0.427   0.000   0.832
   19        0.405   0.429   0.000   0.833
   20        0.405   0.428   0.000   0.833
   21        0.406   0.428   0.000   0.833
   22        0.404   0.428   0.000   0.832
   23        0.405   0.428   0.000   0.833
   24        0.405   0.428   0.000   0.834
   25        0.404   0.429   0.000   0.833
   26        0.405   0.426   0.000   0.831
   27        0.405   0.427   0.000   0.832
   28        0.334   0.353   5.136   5.823
   29        0.336   0.353   5.127   5.816
   30        0.331   0.355   5.131   5.817
   31        0.334   0.355   5.127   5.816
   32        0.334   0.353   5.139   5.826
   33        0.333   0.349   5.142   5.824
   34        0.334   0.355   5.129   5.818
   35        0.333   0.354   5.127   5.814
   36        0.333   0.350   5.136   5.819
   37        0.333   0.357   5.125   5.815
   38        0.334   0.356   5.129   5.819
   39        0.333   0.352   5.134   5.818
   40        0.332   0.351   5.142   5.825
   41        0.333   0.351   5.135   5.820
   42        0.334   0.351   5.140   5.824
   43        0.332   0.351   5.136   5.820
   44        0.334   0.351   5.139   5.824
   45        0.334   0.351   5.135   5.820
   46        0.334   0.354   5.129   5.818
   47        0.339   0.358   5.116   5.813
   48        0.333   0.347   5.146   5.826
   49        0.332   0.353   5.131   5.816
   50        0.335   0.355   5.129   5.819
   51        0.334   0.353   5.136   5.822
   52        0.332   0.353   5.139   5.824
   53        0.335   0.355   5.128   5.818
   54        0.333   0.353   5.129   5.815
--------------------------------------------------
tot         19.941  21.084 138.593 179.618
 


 magnetization (x)
 
# of ion       s       p       d       tot
------------------------------------------
    1        0.017   0.030   0.000   0.047
    2       -0.000  -0.002   0.000  -0.002
    3        0.004   0.007   0.000   0.011
    4        0.017   0.031   0.000   0.048
    5       -0.000  -0.002   0.000  -0.002
    6        0.004   0.007   0.000   0.011
    7        0.022   0.035   0.000   0.057
    8        0.000  -0.000   0.000  -0.000
    9        0.001   0.003   0.000   0.003
   10        0.018   0.029   0.000   0.046
   11       -0.003  -0.007   0.000  -0.011
   12        0.001   0.000   0.000   0.001
   13        0.018   0.029   0.000   0.047
   14       -0.003  -0.008   0.000  -0.011
   15        0.001   0.000   0.000   0.001
   16        0.021   0.037   0.000   0.058
   17       -0.001  -0.003   0.000  -0.004
   18       -0.001  -0.000   0.000  -0.001
   19        0.021   0.038   0.000   0.059
   20        0.003   0.006   0.000   0.009
   21        0.004   0.008   0.000   0.012
   22        0.021   0.038   0.000   0.059
   23        0.003   0.006   0.000   0.009
   24        0.004   0.008   0.000   0.012
   25        0.023   0.037   0.000   0.060
   26        0.001   0.001   0.000   0.002
   27        0.001   0.001   0.000   0.002
   28        0.031   0.022   2.313   2.367
   29        0.027   0.021   2.438   2.486
   30       -0.012  -0.025  -2.230  -2.267
   31       -0.025  -0.025  -2.388  -2.438
   32        0.010   0.015   2.265   2.290
   33       -0.019  -0.016  -2.374  -2.409
   34       -0.025  -0.026  -2.388  -2.438
   35        0.011   0.014   2.280   2.306
   36       -0.020  -0.016  -2.382  -2.418
   37       -0.024  -0.030  -2.378  -2.432
   38        0.020   0.025   2.274   2.319
   39       -0.018  -0.021  -2.386  -2.426
   40       -0.014  -0.014  -2.346  -2.374
   41        0.013   0.010   2.269   2.292
   42       -0.017  -0.020  -2.371  -2.408
   43       -0.015  -0.013  -2.351  -2.379
   44        0.012   0.011   2.267   2.290
   45       -0.018  -0.020  -2.375  -2.412
   46       -0.028  -0.023  -2.424  -2.475
   47       -0.032  -0.027  -2.402  -2.461
   48       -0.021  -0.012  -2.353  -2.386
   49       -0.014  -0.018  -2.345  -2.376
   50        0.022   0.022   2.324   2.368
   51       -0.016  -0.024  -2.362  -2.402
   52       -0.013  -0.018  -2.345  -2.376
   53        0.022   0.022   2.328   2.373
   54       -0.016  -0.025  -2.364  -2.405
--------------------------------------------------
tot          0.017   0.116 -21.804 -21.671
 

 total amount of memory used by VASP MPI-rank0   944441. kBytes
=======================================================================

   base      :      30000. kBytes
   nonl-proj :      34193. kBytes
   fftplans  :      31580. kBytes
   grid      :      21385. kBytes
   one-center:        435. kBytes
   wavefun   :     826848. kBytes
 
  
  
 General timing and accounting informations for this job:
 ========================================================
  
                  Total CPU time used (sec):     2733.394
                            User time (sec):     2701.985
                          System time (sec):       31.409
                         Elapsed time (sec):     2763.492
  
                   Maximum memory used (kb):     1110160.
                   Average memory used (kb):           0.
  
                          Minor page faults:       574586
                          Major page faults:           20
                 Voluntary context switches:         3521
