       N       E                     dE             d eps       ncg     rms          rms(c)
DAV:   1     0.396905606818E+04    0.39691E+04   -0.14628E+05  6912   0.168E+03
DAV:   2     0.489265666899E+03   -0.34798E+04   -0.32234E+04  7448   0.448E+02
DAV:   3    -0.170450697738E+03   -0.65972E+03   -0.64005E+03  7496   0.214E+02
DAV:   4    -0.208796568531E+03   -0.38346E+02   -0.37489E+02  7984   0.555E+01
DAV:   5    -0.210292749416E+03   -0.14962E+01   -0.14882E+01  8520   0.111E+01    0.376E+01
DAV:   6    -0.182652783522E+03    0.27640E+02   -0.20779E+02  9632   0.641E+01    0.191E+01
DAV:   7    -0.182689306246E+03   -0.36523E-01   -0.29137E+01  9720   0.375E+01    0.844E+00
DAV:   8    -0.183015676300E+03   -0.32637E+00   -0.39682E+00  8624   0.574E+00    0.455E+00
DAV:   9    -0.182906225869E+03    0.10945E+00   -0.60033E-01  9128   0.655E+00    0.195E+00
DAV:  10    -0.182926294492E+03   -0.20069E-01   -0.23306E-01  9136   0.281E+00    0.634E-01
DAV:  11    -0.182928077565E+03   -0.17831E-02   -0.36325E-02  9896   0.120E+00    0.235E-01
DAV:  12    -0.182931468247E+03   -0.33907E-02   -0.12267E-02  7440   0.419E-01    0.107E-01
DAV:  13    -0.182932240536E+03   -0.77229E-03   -0.16722E-03  8752   0.131E-01    0.417E-02
DAV:  14    -0.182932296007E+03   -0.55471E-04   -0.13118E-04  8768   0.656E-02    0.203E-02
DAV:  15    -0.182932315522E+03   -0.19515E-04   -0.38544E-05  8552   0.256E-02    0.104E-02
DAV:  16    -0.182932321942E+03   -0.64201E-05   -0.97819E-06  8752   0.176E-02    0.459E-03
DAV:  17    -0.182932323223E+03   -0.12813E-05   -0.25188E-06  8176   0.554E-03    0.166E-03
DAV:  18    -0.182932323436E+03   -0.21239E-06   -0.12419E-07  4808   0.221E-03    0.814E-04
DAV:  19    -0.182932323597E+03   -0.16170E-06   -0.69059E-08  4504   0.188E-03    0.420E-04
DAV:  20    -0.182932323680E+03   -0.82338E-07   -0.46452E-08  4280   0.101E-03
   1 F= -.18293232E+03 E0= -.18293232E+03  d E =0.000000E+00  mag=     0.0000
