 vasp.5.4.4.18Apr17-6-g9f103f2a35 (build Dec 20 2018 12:05:58) complex          
  
 executed on             LinuxIFC date 2019.06.20  22:45:45
 running on   32 total cores
 distrk:  each k-point on    8 cores,    4 groups
 distr:  one band on NCORES_PER_BAND=   4 cores,    2 groups


--------------------------------------------------------------------------------------------------------


 INCAR:
 POTCAR:    PAW_PBE Al 04Jan2001                  
 POTCAR:    PAW_PBE Mn 06Sep2000                  

 ----------------------------------------------------------------------------- 
|                                                                             |
|           W    W    AA    RRRRR   N    N  II  N    N   GGGG   !!!           |
|           W    W   A  A   R    R  NN   N  II  NN   N  G    G  !!!           |
|           W    W  A    A  R    R  N N  N  II  N N  N  G       !!!           |
|           W WW W  AAAAAA  RRRRR   N  N N  II  N  N N  G  GGG   !            |
|           WW  WW  A    A  R   R   N   NN  II  N   NN  G    G                |
|           W    W  A    A  R    R  N    N  II  N    N   GGGG   !!!           |
|                                                                             |
|      You have enabled k-point parallelism (KPAR>1).                         |
|      This developmental code was originally  written by Paul Kent at ORNL,  |
|      and carefully double checked in Vienna.                                |
|      GW as well as linear response parallelism added by Martijn Marsman     |
|      and Georg Kresse.                                                      |
|      Carefully verify results versus KPAR=1.                                |
|      Report problems to Paul Kent and Vienna.                               |
|                                                                             |
 ----------------------------------------------------------------------------- 

 POTCAR:    PAW_PBE Al 04Jan2001                  
   VRHFIN =Al: s2p1                                                             
   LEXCH  = PE                                                                  
   EATOM  =    53.5387 eV,    3.9350 Ry                                         
                                                                                
   TITEL  = PAW_PBE Al 04Jan2001                                                
   LULTRA =        F    use ultrasoft PP ?                                      
   IUNSCR =        1    unscreen: 0-lin 1-nonlin 2-no                           
   RPACOR =    1.500    partial core radius                                     
   POMASS =   26.981; ZVAL   =    3.000    mass and valenz                      
   RCORE  =    1.900    outmost cutoff radius                                   
   RWIGS  =    2.650; RWIGS  =    1.402    wigner-seitz radius (au A)           
   ENMAX  =  240.300; ENMIN  =  180.225 eV                                      
   ICORE  =        2    local potential                                         
   LCOR   =        T    correct aug charges                                     
   LPAW   =        T    paw PP                                                  
   EAUG   =  291.052                                                            
   DEXC   =    0.000                                                            
   RMAX   =    1.939    core radius for proj-oper                               
   RAUG   =    1.300    factor for augmentation sphere                          
   RDEP   =    1.966    radius for radial grids                                 
   RDEPT  =    1.856    core radius for aug-charge                              
                                                                                
   Atomic configuration                                                         
    6 entries                                                                   
     n  l   j            E        occ.                                          
     1  0  0.50     -1511.1048   2.0000                                         
     2  0  0.50      -108.1629   2.0000                                         
     2  1  1.50       -69.6402   6.0000                                         
     3  0  0.50        -7.7528   2.0000                                         
     3  1  1.50        -2.7121   1.0000                                         
     3  2  2.50        -2.7212   0.0000                                         
   Description                                                                  
     l       E           TYP  RCUT    TYP  RCUT                                 
     0     -7.7528455     23  1.900                                             
     0     -3.3096929     23  1.900                                             
     1     -2.7120682     23  1.900                                             
     1     13.6058260     23  1.900                                             
     2     -2.7211652      7  1.900                                             
  local pseudopotential read in
  partial core-charges read in
  partial kinetic energy density read in
  atomic valenz-charges read in
  non local Contribution for L=           0  read in
    real space projection operators read in
  non local Contribution for L=           0  read in
    real space projection operators read in
  non local Contribution for L=           1  read in
    real space projection operators read in
  non local Contribution for L=           1  read in
    real space projection operators read in
    PAW grid and wavefunctions read in
 
   number of l-projection  operators is LMAX  =           4
   number of lm-projection operators is LMMAX =           8
 
 POTCAR:    PAW_PBE Mn 06Sep2000                  
   VRHFIN =Mn: d6 s1                                                            
   LEXCH  = PE                                                                  
   EATOM  =   416.7541 eV,   30.6306 Ry                                         
                                                                                
   TITEL  = PAW_PBE Mn 06Sep2000                                                
   LULTRA =        F    use ultrasoft PP ?                                      
   IUNSCR =        1    unscreen: 0-lin 1-nonlin 2-no                           
   RPACOR =    2.000    partial core radius                                     
   POMASS =   54.938; ZVAL   =    7.000    mass and valenz                      
   RCORE  =    2.300    outmost cutoff radius                                   
   RWIGS  =    2.500; RWIGS  =    1.323    wigner-seitz radius (au A)           
   ENMAX  =  269.864; ENMIN  =  202.398 eV                                      
   RCLOC  =    1.725    cutoff for local pot                                    
   LCOR   =        T    correct aug charges                                     
   LPAW   =        T    paw PP                                                  
   EAUG   =  500.711                                                            
   DEXC   =    0.000                                                            
   RMAX   =    2.343    core radius for proj-oper                               
   RAUG   =    1.300    factor for augmentation sphere                          
   RDEP   =    2.338    radius for radial grids                                 
   RDEPT  =    1.911    core radius for aug-charge                              
                                                                                
   Atomic configuration                                                         
    9 entries                                                                   
     n  l   j            E        occ.                                          
     1  0  0.50     -6424.8288   2.0000                                         
     2  0  0.50      -739.1154   2.0000                                         
     2  1  1.50      -625.3949   6.0000                                         
     3  0  0.50       -81.6100   2.0000                                         
     3  1  1.50       -50.4667   6.0000                                         
     3  2  2.50        -3.3745   6.0000                                         
     4  0  0.50        -4.1331   1.0000                                         
     4  1  0.50        -4.0817   0.0000                                         
     4  3  2.50        -1.3606   0.0000                                         
   Description                                                                  
     l       E           TYP  RCUT    TYP  RCUT                                 
     2     -3.3744664     23  2.300                                             
     2     -4.7350490     23  2.300                                             
     0     -4.1331408     23  2.300                                             
     0      7.6656614     23  2.300                                             
     1     -2.7211652     23  2.300                                             
     1     20.4087390     23  2.300                                             
  local pseudopotential read in
  partial core-charges read in
  partial kinetic energy density read in
  atomic valenz-charges read in
  non local Contribution for L=           2  read in
    real space projection operators read in
  non local Contribution for L=           2  read in
    real space projection operators read in
  non local Contribution for L=           0  read in
    real space projection operators read in
  non local Contribution for L=           0  read in
    real space projection operators read in
  non local Contribution for L=           1  read in
    real space projection operators read in
  non local Contribution for L=           1  read in
    real space projection operators read in
    PAW grid and wavefunctions read in
 
   number of l-projection  operators is LMAX  =           6
   number of lm-projection operators is LMMAX =          18
 

 ----------------------------------------------------------------------------- 
|                                                                             |
|  ADVICE TO THIS USER RUNNING 'VASP/VAMP'   (HEAR YOUR MASTER'S VOICE ...):  |
|                                                                             |
|      You have a (more or less) 'large supercell' and for larger cells       |
|      it might be more efficient to use real space projection opertators     |
|      So try LREAL= Auto  in the INCAR   file.                               |
|      Mind:          For very  accurate calculation you might also keep the  |
|      reciprocal projection scheme          (i.e. LREAL=.FALSE.)             |
|                                                                             |
 ----------------------------------------------------------------------------- 

  PAW_PBE Al 04Jan2001                  :
 energy of atom  1       EATOM=  -53.5387
 kinetic energy error for atom=    0.0005 (will be added to EATOM!!)
  PAW_PBE Mn 06Sep2000                  :
 energy of atom  2       EATOM= -416.7541
 kinetic energy error for atom=    0.0080 (will be added to EATOM!!)
 
 
 POSCAR: NewRef: 27, @ ['Mn', array([1.37502469, 
  positions in cartesian coordinates
  velocities in cartesian coordinates
  No initial velocities read in
 exchange correlation table for  LEXCH =        8
   RHO(1)=    0.500       N(1)  =     2000
   RHO(2)=  100.500       N(2)  =     4000
 


--------------------------------------------------------------------------------------------------------


 ion  position               nearest neighbor table
   1  0.000  0.000  0.000-  28 2.61  30 2.61  34 2.61  36 2.61  46 2.61  48 2.61  52 2.61  54 2.61
                             4 2.75  10 2.75   7 2.75  19 2.75
   2  0.000  0.000  0.333-  28 2.61  34 2.61  46 2.61  52 2.61  29 2.61  47 2.61  35 2.61  53 2.61
                             5 2.75  11 2.75   8 2.75  20 2.75
   3  0.000  0.000  0.667-  29 2.61  35 2.61  47 2.61  53 2.61  30 2.61  48 2.61  36 2.61  54 2.61
                             6 2.75  12 2.75   9 2.75  21 2.75
   4  0.000  0.333  0.000-  28 2.61  30 2.61  46 2.61  48 2.61  31 2.61  33 2.61  49 2.61  51 2.61
                            13 2.75   1 2.75   7 2.75  22 2.75
   5  0.000  0.333  0.333-  28 2.61  46 2.61  31 2.61  49 2.61  47 2.61  29 2.61  32 2.61  50 2.61
                            14 2.75   2 2.75   8 2.75  23 2.75
   6  0.000  0.333  0.667-  29 2.61  47 2.61  32 2.61  50 2.61  48 2.61  30 2.61  33 2.61  51 2.61
                            15 2.75   3 2.75   9 2.75  24 2.75
   7  0.000  0.667  0.000-  31 2.61  33 2.61  49 2.61  51 2.61  34 2.61  36 2.61  52 2.61  54 2.61
                             4 2.75  16 2.75   1 2.75  25 2.75
   8  0.000  0.667  0.333-  31 2.61  49 2.61  34 2.61  52 2.61  50 2.61  32 2.61  35 2.61  53 2.61
                             5 2.75  17 2.75   2 2.75  26 2.75
   9  0.000  0.667  0.667-  32 2.61  50 2.61  35 2.61  53 2.61  51 2.61  33 2.61  36 2.61  54 2.61
                             6 2.75  18 2.75   3 2.75  27 2.75
  10  0.333  0.000  0.000-  28 2.61  30 2.61  34 2.61  36 2.61  37 2.61  39 2.61  43 2.61  45 2.61
                            19 2.75   1 2.75  13 2.75  16 2.75
  11  0.333  0.000  0.333-  28 2.61  34 2.61  37 2.61  43 2.61  29 2.61  35 2.61  38 2.61  44 2.61
                            20 2.75   2 2.75  14 2.75  17 2.75
  12  0.333  0.000  0.667-  29 2.61  35 2.61  38 2.61  44 2.61  30 2.61  36 2.61  39 2.61  45 2.61
                            21 2.75   3 2.75  15 2.75  18 2.75
  13  0.333  0.333  0.000-  28 2.61  30 2.61  31 2.61  33 2.61  37 2.61  39 2.61  40 2.61  42 2.61
                             4 2.75  10 2.75  16 2.75  22 2.75
  14  0.333  0.333  0.333-  28 2.61  31 2.61  37 2.61  29 2.61  40 2.61  38 2.61  32 2.61  41 2.61
                             5 2.75  11 2.75  17 2.75  23 2.75
  15  0.333  0.333  0.667-  29 2.61  32 2.61  38 2.61  30 2.61  41 2.61  39 2.61  33 2.61  42 2.61
                             6 2.75  12 2.75  18 2.75  24 2.75
  16  0.333  0.667  0.000-  31 2.61  33 2.61  34 2.61  36 2.61  40 2.61  42 2.61  43 2.61  45 2.61
                            25 2.75   7 2.75  13 2.75  10 2.75
  17  0.333  0.667  0.333-  31 2.61  34 2.61  40 2.61  32 2.61  43 2.61  41 2.61  35 2.61  44 2.61
                            26 2.75   8 2.75  14 2.75  11 2.75
  18  0.333  0.667  0.667-  32 2.61  35 2.61  41 2.61  33 2.61  44 2.61  42 2.61  36 2.61  45 2.61
                            27 2.75   9 2.75  15 2.75  12 2.75
  19  0.667  0.000  0.000-  37 2.61  39 2.61  43 2.61  45 2.61  46 2.61  48 2.61  52 2.61  54 2.61
                            10 2.75  22 2.75   1 2.75  25 2.75
  20  0.667  0.000  0.333-  37 2.61  43 2.61  46 2.61  52 2.61  38 2.61  44 2.61  47 2.61  53 2.61
                            11 2.75  23 2.75   2 2.75  26 2.75
  21  0.667  0.000  0.667-  38 2.61  44 2.61  47 2.61  53 2.61  39 2.61  45 2.61  48 2.61  54 2.61
                            12 2.75  24 2.75   3 2.75  27 2.75
  22  0.667  0.333  0.000-  37 2.61  39 2.61  40 2.61  42 2.61  46 2.61  48 2.61  49 2.61  51 2.61
                            25 2.75  13 2.75  19 2.75   4 2.75
  23  0.667  0.333  0.333-  37 2.61  40 2.61  46 2.61  38 2.61  49 2.61  47 2.61  41 2.61  50 2.61
                            26 2.75  14 2.75  20 2.75   5 2.75
  24  0.667  0.333  0.667-  38 2.61  41 2.61  47 2.61  39 2.61  50 2.61  48 2.61  42 2.61  51 2.61
                            27 2.75  15 2.75  21 2.75   6 2.75
  25  0.667  0.667  0.000-  40 2.61  42 2.61  43 2.61  45 2.61  49 2.61  51 2.61  52 2.61  54 2.61
                            16 2.75  22 2.75  19 2.75   7 2.75
  26  0.667  0.667  0.333-  40 2.61  43 2.61  49 2.61  41 2.61  52 2.61  50 2.61  44 2.61  53 2.61
                            17 2.75  23 2.75  20 2.75   8 2.75
  27  0.667  0.667  0.667-  41 2.61  44 2.61  50 2.61  42 2.61  53 2.61  51 2.61  45 2.61  54 2.61
                            18 2.75  24 2.75  21 2.75   9 2.75
  28  0.167  0.167  0.167-  14 2.61  11 2.61   5 2.61  13 2.61   2 2.61  10 2.61   4 2.61   1 2.61
                            31 2.75  37 2.75  34 2.75  46 2.75
  29  0.167  0.167  0.500-  15 2.61  12 2.61   6 2.61  14 2.61   3 2.61  11 2.61   5 2.61   2 2.61
                            32 2.75  38 2.75  35 2.75  47 2.75
  30  0.167  0.167  0.833-  13 2.61  15 2.61  10 2.61  12 2.61   4 2.61   6 2.61   1 2.61   3 2.61
                            33 2.75  39 2.75  36 2.75  48 2.75
  31  0.167  0.500  0.167-  17 2.61  14 2.61   8 2.61  16 2.61   5 2.61  13 2.61   7 2.61   4 2.61
                            28 2.75  34 2.75  40 2.75  49 2.75
  32  0.167  0.500  0.500-  18 2.61  15 2.61   9 2.61  17 2.61   6 2.61  14 2.61   8 2.61   5 2.61
                            29 2.75  35 2.75  41 2.75  50 2.75
  33  0.167  0.500  0.833-  16 2.61  18 2.61  13 2.61  15 2.61   7 2.61   9 2.61   4 2.61   6 2.61
                            30 2.75  36 2.75  42 2.75  51 2.75
  34  0.167  0.833  0.167-  11 2.61  17 2.61   2 2.61   8 2.61  16 2.61  10 2.61   7 2.61   1 2.61
                            31 2.75  43 2.75  28 2.75  52 2.75
  35  0.167  0.833  0.500-  12 2.61  18 2.61   3 2.61   9 2.61  17 2.61  11 2.61   8 2.61   2 2.61
                            32 2.75  44 2.75  29 2.75  53 2.75
  36  0.167  0.833  0.833-  10 2.61  12 2.61  16 2.61  18 2.61   1 2.61   3 2.61   7 2.61   9 2.61
                            33 2.75  45 2.75  30 2.75  54 2.75
  37  0.500  0.167  0.167-  23 2.61  20 2.61  14 2.61  22 2.61  11 2.61  19 2.61  13 2.61  10 2.61
                            28 2.75  40 2.75  46 2.75  43 2.75
  38  0.500  0.167  0.500-  24 2.61  21 2.61  15 2.61  23 2.61  12 2.61  20 2.61  14 2.61  11 2.61
                            29 2.75  41 2.75  47 2.75  44 2.75
  39  0.500  0.167  0.833-  22 2.61  24 2.61  19 2.61  21 2.61  13 2.61  15 2.61  10 2.61  12 2.61
                            30 2.75  42 2.75  48 2.75  45 2.75
  40  0.500  0.500  0.167-  26 2.61  23 2.61  17 2.61  25 2.61  14 2.61  22 2.61  16 2.61  13 2.61
                            31 2.75  37 2.75  43 2.75  49 2.75
  41  0.500  0.500  0.500-  27 2.61  24 2.61  18 2.61  26 2.61  15 2.61  23 2.61  17 2.61  14 2.61
                            32 2.75  38 2.75  44 2.75  50 2.75
  42  0.500  0.500  0.833-  25 2.61  27 2.61  22 2.61  24 2.61  16 2.61  18 2.61  13 2.61  15 2.61
                            33 2.75  39 2.75  45 2.75  51 2.75
  43  0.500  0.833  0.167-  20 2.61  26 2.61  11 2.61  17 2.61  25 2.61  19 2.61  16 2.61  10 2.61
                            34 2.75  40 2.75  52 2.75  37 2.75
  44  0.500  0.833  0.500-  21 2.61  27 2.61  12 2.61  18 2.61  26 2.61  20 2.61  17 2.61  11 2.61
                            35 2.75  41 2.75  53 2.75  38 2.75
  45  0.500  0.833  0.833-  19 2.61  21 2.61  25 2.61  27 2.61  10 2.61  12 2.61  16 2.61  18 2.61
                            36 2.75  42 2.75  54 2.75  39 2.75
  46  0.833  0.167  0.167-   5 2.61  23 2.61  20 2.61   2 2.61  22 2.61   4 2.61  19 2.61   1 2.61
                            37 2.75  49 2.75  28 2.75  52 2.75
  47  0.833  0.167  0.500-   6 2.61  24 2.61  21 2.61   3 2.61  23 2.61   5 2.61  20 2.61   2 2.61
                            38 2.75  50 2.75  29 2.75  53 2.75
  48  0.833  0.167  0.833-   4 2.61   6 2.61  22 2.61  24 2.61  19 2.61  21 2.61   1 2.61   3 2.61
                            39 2.75  51 2.75  30 2.75  54 2.75
  49  0.833  0.500  0.167-   8 2.61  26 2.61  23 2.61   5 2.61  25 2.61   7 2.61  22 2.61   4 2.61
                            40 2.75  46 2.75  52 2.75  31 2.75
  50  0.833  0.500  0.500-   9 2.61  27 2.61  24 2.61   6 2.61  26 2.61   8 2.61  23 2.61   5 2.61
                            41 2.75  47 2.75  53 2.75  32 2.75
  51  0.833  0.500  0.833-   7 2.61   9 2.61  25 2.61  27 2.61  22 2.61  24 2.61   4 2.61   6 2.61
                            42 2.75  48 2.75  54 2.75  33 2.75
  52  0.833  0.833  0.167-   2 2.61   8 2.61  20 2.61  26 2.61  19 2.61   7 2.61  25 2.61   1 2.61
                            43 2.75  49 2.75  46 2.75  34 2.75
  53  0.833  0.833  0.500-   3 2.61   9 2.61  21 2.61  27 2.61  20 2.61   8 2.61  26 2.61   2 2.61
                            44 2.75  50 2.75  47 2.75  35 2.75
  54  0.833  0.833  0.833-   1 2.61   3 2.61   7 2.61   9 2.61  19 2.61  21 2.61  25 2.61  27 2.61
                            45 2.75  51 2.75  48 2.75  36 2.75
 
  LATTYP: Found a simple tetragonal cell.
 ALAT       =     8.2501481662
 C/A-ratio  =     1.2642089792
  
  Lattice vectors:
  
 A1 = (   8.2501481662,   0.0000000000,   0.0000000000)
 A2 = (   0.0000000000,   8.2501481662,   0.0000000000)
 A3 = (   0.0000000000,   0.0000000000,  10.4299113916)


Analysis of symmetry for initial positions (statically):
=====================================================================
 Subroutine PRICEL returns following result:
 
  LATTYP: Found a simple tetragonal cell.
 ALAT       =     2.7500493888
 C/A-ratio  =     1.2642089792
  
  Lattice vectors:
  
 A1 = (   2.7500493888,   0.0000000000,   0.0000000000)
 A2 = (   0.0000000000,   2.7500493888,   0.0000000000)
 A3 = (   0.0000000000,   0.0000000000,   3.4766371306)
 
  27 primitive cells build up your supercell.
 

 Routine SETGRP: Setting up the symmetry group for a 
 simple tetragonal supercell.


 Subroutine GETGRP returns: Found 16 space group operations
 (whereof 16 operations were pure point group operations)
 out of a pool of 16 trial point group operations.


The static configuration has the point symmetry D_4h.


Analysis of symmetry for dynamics (positions and initial velocities):
=====================================================================
 Subroutine PRICEL returns following result:
 
  LATTYP: Found a simple tetragonal cell.
 ALAT       =     2.7500493888
 C/A-ratio  =     1.2642089792
  
  Lattice vectors:
  
 A1 = (   2.7500493888,   0.0000000000,   0.0000000000)
 A2 = (   0.0000000000,   2.7500493888,   0.0000000000)
 A3 = (   0.0000000000,   0.0000000000,   3.4766371306)
 
  27 primitive cells build up your supercell.
 

 Routine SETGRP: Setting up the symmetry group for a 
 simple tetragonal supercell.


 Subroutine GETGRP returns: Found 16 space group operations
 (whereof 16 operations were pure point group operations)
 out of a pool of 16 trial point group operations.


The dynamic configuration has the point symmetry D_4h.


Analysis of structural, dynamic, and magnetic symmetry:
=====================================================================
 Subroutine PRICEL returns:
 Original cell was already a primitive cell.
 

 Routine SETGRP: Setting up the symmetry group for a 
 simple tetragonal supercell.


 Subroutine GETGRP returns: Found  4 space group operations
 (whereof  1 operations were pure point group operations)
 out of a pool of 16 trial point group operations.


The magnetic configuration has the point symmetry C_1 .
 The point group associated with its full space group is C_2v.


 Subroutine INISYM returns: Found  4 space group operations
 (whereof  1 operations are pure point group operations),
 and found     1 'primitive' translations

 
 
 KPOINTS: automatic KPOINTS                       

Automatic generation of k-mesh.
 generate k-points for:    5    5    4
Space group operators:
 irot       det(A)        alpha          n_x          n_y          n_z        tau_x        tau_y        tau_z
    1     1.000000     0.000001     1.000000     0.000000     0.000000     0.000000     0.000000     0.000000
    2     1.000000   180.000000     0.000000     0.000000     1.000000     0.333333     0.333333     0.000000
    3    -1.000000   180.000000     0.000000     1.000000     0.000000     0.000000     0.333333     0.000000
    4    -1.000000   180.000000     1.000000     0.000000     0.000000     0.333333     0.000000     0.000000
 
 Subroutine IBZKPT returns following result:
 ===========================================
 
 Found     27 irreducible k-points:
 
 Following reciprocal coordinates:
            Coordinates               Weight
  0.000000  0.000000  0.000000      1.000000
  0.200000  0.000000  0.000000      2.000000
  0.400000  0.000000  0.000000      2.000000
  0.000000  0.200000  0.000000      2.000000
  0.200000  0.200000  0.000000      4.000000
  0.400000  0.200000  0.000000      4.000000
  0.000000  0.400000  0.000000      2.000000
  0.200000  0.400000  0.000000      4.000000
  0.400000  0.400000  0.000000      4.000000
  0.000000  0.000000  0.250000      2.000000
  0.200000  0.000000  0.250000      4.000000
  0.400000  0.000000  0.250000      4.000000
  0.000000  0.200000  0.250000      4.000000
  0.200000  0.200000  0.250000      8.000000
  0.400000  0.200000  0.250000      8.000000
  0.000000  0.400000  0.250000      4.000000
  0.200000  0.400000  0.250000      8.000000
  0.400000  0.400000  0.250000      8.000000
  0.000000  0.000000  0.500000      1.000000
  0.200000  0.000000  0.500000      2.000000
  0.400000  0.000000  0.500000      2.000000
  0.000000  0.200000  0.500000      2.000000
  0.200000  0.200000  0.500000      4.000000
  0.400000  0.200000  0.500000      4.000000
  0.000000  0.400000  0.500000      2.000000
  0.200000  0.400000  0.500000      4.000000
  0.400000  0.400000  0.500000      4.000000
 
 Following cartesian coordinates:
            Coordinates               Weight
  0.000000  0.000000  0.000000      1.000000
  0.024242  0.000000  0.000000      2.000000
  0.048484  0.000000  0.000000      2.000000
  0.000000  0.024242  0.000000      2.000000
  0.024242  0.024242  0.000000      4.000000
  0.048484  0.024242  0.000000      4.000000
  0.000000  0.048484  0.000000      2.000000
  0.024242  0.048484  0.000000      4.000000
  0.048484  0.048484  0.000000      4.000000
  0.000000  0.000000  0.023970      2.000000
  0.024242  0.000000  0.023970      4.000000
  0.048484  0.000000  0.023970      4.000000
  0.000000  0.024242  0.023970      4.000000
  0.024242  0.024242  0.023970      8.000000
  0.048484  0.024242  0.023970      8.000000
  0.000000  0.048484  0.023970      4.000000
  0.024242  0.048484  0.023970      8.000000
  0.048484  0.048484  0.023970      8.000000
  0.000000  0.000000  0.047939      1.000000
  0.024242  0.000000  0.047939      2.000000
  0.048484  0.000000  0.047939      2.000000
  0.000000  0.024242  0.047939      2.000000
  0.024242  0.024242  0.047939      4.000000
  0.048484  0.024242  0.047939      4.000000
  0.000000  0.048484  0.047939      2.000000
  0.024242  0.048484  0.047939      4.000000
  0.048484  0.048484  0.047939      4.000000
 


--------------------------------------------------------------------------------------------------------




 Dimension of arrays:
   k-points           NKPTS =     27   k-points in BZ     NKDIM =     27   number of bands    NBANDS=    162
   number of dos      NEDOS =    301   number of ions     NIONS =     54
   non local maximal  LDIM  =      6   non local SUM 2l+1 LMDIM =     18
   total plane-waves  NPLWV = 204120
   max r-space proj   IRMAX =      1   max aug-charges    IRDMAX=  89713
   dimension x,y,z NGX =    54 NGY =   54 NGZ =   70
   dimension x,y,z NGXF=   108 NGYF=  108 NGZF=  140
   support grid    NGXF=   216 NGYF=  216 NGZF=  280
   ions per type =              27  27
   NGX,Y,Z   is equivalent  to a cutoff of  10.88, 10.88, 11.16 a.u.
   NGXF,Y,Z  is equivalent  to a cutoff of  21.76, 21.76, 22.32 a.u.

 SYSTEM =  AlMn_pv                                 
 POSCAR =  NewRef: 27, @ ['Mn', array([1.37502469, 

 Startparameter for this run:
   NWRITE =      2    write-flag & timer
   PREC   = accura    normal or accurate (medium, high low for compatibility)
   ISTART =      0    job   : 0-new  1-cont  2-samecut
   ICHARG =      2    charge: 1-file 2-atom 10-const
   ISPIN  =      2    spin polarized calculation?
   LNONCOLLINEAR =      F non collinear calculations
   LSORBIT =      F    spin-orbit coupling
   INIWAV =      1    electr: 0-lowe 1-rand  2-diag
   LASPH  =      F    aspherical Exc in radial PAW
   METAGGA=      F    non-selfconsistent MetaGGA calc.

 Electronic Relaxation 1
   ENCUT  =  404.8 eV  29.75 Ry    5.45 a.u.  13.53 13.53 17.11*2*pi/ulx,y,z
   ENINI  =  404.8     initial cutoff
   ENAUG  =  500.7 eV  augmentation charge cutoff
   NELM   =    100;   NELMIN=  4; NELMDL= -8     # of ELM steps 
   EDIFF  = 0.1E-06   stopping-criterion for ELM
   LREAL  =      F    real-space projection
   NLSPLINE    = F    spline interpolate recip. space projectors
   LCOMPAT=      F    compatible to vasp.4.4
   GGA_COMPAT  = T    GGA compatible to vasp.4.4-vasp.4.6
   LMAXPAW     = -100 max onsite density
   LMAXMIX     =    2 max onsite mixed and CHGCAR
   VOSKOWN=      0    Vosko Wilk Nusair interpolation
   ROPT   =    0.00000   0.00000
 Ionic relaxation
   EDIFFG = 0.1E-05   stopping-criterion for IOM
   NSW    =      0    number of steps for IOM
   NBLOCK =      1;   KBLOCK =      1    inner block; outer block 
   IBRION =     -1    ionic relax: 0-MD 1-quasi-New 2-CG
   NFREE  =      0    steps in history (QN), initial steepest desc. (CG)
   ISIF   =      2    stress and relaxation
   IWAVPR =     10    prediction:  0-non 1-charg 2-wave 3-comb
   ISYM   =      2    0-nonsym 1-usesym 2-fastsym
   LCORR  =      T    Harris-Foulkes like correction to forces

   POTIM  = 0.2000    time-step for ionic-motion
   TEIN   =    0.0    initial temperature
   TEBEG  =    0.0;   TEEND  =   0.0 temperature during run
   SMASS  =  -3.00    Nose mass-parameter (am)
   estimated Nose-frequenzy (Omega)   =  0.10E-29 period in steps =****** mass=  -0.156E-26a.u.
   SCALEE = 1.0000    scale energy and forces
   NPACO  =    256;   APACO  = 16.0  distance and # of slots for P.C.
   PSTRESS=    0.0 pullay stress

  Mass of Ions in am
   POMASS =  26.98 54.94
  Ionic Valenz
   ZVAL   =   3.00  7.00
  Atomic Wigner-Seitz radii
   RWIGS  =  -1.00 -1.00
  virtual crystal weights 
   VCA    =   1.00  1.00
   NELECT =     270.0000    total number of electrons
   NUPDOWN=      -1.0000    fix difference up-down

 DOS related values:
   EMIN   =  10.00;   EMAX   =-10.00  energy-range for DOS
   EFERMI =   0.00
   ISMEAR =     1;   SIGMA  =   0.20  broadening in eV -4-tet -1-fermi 0-gaus

 Electronic relaxation 2 (details)
   IALGO  =     58    algorithm
   LDIAG  =      T    sub-space diagonalisation (order eigenvalues)
   LSUBROT=      F    optimize rotation matrix (better conditioning)
   TURBO    =      0    0=normal 1=particle mesh
   IRESTART =      0    0=no restart 2=restart with 2 vectors
   NREBOOT  =      0    no. of reboots
   NMIN     =      0    reboot dimension
   EREF     =   0.00    reference energy to select bands
   IMIX   =      4    mixing-type and parameters
     AMIX     =   0.40;   BMIX     =  1.00
     AMIX_MAG =   1.60;   BMIX_MAG =  1.00
     AMIN     =   0.10
     WC   =   100.;   INIMIX=   1;  MIXPRE=   1;  MAXMIX= -45

 Intra band minimization:
   WEIMIN = 0.0000     energy-eigenvalue tresh-hold
   EBREAK =  0.15E-09  absolut break condition
   DEPER  =   0.30     relativ break condition  

   TIME   =   0.40     timestep for ELM

  volume/ion in A,a.u.               =      13.15        88.72
  Fermi-wavevector in a.u.,A,eV,Ry     =   1.186118  2.241439 19.141722  1.406877
  Thomas-Fermi vector in A             =   2.322298
 
 Write flags
   LWAVE        =      F    write WAVECAR
   LDOWNSAMPLE  =      F    k-point downsampling of WAVECAR
   LCHARG       =      F    write CHGCAR
   LVTOT        =      F    write LOCPOT, total local potential
   LVHAR        =      F    write LOCPOT, Hartree potential only
   LELF         =      F    write electronic localiz. function (ELF)
   LORBIT       =     10    0 simple, 1 ext, 2 COOP (PROOUT), +10 PAW based schemes


 Dipole corrections
   LMONO  =      F    monopole corrections only (constant potential shift)
   LDIPOL =      F    correct potential (dipole corrections)
   IDIPOL =      0    1-x, 2-y, 3-z, 4-all directions 
   EPSILON=  1.0000000 bulk dielectric constant

 Exchange correlation treatment:
   GGA     =    --    GGA type
   LEXCH   =     8    internal setting for exchange type
   VOSKOWN=      0    Vosko Wilk Nusair interpolation
   LHFCALC =     F    Hartree Fock is set to
   LHFONE  =     F    Hartree Fock one center treatment
   AEXX    =    0.0000 exact exchange contribution

 Linear response parameters
   LEPSILON=     F    determine dielectric tensor
   LRPA    =     F    only Hartree local field effects (RPA)
   LNABLA  =     F    use nabla operator in PAW spheres
   LVEL    =     F    velocity operator in full k-point grid
   LINTERFAST=   F  fast interpolation
   KINTER  =     0    interpolate to denser k-point grid
   CSHIFT  =0.1000    complex shift for real part using Kramers Kronig
   OMEGAMAX=  -1.0    maximum frequency
   DEG_THRESHOLD= 0.2000000E-02 threshold for treating states as degnerate
   RTIME   =   -0.100 relaxation time in fs
  (WPLASMAI=    0.000 imaginary part of plasma frequency in eV, 0.658/RTIME)
   DFIELD  = 0.0000000 0.0000000 0.0000000 field for delta impulse in time
 
 Orbital magnetization related:
   ORBITALMAG=     F  switch on orbital magnetization
   LCHIMAG   =     F  perturbation theory with respect to B field
   DQ        =  0.001000  dq finite difference perturbation B field
   LLRAUG    =     F  two centre corrections for induced B field



--------------------------------------------------------------------------------------------------------


 Static calculation
 charge density and potential will be updated during run
 spin polarized calculation
 Conjugate gradient for all bands (Freysoldt, et al. PRB 79, 241103 (2009))
 preconditioned conjugated gradient                                        
 perform sub-space diagonalisation
    before iterative eigenvector-optimisation
 modified Broyden-mixing scheme, WC =      100.0
 initial mixing is a Kerker type mixing with AMIX =  0.4000 and BMIX =      1.0000
 Hartree-type preconditioning will be used
 using additional bands           27
 reciprocal scheme for non local part
 use partial core corrections
 no Harris-corrections to forces 
 use gradient corrections 
 use of overlap-Matrix (Vanderbilt PP)
 Methfessel and Paxton  Order N= 1 SIGMA  =   0.20


--------------------------------------------------------------------------------------------------------


  energy-cutoff  :      404.80
  volume of cell :      709.91
      direct lattice vectors                 reciprocal lattice vectors
     8.250148166  0.000000000  0.000000000     0.121209944  0.000000000  0.000000000
     0.000000000  8.250148166  0.000000000     0.000000000  0.121209944  0.000000000
     0.000000000  0.000000000 10.429911392     0.000000000  0.000000000  0.095878092

  length of vectors
     8.250148166  8.250148166 10.429911392     0.121209944  0.121209944  0.095878092


 
 k-points in units of 2pi/SCALE and weight: automatic KPOINTS                       
   0.00000000  0.00000000  0.00000000       0.010
   0.02424199  0.00000000  0.00000000       0.020
   0.04848398  0.00000000  0.00000000       0.020
   0.00000000  0.02424199  0.00000000       0.020
   0.02424199  0.02424199  0.00000000       0.040
   0.04848398  0.02424199  0.00000000       0.040
   0.00000000  0.04848398  0.00000000       0.020
   0.02424199  0.04848398  0.00000000       0.040
   0.04848398  0.04848398  0.00000000       0.040
   0.00000000  0.00000000  0.02396952       0.020
   0.02424199  0.00000000  0.02396952       0.040
   0.04848398  0.00000000  0.02396952       0.040
   0.00000000  0.02424199  0.02396952       0.040
   0.02424199  0.02424199  0.02396952       0.080
   0.04848398  0.02424199  0.02396952       0.080
   0.00000000  0.04848398  0.02396952       0.040
   0.02424199  0.04848398  0.02396952       0.080
   0.04848398  0.04848398  0.02396952       0.080
   0.00000000  0.00000000  0.04793905       0.010
   0.02424199  0.00000000  0.04793905       0.020
   0.04848398  0.00000000  0.04793905       0.020
   0.00000000  0.02424199  0.04793905       0.020
   0.02424199  0.02424199  0.04793905       0.040
   0.04848398  0.02424199  0.04793905       0.040
   0.00000000  0.04848398  0.04793905       0.020
   0.02424199  0.04848398  0.04793905       0.040
   0.04848398  0.04848398  0.04793905       0.040
 
 k-points in reciprocal lattice and weights: automatic KPOINTS                       
   0.00000000  0.00000000  0.00000000       0.010
   0.20000000  0.00000000  0.00000000       0.020
   0.40000000  0.00000000  0.00000000       0.020
   0.00000000  0.20000000  0.00000000       0.020
   0.20000000  0.20000000  0.00000000       0.040
   0.40000000  0.20000000  0.00000000       0.040
   0.00000000  0.40000000  0.00000000       0.020
   0.20000000  0.40000000  0.00000000       0.040
   0.40000000  0.40000000  0.00000000       0.040
   0.00000000  0.00000000  0.25000000       0.020
   0.20000000  0.00000000  0.25000000       0.040
   0.40000000  0.00000000  0.25000000       0.040
   0.00000000  0.20000000  0.25000000       0.040
   0.20000000  0.20000000  0.25000000       0.080
   0.40000000  0.20000000  0.25000000       0.080
   0.00000000  0.40000000  0.25000000       0.040
   0.20000000  0.40000000  0.25000000       0.080
   0.40000000  0.40000000  0.25000000       0.080
   0.00000000  0.00000000  0.50000000       0.010
   0.20000000  0.00000000  0.50000000       0.020
   0.40000000  0.00000000  0.50000000       0.020
   0.00000000  0.20000000  0.50000000       0.020
   0.20000000  0.20000000  0.50000000       0.040
   0.40000000  0.20000000  0.50000000       0.040
   0.00000000  0.40000000  0.50000000       0.020
   0.20000000  0.40000000  0.50000000       0.040
   0.40000000  0.40000000  0.50000000       0.040
 
 position of ions in fractional coordinates (direct lattice) 
   0.00000000  0.00000000  0.00000000
   0.00000000  0.00000000  0.33333333
   0.00000000  0.00000000  0.66666667
   0.00000000  0.33333333  0.00000000
   0.00000000  0.33333333  0.33333333
   0.00000000  0.33333333  0.66666667
   0.00000000  0.66666667  0.00000000
   0.00000000  0.66666667  0.33333333
   0.00000000  0.66666667  0.66666667
   0.33333333  0.00000000  0.00000000
   0.33333333  0.00000000  0.33333333
   0.33333333  0.00000000  0.66666667
   0.33333333  0.33333333  0.00000000
   0.33333333  0.33333333  0.33333333
   0.33333333  0.33333333  0.66666667
   0.33333333  0.66666667  0.00000000
   0.33333333  0.66666667  0.33333333
   0.33333333  0.66666667  0.66666667
   0.66666667  0.00000000  0.00000000
   0.66666667  0.00000000  0.33333333
   0.66666667  0.00000000  0.66666667
   0.66666667  0.33333333  0.00000000
   0.66666667  0.33333333  0.33333333
   0.66666667  0.33333333  0.66666667
   0.66666667  0.66666667  0.00000000
   0.66666667  0.66666667  0.33333333
   0.66666667  0.66666667  0.66666667
   0.16666667  0.16666667  0.16666667
   0.16666667  0.16666667  0.50000000
   0.16666667  0.16666667  0.83333333
   0.16666667  0.50000000  0.16666667
   0.16666667  0.50000000  0.50000000
   0.16666667  0.50000000  0.83333333
   0.16666667  0.83333333  0.16666667
   0.16666667  0.83333333  0.50000000
   0.16666667  0.83333333  0.83333333
   0.50000000  0.16666667  0.16666667
   0.50000000  0.16666667  0.50000000
   0.50000000  0.16666667  0.83333333
   0.50000000  0.50000000  0.16666667
   0.50000000  0.50000000  0.50000000
   0.50000000  0.50000000  0.83333333
   0.50000000  0.83333333  0.16666667
   0.50000000  0.83333333  0.50000000
   0.50000000  0.83333333  0.83333333
   0.83333333  0.16666667  0.16666667
   0.83333333  0.16666667  0.50000000
   0.83333333  0.16666667  0.83333333
   0.83333333  0.50000000  0.16666667
   0.83333333  0.50000000  0.50000000
   0.83333333  0.50000000  0.83333333
   0.83333333  0.83333333  0.16666667
   0.83333333  0.83333333  0.50000000
   0.83333333  0.83333333  0.83333333
 
 position of ions in cartesian coordinates  (Angst):
   0.00000000  0.00000000  0.00000000
   0.00000000  0.00000000  3.47663713
   0.00000000  0.00000000  6.95327426
   0.00000000  2.75004939  0.00000000
   0.00000000  2.75004939  3.47663713
   0.00000000  2.75004939  6.95327426
   0.00000000  5.50009878  0.00000000
   0.00000000  5.50009878  3.47663713
   0.00000000  5.50009878  6.95327426
   2.75004939  0.00000000  0.00000000
   2.75004939  0.00000000  3.47663713
   2.75004939  0.00000000  6.95327426
   2.75004939  2.75004939  0.00000000
   2.75004939  2.75004939  3.47663713
   2.75004939  2.75004939  6.95327426
   2.75004939  5.50009878  0.00000000
   2.75004939  5.50009878  3.47663713
   2.75004939  5.50009878  6.95327426
   5.50009878  0.00000000  0.00000000
   5.50009878  0.00000000  3.47663713
   5.50009878  0.00000000  6.95327426
   5.50009878  2.75004939  0.00000000
   5.50009878  2.75004939  3.47663713
   5.50009878  2.75004939  6.95327426
   5.50009878  5.50009878  0.00000000
   5.50009878  5.50009878  3.47663713
   5.50009878  5.50009878  6.95327426
   1.37502469  1.37502469  1.73831857
   1.37502469  1.37502469  5.21495570
   1.37502469  1.37502469  8.69159283
   1.37502469  4.12507408  1.73831857
   1.37502469  4.12507408  5.21495570
   1.37502469  4.12507408  8.69159283
   1.37502469  6.87512347  1.73831857
   1.37502469  6.87512347  5.21495570
   1.37502469  6.87512347  8.69159283
   4.12507408  1.37502469  1.73831857
   4.12507408  1.37502469  5.21495570
   4.12507408  1.37502469  8.69159283
   4.12507408  4.12507408  1.73831857
   4.12507408  4.12507408  5.21495570
   4.12507408  4.12507408  8.69159283
   4.12507408  6.87512347  1.73831857
   4.12507408  6.87512347  5.21495570
   4.12507408  6.87512347  8.69159283
   6.87512347  1.37502469  1.73831857
   6.87512347  1.37502469  5.21495570
   6.87512347  1.37502469  8.69159283
   6.87512347  4.12507408  1.73831857
   6.87512347  4.12507408  5.21495570
   6.87512347  4.12507408  8.69159283
   6.87512347  6.87512347  1.73831857
   6.87512347  6.87512347  5.21495570
   6.87512347  6.87512347  8.69159283
 


--------------------------------------------------------------------------------------------------------


 k-point  1 :   0.0000 0.0000 0.0000  plane waves:   13099
 k-point  2 :   0.2000 0.0000 0.0000  plane waves:   13101
 k-point  3 :   0.4000 0.0000 0.0000  plane waves:   13111
 k-point  4 :   0.0000 0.2000 0.0000  plane waves:   13101
 k-point  5 :   0.2000 0.2000 0.0000  plane waves:   13137
 k-point  6 :   0.4000 0.2000 0.0000  plane waves:   13119
 k-point  7 :   0.0000 0.4000 0.0000  plane waves:   13111
 k-point  8 :   0.2000 0.4000 0.0000  plane waves:   13119
 k-point  9 :   0.4000 0.4000 0.0000  plane waves:   13129
 k-point 10 :   0.0000 0.0000 0.2500  plane waves:   13134
 k-point 11 :   0.2000 0.0000 0.2500  plane waves:   13149
 k-point 12 :   0.4000 0.0000 0.2500  plane waves:   13119
 k-point 13 :   0.0000 0.2000 0.2500  plane waves:   13149
 k-point 14 :   0.2000 0.2000 0.2500  plane waves:   13145
 k-point 15 :   0.4000 0.2000 0.2500  plane waves:   13134
 k-point 16 :   0.0000 0.4000 0.2500  plane waves:   13119
 k-point 17 :   0.2000 0.4000 0.2500  plane waves:   13134
 k-point 18 :   0.4000 0.4000 0.2500  plane waves:   13108
 k-point 19 :   0.0000 0.0000 0.5000  plane waves:   13186
 k-point 20 :   0.2000 0.0000 0.5000  plane waves:   13124
 k-point 21 :   0.4000 0.0000 0.5000  plane waves:   13152
 k-point 22 :   0.0000 0.2000 0.5000  plane waves:   13124
 k-point 23 :   0.2000 0.2000 0.5000  plane waves:   13136
 k-point 24 :   0.4000 0.2000 0.5000  plane waves:   13128
 k-point 25 :   0.0000 0.4000 0.5000  plane waves:   13152
 k-point 26 :   0.2000 0.4000 0.5000  plane waves:   13128
 k-point 27 :   0.4000 0.4000 0.5000  plane waves:   13112

 maximum and minimum number of plane-waves per node :      3304     3246

 maximum number of plane-waves:     13186
 maximum index in each direction: 
   IXMAX=   13   IYMAX=   13   IZMAX=   17
   IXMIN=  -13   IYMIN=  -13   IZMIN=  -17


 parallel 3D FFT for wavefunctions:
    minimum data exchange during FFTs selected (reduces bandwidth)
 parallel 3D FFT for charge:
    minimum data exchange during FFTs selected (reduces bandwidth)


 total amount of memory used by VASP MPI-rank0   842526. kBytes
=======================================================================

   base      :      30000. kBytes
   nonl-proj :      28494. kBytes
   fftplans  :      31580. kBytes
   grid      :      21385. kBytes
   one-center:        435. kBytes
   wavefun   :     730632. kBytes
 
     INWAV:  cpu time    0.0001: real time    0.0001
 Broyden mixing: mesh for mixing (old mesh)
   NGX = 27   NGY = 27   NGZ = 35
  (NGX  =108   NGY  =108   NGZ  =140)
  gives a total of  25515 points

 initial charge density was supplied:
 charge density of overlapping atoms calculated
 number of electron     270.0000000 magnetization      -3.0000000
 keeping initial charge density in first step


--------------------------------------------------------------------------------------------------------


 Maximum index for augmentation-charges        10967 (set IRDMAX)


--------------------------------------------------------------------------------------------------------


 First call to EWALD:  gamma=   0.199
 Maximum number of real-space cells 3x 3x 2
 Maximum number of reciprocal cells 3x 3x 3

    FEWALD:  cpu time    0.0142: real time    0.0142


--------------------------------------- Iteration      1(   1)  ---------------------------------------


    POTLOK:  cpu time    0.3974: real time    0.3975
    SETDIJ:  cpu time    0.4660: real time    0.4662
    TRIAL :  cpu time   28.1677: real time   29.1298
    CORREC:  cpu time    0.0050: real time    0.0059
    --------------------------------------------
      LOOP:  cpu time   29.2860: real time   30.2559

 eigenvalue-minimisations  : 17496
 total energy-change (2. order) : 0.2065502E+04  (-0.8686956E+04)
 number of electron     270.0000000 magnetization      -3.0000000
 augmentation part      270.0000000 magnetization      -3.0000000

 Free energy of the ion-electron system (eV)
  ---------------------------------------------------
  alpha Z        PSCENC =       798.38614055
  Ewald energy   TEWEN  =    -12901.57693327
  -Hartree energ DENC   =     -2855.60785864
  -exchange      EXHF   =         0.00000000
  -V(xc)+E(xc)   XCENC  =      -996.23339863
  PAW double counting   =     12741.82587617   -11476.22345381
  entropy T*S    EENTRO =         0.01483998
  eigenvalues    EBANDS =      4057.24290144
  atomic energy  EATOM  =     12697.67401269
  ---------------------------------------------------
  free energy    TOTEN  =      2065.50212646 eV

  energy without entropy =     2065.48728648  energy(sigma->0) =     2065.49717980


--------------------------------------------------------------------------------------------------------




--------------------------------------- Iteration      1(   2)  ---------------------------------------


    TRIAL :  cpu time   28.9625: real time   29.1821
    CORREC:  cpu time    0.0063: real time    0.0065
    --------------------------------------------
      LOOP:  cpu time   28.9698: real time   29.1922

 eigenvalue-minimisations  : 17496
 total energy-change (2. order) :-0.2126169E+04  (-0.2087921E+04)
 number of electron     270.0000000 magnetization      -3.0000000
 augmentation part      270.0000000 magnetization      -3.0000000

 Free energy of the ion-electron system (eV)
  ---------------------------------------------------
  alpha Z        PSCENC =       798.38614055
  Ewald energy   TEWEN  =    -12901.57693327
  -Hartree energ DENC   =     -2855.60785864
  -exchange      EXHF   =         0.00000000
  -V(xc)+E(xc)   XCENC  =      -996.23339863
  PAW double counting   =     12741.82587617   -11476.22345381
  entropy T*S    EENTRO =         0.00050602
  eigenvalues    EBANDS =      1931.08864626
  atomic energy  EATOM  =     12697.67401269
  ---------------------------------------------------
  free energy    TOTEN  =       -60.66646268 eV

  energy without entropy =      -60.66696870  energy(sigma->0) =      -60.66663135


--------------------------------------------------------------------------------------------------------




--------------------------------------- Iteration      1(   3)  ---------------------------------------


    TRIAL :  cpu time   38.7297: real time   39.7955
    CORREC:  cpu time    0.0075: real time    0.0084
    --------------------------------------------
      LOOP:  cpu time   38.7383: real time   39.8074

 eigenvalue-minimisations  : 26314
 total energy-change (2. order) :-0.2847289E+03  (-0.2584500E+03)
 number of electron     270.0000000 magnetization      -3.0000000
 augmentation part      270.0000000 magnetization      -3.0000000

 Free energy of the ion-electron system (eV)
  ---------------------------------------------------
  alpha Z        PSCENC =       798.38614055
  Ewald energy   TEWEN  =    -12901.57693327
  -Hartree energ DENC   =     -2855.60785864
  -exchange      EXHF   =         0.00000000
  -V(xc)+E(xc)   XCENC  =      -996.23339863
  PAW double counting   =     12741.82587617   -11476.22345381
  entropy T*S    EENTRO =         0.00767792
  eigenvalues    EBANDS =      1646.35254014
  atomic energy  EATOM  =     12697.67401269
  ---------------------------------------------------
  free energy    TOTEN  =      -345.39539690 eV

  energy without entropy =     -345.40307481  energy(sigma->0) =     -345.39795620


--------------------------------------------------------------------------------------------------------




--------------------------------------- Iteration      1(   4)  ---------------------------------------


    TRIAL :  cpu time   41.5924: real time   42.6955
    CORREC:  cpu time    0.0080: real time    0.0089
    --------------------------------------------
      LOOP:  cpu time   41.6012: real time   42.7077

 eigenvalue-minimisations  : 28472
 total energy-change (2. order) :-0.5114072E+02  (-0.4587650E+02)
 number of electron     270.0000000 magnetization      -3.0000000
 augmentation part      270.0000000 magnetization      -3.0000000

 Free energy of the ion-electron system (eV)
  ---------------------------------------------------
  alpha Z        PSCENC =       798.38614055
  Ewald energy   TEWEN  =    -12901.57693327
  -Hartree energ DENC   =     -2855.60785864
  -exchange      EXHF   =         0.00000000
  -V(xc)+E(xc)   XCENC  =      -996.23339863
  PAW double counting   =     12741.82587617   -11476.22345381
  entropy T*S    EENTRO =        -0.01274375
  eigenvalues    EBANDS =      1595.23224374
  atomic energy  EATOM  =     12697.67401269
  ---------------------------------------------------
  free energy    TOTEN  =      -396.53611496 eV

  energy without entropy =     -396.52337121  energy(sigma->0) =     -396.53186705


--------------------------------------------------------------------------------------------------------




--------------------------------------- Iteration      1(   5)  ---------------------------------------


    TRIAL :  cpu time   43.6077: real time   44.5422
    CORREC:  cpu time    0.0081: real time    0.0083
    --------------------------------------------
      LOOP:  cpu time   43.6176: real time   44.5543

 eigenvalue-minimisations  : 29680
 total energy-change (2. order) :-0.6554974E+01  (-0.6229619E+01)
 number of electron     270.0000000 magnetization      -3.0000000
 augmentation part      270.0000000 magnetization      -3.0000000

 Free energy of the ion-electron system (eV)
  ---------------------------------------------------
  alpha Z        PSCENC =       798.38614055
  Ewald energy   TEWEN  =    -12901.57693327
  -Hartree energ DENC   =     -2855.60785864
  -exchange      EXHF   =         0.00000000
  -V(xc)+E(xc)   XCENC  =      -996.23339863
  PAW double counting   =     12741.82587617   -11476.22345381
  entropy T*S    EENTRO =        -0.01782443
  eigenvalues    EBANDS =      1588.68235068
  atomic energy  EATOM  =     12697.67401269
  ---------------------------------------------------
  free energy    TOTEN  =      -403.09108870 eV

  energy without entropy =     -403.07326428  energy(sigma->0) =     -403.08514723


--------------------------------------------------------------------------------------------------------




--------------------------------------- Iteration      1(   6)  ---------------------------------------


    TRIAL :  cpu time   42.6717: real time   43.1731
    CORREC:  cpu time    0.0082: real time    0.0140
    --------------------------------------------
      LOOP:  cpu time   42.6807: real time   43.1906

 eigenvalue-minimisations  : 29368
 total energy-change (2. order) :-0.5728835E+00  (-0.5540702E+00)
 number of electron     270.0000000 magnetization      -3.0000000
 augmentation part      270.0000000 magnetization      -3.0000000

 Free energy of the ion-electron system (eV)
  ---------------------------------------------------
  alpha Z        PSCENC =       798.38614055
  Ewald energy   TEWEN  =    -12901.57693327
  -Hartree energ DENC   =     -2855.60785864
  -exchange      EXHF   =         0.00000000
  -V(xc)+E(xc)   XCENC  =      -996.23339863
  PAW double counting   =     12741.82587617   -11476.22345381
  entropy T*S    EENTRO =        -0.01743977
  eigenvalues    EBANDS =      1588.10908253
  atomic energy  EATOM  =     12697.67401269
  ---------------------------------------------------
  free energy    TOTEN  =      -403.66397220 eV

  energy without entropy =     -403.64653243  energy(sigma->0) =     -403.65815894


--------------------------------------------------------------------------------------------------------




--------------------------------------- Iteration      1(   7)  ---------------------------------------


    TRIAL :  cpu time   43.3357: real time   44.5037
    CORREC:  cpu time    0.0080: real time    0.0089
    --------------------------------------------
      LOOP:  cpu time   43.3473: real time   44.5163

 eigenvalue-minimisations  : 30008
 total energy-change (2. order) :-0.6881603E-01  (-0.6737504E-01)
 number of electron     270.0000000 magnetization      -3.0000000
 augmentation part      270.0000000 magnetization      -3.0000000

 Free energy of the ion-electron system (eV)
  ---------------------------------------------------
  alpha Z        PSCENC =       798.38614055
  Ewald energy   TEWEN  =    -12901.57693327
  -Hartree energ DENC   =     -2855.60785864
  -exchange      EXHF   =         0.00000000
  -V(xc)+E(xc)   XCENC  =      -996.23339863
  PAW double counting   =     12741.82587617   -11476.22345381
  entropy T*S    EENTRO =        -0.01678464
  eigenvalues    EBANDS =      1588.03961136
  atomic energy  EATOM  =     12697.67401269
  ---------------------------------------------------
  free energy    TOTEN  =      -403.73278823 eV

  energy without entropy =     -403.71600359  energy(sigma->0) =     -403.72719335


--------------------------------------------------------------------------------------------------------




--------------------------------------- Iteration      1(   8)  ---------------------------------------


    TRIAL :  cpu time   42.1851: real time   43.3028
    CORREC:  cpu time    0.0086: real time    0.0095
    CHARGE:  cpu time    1.4751: real time    1.4866
    --------------------------------------------
      LOOP:  cpu time   43.6701: real time   44.8025

 eigenvalue-minimisations  : 28728
 total energy-change (2. order) :-0.7979119E-02  (-0.7858962E-02)
 number of electron     269.9999995 magnetization      -1.5749369
 augmentation part       64.2088898 magnetization      -0.9795752

 Free energy of the ion-electron system (eV)
  ---------------------------------------------------
  alpha Z        PSCENC =       798.38614055
  Ewald energy   TEWEN  =    -12901.57693327
  -Hartree energ DENC   =     -2855.60785864
  -exchange      EXHF   =         0.00000000
  -V(xc)+E(xc)   XCENC  =      -996.23339863
  PAW double counting   =     12741.82587617   -11476.22345381
  entropy T*S    EENTRO =        -0.01642497
  eigenvalues    EBANDS =      1588.03127257
  atomic energy  EATOM  =     12697.67401269
  ---------------------------------------------------
  free energy    TOTEN  =      -403.74076735 eV

  energy without entropy =     -403.72434238  energy(sigma->0) =     -403.73529236


--------------------------------------------------------------------------------------------------------




--------------------------------------- Iteration      1(   9)  ---------------------------------------


    POTLOK:  cpu time    0.3976: real time    0.3976
    SETDIJ:  cpu time    0.4718: real time    0.4787
    TRIAL :  cpu time   14.2987: real time   14.4842
    CORREC:  cpu time    4.7505: real time    4.7592
    CHARGE:  cpu time    1.5014: real time    1.5123
    --------------------------------------------
      LOOP:  cpu time   21.4417: real time   21.6540

 eigenvalue-minimisations  :     0
 total energy-change (2. order) : 0.2994605E+03  (-0.2194387E+03)
 number of electron     269.9999993 magnetization      -2.1345241
 augmentation part       82.7497909 magnetization      -1.4780286

 Free energy of the ion-electron system (eV)
  ---------------------------------------------------
  alpha Z        PSCENC =       798.38614055
  Ewald energy   TEWEN  =    -12901.57693327
  -Hartree energ DENC   =     -1273.29755003
  -exchange      EXHF   =         0.00000000
  -V(xc)+E(xc)   XCENC  =     -1041.83732486
  PAW double counting   =     19168.66111946   -17749.31579209
  entropy T*S    EENTRO =        -0.00132295
  eigenvalues    EBANDS =       197.04249245
  atomic energy  EATOM  =     12697.67401269
  ---------------------------------------------------
  free energy    TOTEN  =      -104.28026007 eV

  energy without entropy =     -104.27893712  energy(sigma->0) =     -104.27981909


--------------------------------------------------------------------------------------------------------




--------------------------------------- Iteration      1(  10)  ---------------------------------------


    POTLOK:  cpu time    0.3921: real time    0.3921
    SETDIJ:  cpu time    0.4566: real time    0.4565
    TRIAL :  cpu time   14.4058: real time   14.5382
    CORREC:  cpu time    5.6917: real time    5.7005
    CHARGE:  cpu time    1.4513: real time    1.4905
    --------------------------------------------
      LOOP:  cpu time   22.3993: real time   22.5802

 eigenvalue-minimisations  :     0
 total energy-change (2. order) :-0.2141120E+03  (-0.1199858E+02)
 number of electron     269.9999993 magnetization      -2.2393636
 augmentation part       86.7899148 magnetization      -1.4335450

 Free energy of the ion-electron system (eV)
  ---------------------------------------------------
  alpha Z        PSCENC =       798.38614055
  Ewald energy   TEWEN  =    -12901.57693327
  -Hartree energ DENC   =     -2119.75478824
  -exchange      EXHF   =         0.00000000
  -V(xc)+E(xc)   XCENC  =     -1012.26402945
  PAW double counting   =     20682.62624979   -19446.80316124
  entropy T*S    EENTRO =        -0.00019559
  eigenvalues    EBANDS =       983.32156665
  atomic energy  EATOM  =     12697.67401269
  ---------------------------------------------------
  free energy    TOTEN  =      -318.39226546 eV

  energy without entropy =     -318.39206987  energy(sigma->0) =     -318.39220026


--------------------------------------------------------------------------------------------------------




--------------------------------------- Iteration      1(  11)  ---------------------------------------


    POTLOK:  cpu time    0.3938: real time    0.3937
    SETDIJ:  cpu time    0.4608: real time    0.4609
    TRIAL :  cpu time   14.2432: real time   15.1745
    CORREC:  cpu time    4.6957: real time    4.7738
    CHARGE:  cpu time    1.4711: real time    1.4798
    --------------------------------------------
      LOOP:  cpu time   21.2683: real time   22.2873

 eigenvalue-minimisations  :     0
 total energy-change (2. order) :-0.1130951E+02  (-0.1104932E+02)
 number of electron     269.9999992 magnetization      -2.2161474
 augmentation part       89.0759114 magnetization      -1.6001624

 Free energy of the ion-electron system (eV)
  ---------------------------------------------------
  alpha Z        PSCENC =       798.38614055
  Ewald energy   TEWEN  =    -12901.57693327
  -Hartree energ DENC   =     -2362.23075050
  -exchange      EXHF   =         0.00000000
  -V(xc)+E(xc)   XCENC  =     -1003.44450519
  PAW double counting   =     21609.48403469   -20413.30681916
  entropy T*S    EENTRO =        -0.01183609
  eigenvalues    EBANDS =      1245.31324174
  atomic energy  EATOM  =     12697.67401269
  ---------------------------------------------------
  free energy    TOTEN  =      -329.70177404 eV

  energy without entropy =     -329.68993795  energy(sigma->0) =     -329.69782867


--------------------------------------------------------------------------------------------------------




--------------------------------------- Iteration      1(  12)  ---------------------------------------


    POTLOK:  cpu time    0.3924: real time    0.3923
    SETDIJ:  cpu time    0.4573: real time    0.4575
    TRIAL :  cpu time   14.4027: real time   14.5181
    CORREC:  cpu time    4.6839: real time    4.8085
    CHARGE:  cpu time    1.4635: real time    1.4843
    --------------------------------------------
      LOOP:  cpu time   21.4029: real time   21.6646

 eigenvalue-minimisations  :     0
 total energy-change (2. order) :-0.1110408E+02  (-0.1139319E+02)
 number of electron     269.9999993 magnetization      -2.5616433
 augmentation part       86.8071397 magnetization      -1.8007898

 Free energy of the ion-electron system (eV)
  ---------------------------------------------------
  alpha Z        PSCENC =       798.38614055
  Ewald energy   TEWEN  =    -12901.57693327
  -Hartree energ DENC   =     -2556.40273713
  -exchange      EXHF   =         0.00000000
  -V(xc)+E(xc)   XCENC  =      -996.96602949
  PAW double counting   =     21820.32218498   -20633.09475749
  entropy T*S    EENTRO =        -0.01759254
  eigenvalues    EBANDS =      1430.86410015
  atomic energy  EATOM  =     12697.67401269
  ---------------------------------------------------
  free energy    TOTEN  =      -340.80585510 eV

  energy without entropy =     -340.78826256  energy(sigma->0) =     -340.79999092


--------------------------------------------------------------------------------------------------------




--------------------------------------- Iteration      1(  13)  ---------------------------------------


    POTLOK:  cpu time    0.3916: real time    0.3916
    SETDIJ:  cpu time    0.4574: real time    0.4575
    TRIAL :  cpu time   15.1194: real time   15.1908
    CORREC:  cpu time    5.0033: real time    5.6969
    CHARGE:  cpu time    1.4832: real time    1.4944
    --------------------------------------------
      LOOP:  cpu time   22.4624: real time   23.2402

 eigenvalue-minimisations  :     0
 total energy-change (2. order) :-0.1125119E+02  (-0.8413283E+00)
 number of electron     269.9999993 magnetization      -2.7870387
 augmentation part       86.3104094 magnetization      -1.8555231

 Free energy of the ion-electron system (eV)
  ---------------------------------------------------
  alpha Z        PSCENC =       798.38614055
  Ewald energy   TEWEN  =    -12901.57693327
  -Hartree energ DENC   =     -2521.22766668
  -exchange      EXHF   =         0.00000000
  -V(xc)+E(xc)   XCENC  =      -999.02228091
  PAW double counting   =     21254.06313059   -20016.28839257
  entropy T*S    EENTRO =        -0.02029766
  eigenvalues    EBANDS =      1335.95253781
  atomic energy  EATOM  =     12697.67401269
  ---------------------------------------------------
  free energy    TOTEN  =      -352.05704433 eV

  energy without entropy =     -352.03674667  energy(sigma->0) =     -352.05027844


--------------------------------------------------------------------------------------------------------




--------------------------------------- Iteration      1(  14)  ---------------------------------------


    POTLOK:  cpu time    0.3916: real time    0.4745
    SETDIJ:  cpu time    0.4513: real time    0.4515
    TRIAL :  cpu time   14.3065: real time   14.4970
    CORREC:  cpu time    4.6803: real time    4.6958
    CHARGE:  cpu time    1.5417: real time    1.5502
    --------------------------------------------
      LOOP:  cpu time   21.3726: real time   21.6711

 eigenvalue-minimisations  :     0
 total energy-change (2. order) :-0.8370746E+00  (-0.1311227E+01)
 number of electron     269.9999993 magnetization      -2.8686329
 augmentation part       85.9054890 magnetization      -1.8783474

 Free energy of the ion-electron system (eV)
  ---------------------------------------------------
  alpha Z        PSCENC =       798.38614055
  Ewald energy   TEWEN  =    -12901.57693327
  -Hartree energ DENC   =     -2495.10816403
  -exchange      EXHF   =         0.00000000
  -V(xc)+E(xc)   XCENC  =     -1000.01409993
  PAW double counting   =     20970.57597712   -19724.52220416
  entropy T*S    EENTRO =        -0.01905998
  eigenvalues    EBANDS =      1301.71144978
  atomic energy  EATOM  =     12697.67401269
  ---------------------------------------------------
  free energy    TOTEN  =      -352.89411891 eV

  energy without entropy =     -352.87505893  energy(sigma->0) =     -352.88776559


--------------------------------------------------------------------------------------------------------




--------------------------------------- Iteration      1(  15)  ---------------------------------------


    POTLOK:  cpu time    0.3917: real time    0.3917
    SETDIJ:  cpu time    0.4421: real time    0.4667
    TRIAL :  cpu time   14.3523: real time   14.5261
    CORREC:  cpu time    4.7097: real time    4.7250
    CHARGE:  cpu time    1.4773: real time    1.4773
    --------------------------------------------
      LOOP:  cpu time   21.3865: real time   21.6013

 eigenvalue-minimisations  :     0
 total energy-change (2. order) :-0.1309627E+01  (-0.6271415E+00)
 number of electron     269.9999992 magnetization      -2.8605231
 augmentation part       86.5464992 magnetization      -1.9218898

 Free energy of the ion-electron system (eV)
  ---------------------------------------------------
  alpha Z        PSCENC =       798.38614055
  Ewald energy   TEWEN  =    -12901.57693327
  -Hartree energ DENC   =     -2459.56922780
  -exchange      EXHF   =         0.00000000
  -V(xc)+E(xc)   XCENC  =     -1001.32659606
  PAW double counting   =     20107.61809551   -18851.19492220
  entropy T*S    EENTRO =        -0.01876765
  eigenvalues    EBANDS =      1255.80474431
  atomic energy  EATOM  =     12697.67401269
  ---------------------------------------------------
  free energy    TOTEN  =      -354.20374625 eV

  energy without entropy =     -354.18497860  energy(sigma->0) =     -354.19749037


--------------------------------------------------------------------------------------------------------




--------------------------------------- Iteration      1(  16)  ---------------------------------------


    POTLOK:  cpu time    0.3923: real time    0.3924
    SETDIJ:  cpu time    0.4772: real time    0.4772
    TRIAL :  cpu time   14.4309: real time   15.2201
    CORREC:  cpu time    4.5914: real time    4.7950
    CHARGE:  cpu time    1.4636: real time    1.4784
    --------------------------------------------
      LOOP:  cpu time   21.3583: real time   22.3671

 eigenvalue-minimisations  :     0
 total energy-change (2. order) :-0.6234373E+00  (-0.2691598E+00)
 number of electron     269.9999992 magnetization      -2.9673790
 augmentation part       87.1006013 magnetization      -1.9794807

 Free energy of the ion-electron system (eV)
  ---------------------------------------------------
  alpha Z        PSCENC =       798.38614055
  Ewald energy   TEWEN  =    -12901.57693327
  -Hartree energ DENC   =     -2483.29098970
  -exchange      EXHF   =         0.00000000
  -V(xc)+E(xc)   XCENC  =     -1000.42368412
  PAW double counting   =     19746.42486539   -18494.45392987
  entropy T*S    EENTRO =        -0.01889889
  eigenvalues    EBANDS =      1282.45210243
  atomic energy  EATOM  =     12697.67401269
  ---------------------------------------------------
  free energy    TOTEN  =      -354.82718356 eV

  energy without entropy =     -354.80828466  energy(sigma->0) =     -354.82088392


--------------------------------------------------------------------------------------------------------




--------------------------------------- Iteration      1(  17)  ---------------------------------------


    POTLOK:  cpu time    0.3919: real time    0.3919
    SETDIJ:  cpu time    0.4796: real time    0.4796
    TRIAL :  cpu time   14.3243: real time   14.4365
    CORREC:  cpu time    4.7624: real time    4.8424
    CHARGE:  cpu time    1.4707: real time    1.4784
    --------------------------------------------
      LOOP:  cpu time   21.4323: real time   21.6330

 eigenvalue-minimisations  :     0
 total energy-change (2. order) :-0.2701515E+00  (-0.2039445E+00)
 number of electron     269.9999992 magnetization      -3.1311021
 augmentation part       87.2991375 magnetization      -2.0754523

 Free energy of the ion-electron system (eV)
  ---------------------------------------------------
  alpha Z        PSCENC =       798.38614055
  Ewald energy   TEWEN  =    -12901.57693327
  -Hartree energ DENC   =     -2507.60816633
  -exchange      EXHF   =         0.00000000
  -V(xc)+E(xc)   XCENC  =      -999.42035447
  PAW double counting   =     19623.58164890   -18376.93666192
  entropy T*S    EENTRO =        -0.01870973
  eigenvalues    EBANDS =      1310.82187768
  atomic energy  EATOM  =     12697.67401269
  ---------------------------------------------------
  free energy    TOTEN  =      -355.09733506 eV

  energy without entropy =     -355.07862533  energy(sigma->0) =     -355.09109848


--------------------------------------------------------------------------------------------------------




--------------------------------------- Iteration      1(  18)  ---------------------------------------


    POTLOK:  cpu time    0.3924: real time    0.3925
    SETDIJ:  cpu time    0.4571: real time    0.4571
    TRIAL :  cpu time   14.4247: real time   14.5518
    CORREC:  cpu time    5.4787: real time    5.4876
    CHARGE:  cpu time    1.5181: real time    1.5311
    --------------------------------------------
      LOOP:  cpu time   22.2745: real time   22.4248

 eigenvalue-minimisations  :     0
 total energy-change (2. order) :-0.2045846E+00  (-0.2391365E+00)
 number of electron     269.9999992 magnetization      -3.1473972
 augmentation part       87.1478535 magnetization      -2.1396840

 Free energy of the ion-electron system (eV)
  ---------------------------------------------------
  alpha Z        PSCENC =       798.38614055
  Ewald energy   TEWEN  =    -12901.57693327
  -Hartree energ DENC   =     -2515.08420159
  -exchange      EXHF   =         0.00000000
  -V(xc)+E(xc)   XCENC  =      -998.94520612
  PAW double counting   =     19548.22568983   -18303.54850723
  entropy T*S    EENTRO =        -0.01959642
  eigenvalues    EBANDS =      1319.58579524
  atomic energy  EATOM  =     12697.67401269
  ---------------------------------------------------
  free energy    TOTEN  =      -355.30191963 eV

  energy without entropy =     -355.28232321  energy(sigma->0) =     -355.29538749


--------------------------------------------------------------------------------------------------------




--------------------------------------- Iteration      1(  19)  ---------------------------------------


    POTLOK:  cpu time    0.3925: real time    0.3926
    SETDIJ:  cpu time    0.4790: real time    0.4790
    TRIAL :  cpu time   14.2333: real time   15.1980
    CORREC:  cpu time    4.7364: real time    4.8015
    CHARGE:  cpu time    1.4695: real time    1.4931
    --------------------------------------------
      LOOP:  cpu time   21.3129: real time   22.3664

 eigenvalue-minimisations  :     0
 total energy-change (2. order) :-0.2384012E+00  (-0.6327851E-01)
 number of electron     269.9999992 magnetization      -3.1968597
 augmentation part       86.9466866 magnetization      -2.1721270

 Free energy of the ion-electron system (eV)
  ---------------------------------------------------
  alpha Z        PSCENC =       798.38614055
  Ewald energy   TEWEN  =    -12901.57693327
  -Hartree energ DENC   =     -2504.55213485
  -exchange      EXHF   =         0.00000000
  -V(xc)+E(xc)   XCENC  =      -998.99920512
  PAW double counting   =     19470.73213140   -18224.40542433
  entropy T*S    EENTRO =        -0.02018257
  eigenvalues    EBANDS =      1307.22068849
  atomic energy  EATOM  =     12697.67401269
  ---------------------------------------------------
  free energy    TOTEN  =      -355.54032087 eV

  energy without entropy =     -355.52013829  energy(sigma->0) =     -355.53359334


--------------------------------------------------------------------------------------------------------




--------------------------------------- Iteration      1(  20)  ---------------------------------------


    POTLOK:  cpu time    0.3938: real time    0.3938
    SETDIJ:  cpu time    0.4758: real time    0.4757
    TRIAL :  cpu time   14.3950: real time   14.4836
    CORREC:  cpu time    4.7237: real time    4.7803
    CHARGE:  cpu time    1.4780: real time    1.4780
    --------------------------------------------
      LOOP:  cpu time   21.4684: real time   21.6136

 eigenvalue-minimisations  :     0
 total energy-change (2. order) :-0.6314712E-01  (-0.7295986E-01)
 number of electron     269.9999992 magnetization      -3.2585694
 augmentation part       86.7724811 magnetization      -2.2068571

 Free energy of the ion-electron system (eV)
  ---------------------------------------------------
  alpha Z        PSCENC =       798.38614055
  Ewald energy   TEWEN  =    -12901.57693327
  -Hartree energ DENC   =     -2494.66284953
  -exchange      EXHF   =         0.00000000
  -V(xc)+E(xc)   XCENC  =      -999.26686021
  PAW double counting   =     19449.80073511   -18201.42123812
  entropy T*S    EENTRO =        -0.02119180
  eigenvalues    EBANDS =      1295.48370737
  atomic energy  EATOM  =     12697.67401269
  ---------------------------------------------------
  free energy    TOTEN  =      -355.60346799 eV

  energy without entropy =     -355.58227619  energy(sigma->0) =     -355.59640406


--------------------------------------------------------------------------------------------------------




--------------------------------------- Iteration      1(  21)  ---------------------------------------


    POTLOK:  cpu time    0.3857: real time    0.4441
    SETDIJ:  cpu time    0.4538: real time    0.4538
    TRIAL :  cpu time   15.0903: real time   15.1366
    CORREC:  cpu time    4.6677: real time    4.7249
    CHARGE:  cpu time    1.5179: real time    2.1996
    --------------------------------------------
      LOOP:  cpu time   22.1218: real time   22.9660

 eigenvalue-minimisations  :     0
 total energy-change (2. order) :-0.7292317E-01  (-0.7949765E-01)
 number of electron     269.9999992 magnetization      -3.3485705
 augmentation part       86.7870819 magnetization      -2.2649832

 Free energy of the ion-electron system (eV)
  ---------------------------------------------------
  alpha Z        PSCENC =       798.38614055
  Ewald energy   TEWEN  =    -12901.57693327
  -Hartree energ DENC   =     -2488.26655284
  -exchange      EXHF   =         0.00000000
  -V(xc)+E(xc)   XCENC  =      -999.39525822
  PAW double counting   =     19442.83518009   -18192.94987626
  entropy T*S    EENTRO =        -0.02187164
  eigenvalues    EBANDS =      1287.63808790
  atomic energy  EATOM  =     12697.67401269
  ---------------------------------------------------
  free energy    TOTEN  =      -355.67639116 eV

  energy without entropy =     -355.65451951  energy(sigma->0) =     -355.66910061


--------------------------------------------------------------------------------------------------------




--------------------------------------- Iteration      1(  22)  ---------------------------------------


    POTLOK:  cpu time    0.3916: real time    0.3917
    SETDIJ:  cpu time    0.5000: real time    0.5000
    TRIAL :  cpu time   14.2924: real time   14.5192
    CORREC:  cpu time    4.6771: real time    4.6878
    CHARGE:  cpu time    1.4908: real time    1.5046
    --------------------------------------------
      LOOP:  cpu time   21.3533: real time   21.6057

 eigenvalue-minimisations  :     0
 total energy-change (2. order) :-0.7939887E-01  (-0.2931079E-01)
 number of electron     269.9999992 magnetization      -3.3855161
 augmentation part       86.9227245 magnetization      -2.2981262

 Free energy of the ion-electron system (eV)
  ---------------------------------------------------
  alpha Z        PSCENC =       798.38614055
  Ewald energy   TEWEN  =    -12901.57693327
  -Hartree energ DENC   =     -2492.74733296
  -exchange      EXHF   =         0.00000000
  -V(xc)+E(xc)   XCENC  =      -999.12919124
  PAW double counting   =     19462.87824366   -18213.72180008
  entropy T*S    EENTRO =        -0.02248424
  eigenvalues    EBANDS =      1292.50294226
  atomic energy  EATOM  =     12697.67401269
  ---------------------------------------------------
  free energy    TOTEN  =      -355.75579003 eV

  energy without entropy =     -355.73330579  energy(sigma->0) =     -355.74829528


--------------------------------------------------------------------------------------------------------




--------------------------------------- Iteration      1(  23)  ---------------------------------------


    POTLOK:  cpu time    0.3927: real time    0.3927
    SETDIJ:  cpu time    0.4601: real time    0.4601
    TRIAL :  cpu time   14.3545: real time   14.5046
    CORREC:  cpu time    4.7039: real time    4.7638
    CHARGE:  cpu time    1.4836: real time    1.4920
    --------------------------------------------
      LOOP:  cpu time   21.3975: real time   21.6167

 eigenvalue-minimisations  :     0
 total energy-change (2. order) :-0.2935238E-01  (-0.1501640E-01)
 number of electron     269.9999992 magnetization      -3.4326551
 augmentation part       86.9973413 magnetization      -2.3318178

 Free energy of the ion-electron system (eV)
  ---------------------------------------------------
  alpha Z        PSCENC =       798.38614055
  Ewald energy   TEWEN  =    -12901.57693327
  -Hartree energ DENC   =     -2501.18161412
  -exchange      EXHF   =         0.00000000
  -V(xc)+E(xc)   XCENC  =      -998.78013157
  PAW double counting   =     19481.39801276   -18233.94873080
  entropy T*S    EENTRO =        -0.02264475
  eigenvalues    EBANDS =      1302.26658558
  atomic energy  EATOM  =     12697.67401269
  ---------------------------------------------------
  free energy    TOTEN  =      -355.78514242 eV

  energy without entropy =     -355.76249766  energy(sigma->0) =     -355.77759417


--------------------------------------------------------------------------------------------------------




--------------------------------------- Iteration      1(  24)  ---------------------------------------


    POTLOK:  cpu time    0.3913: real time    0.3913
    SETDIJ:  cpu time    0.4587: real time    0.4587
    TRIAL :  cpu time   15.0195: real time   15.7564
    CORREC:  cpu time    4.7577: real time    4.7813
    CHARGE:  cpu time    1.4303: real time    1.5230
    --------------------------------------------
      LOOP:  cpu time   22.0662: real time   22.9209

 eigenvalue-minimisations  :     0
 total energy-change (2. order) :-0.1507837E-01  (-0.3498877E-01)
[...]
   45        0.015   0.015   2.266   2.296
   46       -0.024  -0.027  -2.432  -2.483
   47       -0.018  -0.011  -2.388  -2.417
   48        0.013   0.020   2.266   2.299
   49       -0.014  -0.015  -2.342  -2.371
   50       -0.016  -0.016  -2.395  -2.426
   51        0.015   0.015   2.285   2.316
   52       -0.013  -0.015  -2.345  -2.374
   53       -0.016  -0.016  -2.387  -2.419
   54        0.016   0.015   2.288   2.319
--------------------------------------------------
tot          0.009  -0.005  -3.910  -3.906
 
    FORLOC:  cpu time    0.0586: real time    0.0586
    FORNL :  cpu time   22.3149: real time   22.5264
    STRESS:  cpu time   33.3201: real time   34.0137
    FORCOR:  cpu time    0.4395: real time    0.4394
    OFIELD:  cpu time    0.0023: real time    0.0023

  FORCE on cell =-STRESS in cart. coord.  units (eV):
  Direction    XX          YY          ZZ          XY          YZ          ZX
  --------------------------------------------------------------------------------------
  Alpha Z   798.38614   798.38614   798.38614
  Ewald   -4053.61603 -4053.61603 -4794.40593    -0.00000    -0.00000    -0.00000
  Hartree  1082.41982  1084.99743   334.32273    -0.00000    -0.00000    -0.00000
  E(xc)   -1140.83338 -1141.49252 -1139.82206    -0.00000    -0.00000     0.00000
  Local     373.98662   366.68868  1902.03820    -0.00000    -0.00000     0.00000
  n-local  -169.48108  -171.35958  -177.27022     0.36204    -0.25631    -0.33250
  augment   782.44794   785.21155   768.46765     0.00000     0.00001     0.00001
  Kinetic  2332.37187  2337.43928  2311.11832    -2.12784    -1.24779    -1.01279
  Fock        0.00000     0.00000     0.00000     0.00000     0.00000     0.00000
  -------------------------------------------------------------------------------------
  Total       5.68191     6.25496     2.83483     0.00000     0.00000     0.00000
  in kB      12.82333    14.11664     6.39785     0.00000     0.00000     0.00000
  external pressure =       11.11 kB  Pullay stress =        0.00 kB


 VOLUME and BASIS-vectors are now :
 -----------------------------------------------------------------------------
  energy-cutoff  :      404.80
  volume of cell :      709.91
      direct lattice vectors                 reciprocal lattice vectors
     8.250148166  0.000000000  0.000000000     0.121209944  0.000000000  0.000000000
     0.000000000  8.250148166  0.000000000     0.000000000  0.121209944  0.000000000
     0.000000000  0.000000000 10.429911392     0.000000000  0.000000000  0.095878092

  length of vectors
     8.250148166  8.250148166 10.429911392     0.121209944  0.121209944  0.095878092


 FORCES acting on ions:
    Electron-Ion                     Ewald-Force                    Non-Local-Force
 -----------------------------------------------------------------------------------------------
   -.882E-01 -.104E+00 -.252E-01   -.239E-08 -.239E-08 -.210E-08   0.865E-01 0.797E-01 -.234E-01
   -.144E-01 0.678E-01 -.370E-01   -.239E-08 -.239E-08 0.171E-08   0.150E-01 0.257E-01 0.130E-01
   -.514E-01 -.160E-01 0.638E-01   -.239E-08 -.239E-08 0.861E-08   0.136E+00 -.223E-01 0.110E-01
   -.882E-01 0.104E+00 -.252E-01   -.239E-08 -.802E-09 -.210E-08   0.865E-01 -.797E-01 -.234E-01
   -.144E-01 -.678E-01 -.370E-01   -.239E-08 -.802E-09 0.171E-08   0.150E-01 -.257E-01 0.130E-01
   -.514E-01 0.160E-01 0.638E-01   -.239E-08 -.802E-09 0.861E-08   0.136E+00 0.223E-01 0.110E-01
   0.125E-01 -.329E-08 0.161E-01   -.239E-08 0.631E-08 -.210E-08   -.445E-02 0.000E+00 -.178E-01
   0.156E+00 -.328E-08 -.640E-01   -.239E-08 0.631E-08 0.171E-08   -.911E-01 0.434E-18 -.146E-01
   -.142E-01 -.328E-08 0.864E-01   -.239E-08 0.631E-08 0.861E-08   0.128E+00 0.000E+00 -.534E-05
   0.882E-01 -.104E+00 -.252E-01   -.802E-09 -.239E-08 -.210E-08   -.865E-01 0.797E-01 -.234E-01
   0.144E-01 0.678E-01 -.370E-01   -.802E-09 -.239E-08 0.171E-08   -.150E-01 0.257E-01 0.130E-01
   0.514E-01 -.160E-01 0.638E-01   -.803E-09 -.239E-08 0.861E-08   -.136E+00 -.223E-01 0.110E-01
   0.882E-01 0.104E+00 -.252E-01   -.802E-09 -.802E-09 -.210E-08   -.865E-01 -.797E-01 -.234E-01
   0.144E-01 -.678E-01 -.370E-01   -.802E-09 -.802E-09 0.171E-08   -.150E-01 -.257E-01 0.130E-01
   0.514E-01 0.160E-01 0.638E-01   -.803E-09 -.802E-09 0.861E-08   -.136E+00 0.223E-01 0.110E-01
   -.125E-01 -.329E-08 0.161E-01   -.802E-09 0.631E-08 -.210E-08   0.445E-02 0.000E+00 -.178E-01
   -.156E+00 -.328E-08 -.640E-01   -.802E-09 0.631E-08 0.171E-08   0.911E-01 -.217E-18 -.146E-01
   0.142E-01 -.328E-08 0.864E-01   -.803E-09 0.631E-08 0.861E-08   -.128E+00 0.000E+00 -.534E-05
   -.328E-08 0.916E-03 -.116E+00   0.631E-08 -.239E-08 -.210E-08   0.000E+00 0.448E-02 0.585E-01
   -.326E-08 0.165E-01 -.350E-01   0.631E-08 -.239E-08 0.171E-08   0.000E+00 -.147E-01 0.638E-01
   -.328E-08 -.245E-01 0.930E-01   0.631E-08 -.239E-08 0.861E-08   0.542E-19 0.278E-02 -.509E-01
   -.328E-08 -.916E-03 -.116E+00   0.631E-08 -.802E-09 -.210E-08   0.000E+00 -.448E-02 0.585E-01
   -.326E-08 -.165E-01 -.350E-01   0.631E-08 -.802E-09 0.171E-08   0.271E-19 0.147E-01 0.638E-01
   -.328E-08 0.245E-01 0.930E-01   0.631E-08 -.802E-09 0.861E-08   0.000E+00 -.278E-02 -.509E-01
   -.329E-08 -.330E-08 -.122E+00   0.631E-08 0.631E-08 -.210E-08   0.000E+00 0.000E+00 0.956E-01
   -.327E-08 -.329E-08 -.213E-01   0.631E-08 0.631E-08 0.171E-08   0.000E+00 0.000E+00 0.433E-01
   -.328E-08 -.331E-08 0.259E-01   0.631E-08 0.631E-08 0.861E-08   0.000E+00 0.000E+00 -.405E-01
   0.471E-08 0.471E-08 -.361E-01   -.169E-07 -.169E-07 -.180E-07   0.000E+00 0.000E+00 0.667E-02
   0.470E-08 0.485E-08 -.706E-01   -.169E-07 -.169E-07 -.170E-08   0.000E+00 0.000E+00 0.158E+00
   0.479E-08 0.478E-08 0.958E-01   -.169E-07 -.169E-07 0.115E-07   0.000E+00 0.000E+00 -.570E-01
   0.489E-08 0.294E+00 -.352E-01   -.169E-07 0.802E-09 -.180E-07   0.000E+00 -.138E+00 0.660E-01
   0.477E-08 0.625E-01 0.197E+00   -.169E-07 0.802E-09 -.170E-08   0.000E+00 -.483E-01 -.211E+00
   0.485E-08 0.644E-01 -.188E+00   -.169E-07 0.802E-09 0.115E-07   0.000E+00 -.241E-01 0.245E+00
   0.489E-08 -.294E+00 -.352E-01   -.169E-07 0.130E-07 -.180E-07   0.000E+00 0.138E+00 0.660E-01
   0.477E-08 -.625E-01 0.197E+00   -.169E-07 0.130E-07 -.170E-08   0.000E+00 0.483E-01 -.211E+00
   0.485E-08 -.644E-01 -.188E+00   -.169E-07 0.130E-07 0.115E-07   0.000E+00 0.241E-01 0.245E+00
   0.241E+00 0.487E-08 0.129E+00   0.802E-09 -.169E-07 -.180E-07   -.985E-01 0.000E+00 -.209E+00
   0.177E+00 0.486E-08 -.223E+00   0.802E-09 -.169E-07 -.170E-08   -.118E-01 -.173E-17 0.332E+00
   0.758E-01 0.487E-08 -.313E-02   0.802E-09 -.169E-07 0.115E-07   -.437E-01 0.651E-18 -.174E-01
   -.170E+00 -.754E-01 0.585E-01   0.802E-09 0.802E-09 -.180E-07   0.179E+00 0.845E-01 -.171E+00
   0.303E+00 -.692E-02 -.554E-01   0.802E-09 0.802E-09 -.170E-08   -.105E+00 0.190E-01 0.863E-01
   0.221E-02 -.241E-01 0.462E-01   0.802E-09 0.802E-09 0.115E-07   -.976E-03 0.196E-01 -.317E-01
   -.170E+00 0.754E-01 0.585E-01   0.802E-09 0.130E-07 -.180E-07   0.179E+00 -.845E-01 -.171E+00
   0.303E+00 0.692E-02 -.554E-01   0.802E-09 0.130E-07 -.170E-08   -.105E+00 -.190E-01 0.863E-01
   0.221E-02 0.241E-01 0.462E-01   0.802E-09 0.130E-07 0.115E-07   -.976E-03 -.196E-01 -.317E-01
   -.241E+00 0.487E-08 0.129E+00   0.130E-07 -.169E-07 -.180E-07   0.985E-01 0.000E+00 -.209E+00
   -.177E+00 0.486E-08 -.223E+00   0.130E-07 -.169E-07 -.170E-08   0.118E-01 0.173E-17 0.332E+00
   -.758E-01 0.486E-08 -.313E-02   0.130E-07 -.169E-07 0.115E-07   0.437E-01 -.867E-18 -.174E-01
   0.170E+00 -.754E-01 0.585E-01   0.130E-07 0.802E-09 -.180E-07   -.179E+00 0.845E-01 -.171E+00
   -.303E+00 -.692E-02 -.554E-01   0.130E-07 0.802E-09 -.170E-08   0.105E+00 0.190E-01 0.863E-01
   -.221E-02 -.241E-01 0.462E-01   0.130E-07 0.802E-09 0.115E-07   0.976E-03 0.196E-01 -.317E-01
   0.170E+00 0.754E-01 0.585E-01   0.130E-07 0.130E-07 -.180E-07   -.179E+00 -.845E-01 -.171E+00
   -.303E+00 0.692E-02 -.554E-01   0.130E-07 0.130E-07 -.170E-08   0.105E+00 -.190E-01 0.863E-01
   -.221E-02 0.241E-01 0.462E-01   0.130E-07 0.130E-07 0.115E-07   0.976E-03 -.196E-01 -.317E-01
 -----------------------------------------------------------------------------------------------
   -.407E-07 -.405E-07 -.232E+00   -.614E-13 -.142E-13 0.128E-13   -.815E-16 0.104E-16 0.232E+00
 
 
 POSITION                                       TOTAL-FORCE (eV/Angst)
 -----------------------------------------------------------------------------------
      0.00000      0.00000      0.00000        -0.008877     -0.030691     -0.045261
      0.00000      0.00000      3.47664        -0.000274      0.092093     -0.025105
      0.00000      0.00000      6.95327         0.073230     -0.036785      0.072637
      0.00000      2.75005      0.00000        -0.008877      0.030691     -0.045261
      0.00000      2.75005      3.47664        -0.000274     -0.092093     -0.025105
      0.00000      2.75005      6.95327         0.073230      0.036785      0.072637
      0.00000      5.50010      0.00000         0.008937      0.000000      0.000267
      0.00000      5.50010      3.47664         0.073456      0.000000     -0.076623
      0.00000      5.50010      6.95327         0.103409      0.000000      0.085561
      2.75005      0.00000      0.00000         0.008877     -0.030691     -0.045261
      2.75005      0.00000      3.47664         0.000274      0.092093     -0.025105
      2.75005      0.00000      6.95327        -0.073230     -0.036785      0.072637
      2.75005      2.75005      0.00000         0.008877      0.030691     -0.045261
      2.75005      2.75005      3.47664         0.000274     -0.092093     -0.025105
      2.75005      2.75005      6.95327        -0.073230      0.036785      0.072637
      2.75005      5.50010      0.00000        -0.008937      0.000000      0.000267
      2.75005      5.50010      3.47664        -0.073456      0.000000     -0.076623
      2.75005      5.50010      6.95327        -0.103409      0.000000      0.085561
      5.50010      0.00000      0.00000         0.000000      0.005408     -0.062997
      5.50010      0.00000      3.47664         0.000000      0.003375      0.023554
      5.50010      0.00000      6.95327         0.000000     -0.022074      0.046589
      5.50010      2.75005      0.00000         0.000000     -0.005408     -0.062997
      5.50010      2.75005      3.47664         0.000000     -0.003375      0.023554
      5.50010      2.75005      6.95327         0.000000      0.022074      0.046589
      5.50010      5.50010      0.00000         0.000000      0.000000     -0.035652
      5.50010      5.50010      3.47664         0.000000      0.000000      0.018743
      5.50010      5.50010      6.95327         0.000000      0.000000     -0.012146
      1.37502      1.37502      1.73832         0.000000      0.000000     -0.033388
      1.37502      1.37502      5.21496         0.000000      0.000000      0.090337
      1.37502      1.37502      8.69159         0.000000      0.000000      0.036905
      1.37502      4.12507      1.73832         0.000000      0.156908      0.031919
      1.37502      4.12507      5.21496         0.000000      0.014287     -0.009625
      1.37502      4.12507      8.69159         0.000000      0.039731      0.050437
      1.37502      6.87512      1.73832         0.000000     -0.156908      0.031919
      1.37502      6.87512      5.21496         0.000000     -0.014287     -0.009625
      1.37502      6.87512      8.69159         0.000000     -0.039731      0.050437
      4.12507      1.37502      1.73832         0.147422      0.000000     -0.072497
      4.12507      1.37502      5.21496         0.166238      0.000000      0.097778
      4.12507      1.37502      8.69159         0.031205      0.000000     -0.021791
      4.12507      4.12507      1.73832         0.007999      0.006868     -0.103234
      4.12507      4.12507      5.21496         0.203401      0.012277      0.024659
      4.12507      4.12507      8.69159         0.000278     -0.005154      0.013818
      4.12507      6.87512      1.73832         0.007999     -0.006868     -0.103234
      4.12507      6.87512      5.21496         0.203401     -0.012277      0.024659
      4.12507      6.87512      8.69159         0.000278      0.005154      0.013818
      6.87512      1.37502      1.73832        -0.147422      0.000000     -0.072497
      6.87512      1.37502      5.21496        -0.166238      0.000000      0.097778
      6.87512      1.37502      8.69159        -0.031205      0.000000     -0.021791
      6.87512      4.12507      1.73832        -0.007999      0.006868     -0.103234
      6.87512      4.12507      5.21496        -0.203401      0.012277      0.024659
      6.87512      4.12507      8.69159        -0.000278     -0.005154      0.013818
      6.87512      6.87512      1.73832        -0.007999     -0.006868     -0.103234
      6.87512      6.87512      5.21496        -0.203401     -0.012277      0.024659
      6.87512      6.87512      8.69159        -0.000278      0.005154      0.013818
 -----------------------------------------------------------------------------------
    total drift:                               -0.000000     -0.000000     -0.000067


--------------------------------------------------------------------------------------------------------



  FREE ENERGIE OF THE ION-ELECTRON SYSTEM (eV)
  ---------------------------------------------------
  free  energy   TOTEN  =      -355.90924217 eV

  energy  without entropy=     -355.89003191  energy(sigma->0) =     -355.90283875
 


--------------------------------------------------------------------------------------------------------


    POTLOK:  cpu time    0.8009: real time    0.8933


--------------------------------------------------------------------------------------------------------


     LOOP+:  cpu time 2361.5541: real time 2413.4529
    4ORBIT:  cpu time    0.0000: real time    0.0000
 


 total charge     
 
# of ion       s       p       d       tot
------------------------------------------
    1        0.406   0.427   0.000   0.833
    2        0.405   0.429   0.000   0.834
    3        0.405   0.428   0.000   0.834
    4        0.406   0.427   0.000   0.833
    5        0.405   0.430   0.000   0.834
    6        0.406   0.428   0.000   0.833
    7        0.405   0.426   0.000   0.831
    8        0.405   0.429   0.000   0.833
    9        0.405   0.429   0.000   0.834
   10        0.406   0.428   0.000   0.833
   11        0.405   0.429   0.000   0.834
   12        0.405   0.428   0.000   0.833
   13        0.405   0.428   0.000   0.833
   14        0.405   0.429   0.000   0.834
   15        0.405   0.428   0.000   0.833
   16        0.405   0.426   0.000   0.832
   17        0.405   0.428   0.000   0.833
   18        0.405   0.429   0.000   0.833
   19        0.405   0.427   0.000   0.832
   20        0.404   0.426   0.000   0.830
   21        0.405   0.426   0.000   0.831
   22        0.405   0.427   0.000   0.832
   23        0.405   0.426   0.000   0.831
   24        0.405   0.426   0.000   0.831
   25        0.405   0.427   0.000   0.832
   26        0.404   0.427   0.000   0.830
   27        0.405   0.426   0.000   0.831
   28        0.335   0.353   5.136   5.824
   29        0.332   0.355   5.134   5.821
   30        0.335   0.346   5.143   5.825
   31        0.334   0.355   5.129   5.818
   32        0.330   0.354   5.142   5.827
   33        0.335   0.351   5.133   5.819
   34        0.334   0.355   5.128   5.816
   35        0.330   0.354   5.136   5.821
   36        0.335   0.351   5.135   5.821
   37        0.335   0.354   5.134   5.823
   38        0.333   0.353   5.130   5.815
   39        0.333   0.351   5.139   5.823
   40        0.333   0.351   5.147   5.831
   41        0.334   0.353   5.129   5.816
   42        0.334   0.349   5.146   5.829
   43        0.333   0.351   5.143   5.827
   44        0.334   0.353   5.128   5.815
   45        0.334   0.350   5.146   5.830
   46        0.335   0.355   5.120   5.810
   47        0.333   0.352   5.143   5.827
   48        0.333   0.351   5.132   5.816
   49        0.333   0.352   5.128   5.813
   50        0.334   0.353   5.134   5.821
   51        0.334   0.350   5.130   5.814
   52        0.333   0.352   5.133   5.819
   53        0.334   0.353   5.137   5.823
   54        0.334   0.350   5.130   5.814
--------------------------------------------------
tot         19.941  21.048 138.647 179.635
 


 magnetization (x)
 
# of ion       s       p       d       tot
------------------------------------------
    1       -0.004  -0.010   0.000  -0.014
    2        0.007   0.012   0.000   0.019
    3       -0.010  -0.020   0.000  -0.029
    4       -0.004  -0.009   0.000  -0.013
    5        0.007   0.012   0.000   0.019
    6       -0.010  -0.020   0.000  -0.029
    7       -0.001  -0.003   0.000  -0.003
    8        0.011   0.018   0.000   0.028
    9       -0.010  -0.017   0.000  -0.027
   10       -0.004  -0.009   0.000  -0.013
   11        0.007   0.012   0.000   0.020
   12       -0.010  -0.021   0.000  -0.030
   13       -0.004  -0.009   0.000  -0.013
   14        0.007   0.012   0.000   0.019
   15       -0.010  -0.021   0.000  -0.031
   16       -0.001  -0.003   0.000  -0.003
   17        0.011   0.019   0.000   0.029
   18       -0.010  -0.018   0.000  -0.028
   19       -0.001  -0.001   0.000  -0.002
   20        0.021   0.035   0.000   0.055
   21       -0.001  -0.002   0.000  -0.003
   22       -0.001  -0.001   0.000  -0.002
   23        0.020   0.035   0.000   0.055
   24       -0.001  -0.002   0.000  -0.003
   25        0.001   0.000   0.000   0.001
   26        0.022   0.036   0.000   0.058
   27       -0.001  -0.003   0.000  -0.004
   28        0.030   0.025   2.116   2.170
   29        0.019   0.010   2.262   2.290
   30        0.020   0.013   2.335   2.369
   31       -0.021  -0.024  -2.353  -2.398
   32        0.014   0.014   2.173   2.202
   33        0.017   0.023   2.327   2.366
   34       -0.021  -0.024  -2.355  -2.401
   35        0.015   0.014   2.176   2.205
   36        0.016   0.022   2.322   2.360
   37       -0.024  -0.027  -2.411  -2.462
   38       -0.018  -0.011  -2.403  -2.431
   39        0.013   0.020   2.257   2.290
   40       -0.013  -0.015  -2.323  -2.352
   41       -0.016  -0.016  -2.397  -2.429
   42        0.015   0.015   2.268   2.298
   43       -0.014  -0.015  -2.324  -2.352
   44       -0.016  -0.016  -2.397  -2.428
   45        0.015   0.015   2.266   2.296
   46       -0.024  -0.027  -2.432  -2.483
   47       -0.018  -0.011  -2.388  -2.417
   48        0.013   0.020   2.266   2.299
   49       -0.014  -0.015  -2.342  -2.371
   50       -0.016  -0.016  -2.395  -2.426
   51        0.015   0.015   2.285   2.316
   52       -0.013  -0.015  -2.345  -2.374
   53       -0.016  -0.016  -2.387  -2.419
   54        0.016   0.015   2.288   2.319
--------------------------------------------------
tot          0.009  -0.005  -3.910  -3.906
 

 total amount of memory used by VASP MPI-rank0   842526. kBytes
=======================================================================

   base      :      30000. kBytes
   nonl-proj :      28494. kBytes
   fftplans  :      31580. kBytes
   grid      :      21385. kBytes
   one-center:        435. kBytes
   wavefun   :     730632. kBytes
 
  
  
 General timing and accounting informations for this job:
 ========================================================
  
                  Total CPU time used (sec):     2392.514
                            User time (sec):     2362.014
                          System time (sec):       30.500
                         Elapsed time (sec):     2446.664
  
                   Maximum memory used (kb):     1006852.
                   Average memory used (kb):           0.
  
                          Minor page faults:       873034
                          Major page faults:           16
                 Voluntary context switches:         3464
