 vasp.5.4.4.18Apr17-6-g9f103f2a35 (build Dec 20 2018 12:05:58) complex          
  
 executed on             LinuxIFC date 2019.06.20  19:11:36
 running on   32 total cores
 distrk:  each k-point on    8 cores,    4 groups
 distr:  one band on NCORES_PER_BAND=   4 cores,    2 groups


--------------------------------------------------------------------------------------------------------


 INCAR:
 POTCAR:    PAW_PBE Al 04Jan2001                  
 POTCAR:    PAW_PBE Mn 06Sep2000                  

 ----------------------------------------------------------------------------- 
|                                                                             |
|           W    W    AA    RRRRR   N    N  II  N    N   GGGG   !!!           |
|           W    W   A  A   R    R  NN   N  II  NN   N  G    G  !!!           |
|           W    W  A    A  R    R  N N  N  II  N N  N  G       !!!           |
|           W WW W  AAAAAA  RRRRR   N  N N  II  N  N N  G  GGG   !            |
|           WW  WW  A    A  R   R   N   NN  II  N   NN  G    G                |
|           W    W  A    A  R    R  N    N  II  N    N   GGGG   !!!           |
|                                                                             |
|      You have enabled k-point parallelism (KPAR>1).                         |
|      This developmental code was originally  written by Paul Kent at ORNL,  |
|      and carefully double checked in Vienna.                                |
|      GW as well as linear response parallelism added by Martijn Marsman     |
|      and Georg Kresse.                                                      |
|      Carefully verify results versus KPAR=1.                                |
|      Report problems to Paul Kent and Vienna.                               |
|                                                                             |
 ----------------------------------------------------------------------------- 

 POTCAR:    PAW_PBE Al 04Jan2001                  
   VRHFIN =Al: s2p1                                                             
   LEXCH  = PE                                                                  
   EATOM  =    53.5387 eV,    3.9350 Ry                                         
                                                                                
   TITEL  = PAW_PBE Al 04Jan2001                                                
   LULTRA =        F    use ultrasoft PP ?                                      
   IUNSCR =        1    unscreen: 0-lin 1-nonlin 2-no                           
   RPACOR =    1.500    partial core radius                                     
   POMASS =   26.981; ZVAL   =    3.000    mass and valenz                      
   RCORE  =    1.900    outmost cutoff radius                                   
   RWIGS  =    2.650; RWIGS  =    1.402    wigner-seitz radius (au A)           
   ENMAX  =  240.300; ENMIN  =  180.225 eV                                      
   ICORE  =        2    local potential                                         
   LCOR   =        T    correct aug charges                                     
   LPAW   =        T    paw PP                                                  
   EAUG   =  291.052                                                            
   DEXC   =    0.000                                                            
   RMAX   =    1.939    core radius for proj-oper                               
   RAUG   =    1.300    factor for augmentation sphere                          
   RDEP   =    1.966    radius for radial grids                                 
   RDEPT  =    1.856    core radius for aug-charge                              
                                                                                
   Atomic configuration                                                         
    6 entries                                                                   
     n  l   j            E        occ.                                          
     1  0  0.50     -1511.1048   2.0000                                         
     2  0  0.50      -108.1629   2.0000                                         
     2  1  1.50       -69.6402   6.0000                                         
     3  0  0.50        -7.7528   2.0000                                         
     3  1  1.50        -2.7121   1.0000                                         
     3  2  2.50        -2.7212   0.0000                                         
   Description                                                                  
     l       E           TYP  RCUT    TYP  RCUT                                 
     0     -7.7528455     23  1.900                                             
     0     -3.3096929     23  1.900                                             
     1     -2.7120682     23  1.900                                             
     1     13.6058260     23  1.900                                             
     2     -2.7211652      7  1.900                                             
  local pseudopotential read in
  partial core-charges read in
  partial kinetic energy density read in
  atomic valenz-charges read in
  non local Contribution for L=           0  read in
    real space projection operators read in
  non local Contribution for L=           0  read in
    real space projection operators read in
  non local Contribution for L=           1  read in
    real space projection operators read in
  non local Contribution for L=           1  read in
    real space projection operators read in
    PAW grid and wavefunctions read in
 
   number of l-projection  operators is LMAX  =           4
   number of lm-projection operators is LMMAX =           8
 
 POTCAR:    PAW_PBE Mn 06Sep2000                  
   VRHFIN =Mn: d6 s1                                                            
   LEXCH  = PE                                                                  
   EATOM  =   416.7541 eV,   30.6306 Ry                                         
                                                                                
   TITEL  = PAW_PBE Mn 06Sep2000                                                
   LULTRA =        F    use ultrasoft PP ?                                      
   IUNSCR =        1    unscreen: 0-lin 1-nonlin 2-no                           
   RPACOR =    2.000    partial core radius                                     
   POMASS =   54.938; ZVAL   =    7.000    mass and valenz                      
   RCORE  =    2.300    outmost cutoff radius                                   
   RWIGS  =    2.500; RWIGS  =    1.323    wigner-seitz radius (au A)           
   ENMAX  =  269.864; ENMIN  =  202.398 eV                                      
   RCLOC  =    1.725    cutoff for local pot                                    
   LCOR   =        T    correct aug charges                                     
   LPAW   =        T    paw PP                                                  
   EAUG   =  500.711                                                            
   DEXC   =    0.000                                                            
   RMAX   =    2.343    core radius for proj-oper                               
   RAUG   =    1.300    factor for augmentation sphere                          
   RDEP   =    2.338    radius for radial grids                                 
   RDEPT  =    1.911    core radius for aug-charge                              
                                                                                
   Atomic configuration                                                         
    9 entries                                                                   
     n  l   j            E        occ.                                          
     1  0  0.50     -6424.8288   2.0000                                         
     2  0  0.50      -739.1154   2.0000                                         
     2  1  1.50      -625.3949   6.0000                                         
     3  0  0.50       -81.6100   2.0000                                         
     3  1  1.50       -50.4667   6.0000                                         
     3  2  2.50        -3.3745   6.0000                                         
     4  0  0.50        -4.1331   1.0000                                         
     4  1  0.50        -4.0817   0.0000                                         
     4  3  2.50        -1.3606   0.0000                                         
   Description                                                                  
     l       E           TYP  RCUT    TYP  RCUT                                 
     2     -3.3744664     23  2.300                                             
     2     -4.7350490     23  2.300                                             
     0     -4.1331408     23  2.300                                             
     0      7.6656614     23  2.300                                             
     1     -2.7211652     23  2.300                                             
     1     20.4087390     23  2.300                                             
  local pseudopotential read in
  partial core-charges read in
  partial kinetic energy density read in
  atomic valenz-charges read in
  non local Contribution for L=           2  read in
    real space projection operators read in
  non local Contribution for L=           2  read in
    real space projection operators read in
  non local Contribution for L=           0  read in
    real space projection operators read in
  non local Contribution for L=           0  read in
    real space projection operators read in
  non local Contribution for L=           1  read in
    real space projection operators read in
  non local Contribution for L=           1  read in
    real space projection operators read in
    PAW grid and wavefunctions read in
 
   number of l-projection  operators is LMAX  =           6
   number of lm-projection operators is LMMAX =          18
 

 ----------------------------------------------------------------------------- 
|                                                                             |
|  ADVICE TO THIS USER RUNNING 'VASP/VAMP'   (HEAR YOUR MASTER'S VOICE ...):  |
|                                                                             |
|      You have a (more or less) 'large supercell' and for larger cells       |
|      it might be more efficient to use real space projection opertators     |
|      So try LREAL= Auto  in the INCAR   file.                               |
|      Mind:          For very  accurate calculation you might also keep the  |
|      reciprocal projection scheme          (i.e. LREAL=.FALSE.)             |
|                                                                             |
 ----------------------------------------------------------------------------- 

  PAW_PBE Al 04Jan2001                  :
 energy of atom  1       EATOM=  -53.5387
 kinetic energy error for atom=    0.0005 (will be added to EATOM!!)
  PAW_PBE Mn 06Sep2000                  :
 energy of atom  2       EATOM= -416.7541
 kinetic energy error for atom=    0.0080 (will be added to EATOM!!)
 
 
 POSCAR: NewRef: 27, @ ['Mn', array([1.37502469, 
  positions in cartesian coordinates
  velocities in cartesian coordinates
  No initial velocities read in
 exchange correlation table for  LEXCH =        8
   RHO(1)=    0.500       N(1)  =     2000
   RHO(2)=  100.500       N(2)  =     4000
 


--------------------------------------------------------------------------------------------------------


 ion  position               nearest neighbor table
   1  0.000  0.000  0.000-  28 2.61  30 2.61  34 2.61  36 2.61  46 2.61  48 2.61  52 2.61  54 2.61
                             4 2.75  10 2.75   7 2.75  19 2.75
   2  0.000  0.000  0.333-  28 2.61  34 2.61  46 2.61  52 2.61  29 2.61  47 2.61  35 2.61  53 2.61
                             5 2.75  11 2.75   8 2.75  20 2.75
   3  0.000  0.000  0.667-  29 2.61  35 2.61  47 2.61  53 2.61  30 2.61  48 2.61  36 2.61  54 2.61
                             6 2.75  12 2.75   9 2.75  21 2.75
   4  0.000  0.333  0.000-  28 2.61  30 2.61  46 2.61  48 2.61  31 2.61  33 2.61  49 2.61  51 2.61
                            13 2.75   1 2.75   7 2.75  22 2.75
   5  0.000  0.333  0.333-  28 2.61  46 2.61  31 2.61  49 2.61  47 2.61  29 2.61  32 2.61  50 2.61
                            14 2.75   2 2.75   8 2.75  23 2.75
   6  0.000  0.333  0.667-  29 2.61  47 2.61  32 2.61  50 2.61  48 2.61  30 2.61  33 2.61  51 2.61
                            15 2.75   3 2.75   9 2.75  24 2.75
   7  0.000  0.667  0.000-  31 2.61  33 2.61  49 2.61  51 2.61  34 2.61  36 2.61  52 2.61  54 2.61
                             4 2.75  16 2.75   1 2.75  25 2.75
   8  0.000  0.667  0.333-  31 2.61  49 2.61  34 2.61  52 2.61  50 2.61  32 2.61  35 2.61  53 2.61
                             5 2.75  17 2.75   2 2.75  26 2.75
   9  0.000  0.667  0.667-  32 2.61  50 2.61  35 2.61  53 2.61  51 2.61  33 2.61  36 2.61  54 2.61
                             6 2.75  18 2.75   3 2.75  27 2.75
  10  0.333  0.000  0.000-  28 2.61  30 2.61  34 2.61  36 2.61  37 2.61  39 2.61  43 2.61  45 2.61
                            19 2.75   1 2.75  13 2.75  16 2.75
  11  0.333  0.000  0.333-  28 2.61  34 2.61  37 2.61  43 2.61  29 2.61  35 2.61  38 2.61  44 2.61
                            20 2.75   2 2.75  14 2.75  17 2.75
  12  0.333  0.000  0.667-  29 2.61  35 2.61  38 2.61  44 2.61  30 2.61  36 2.61  39 2.61  45 2.61
                            21 2.75   3 2.75  15 2.75  18 2.75
  13  0.333  0.333  0.000-  28 2.61  30 2.61  31 2.61  33 2.61  37 2.61  39 2.61  40 2.61  42 2.61
                             4 2.75  10 2.75  16 2.75  22 2.75
  14  0.333  0.333  0.333-  28 2.61  31 2.61  37 2.61  29 2.61  40 2.61  38 2.61  32 2.61  41 2.61
                             5 2.75  11 2.75  17 2.75  23 2.75
  15  0.333  0.333  0.667-  29 2.61  32 2.61  38 2.61  30 2.61  41 2.61  39 2.61  33 2.61  42 2.61
                             6 2.75  12 2.75  18 2.75  24 2.75
  16  0.333  0.667  0.000-  31 2.61  33 2.61  34 2.61  36 2.61  40 2.61  42 2.61  43 2.61  45 2.61
                            25 2.75   7 2.75  13 2.75  10 2.75
  17  0.333  0.667  0.333-  31 2.61  34 2.61  40 2.61  32 2.61  43 2.61  41 2.61  35 2.61  44 2.61
                            26 2.75   8 2.75  14 2.75  11 2.75
  18  0.333  0.667  0.667-  32 2.61  35 2.61  41 2.61  33 2.61  44 2.61  42 2.61  36 2.61  45 2.61
                            27 2.75   9 2.75  15 2.75  12 2.75
  19  0.667  0.000  0.000-  37 2.61  39 2.61  43 2.61  45 2.61  46 2.61  48 2.61  52 2.61  54 2.61
                            10 2.75  22 2.75   1 2.75  25 2.75
  20  0.667  0.000  0.333-  37 2.61  43 2.61  46 2.61  52 2.61  38 2.61  44 2.61  47 2.61  53 2.61
                            11 2.75  23 2.75   2 2.75  26 2.75
  21  0.667  0.000  0.667-  38 2.61  44 2.61  47 2.61  53 2.61  39 2.61  45 2.61  48 2.61  54 2.61
                            12 2.75  24 2.75   3 2.75  27 2.75
  22  0.667  0.333  0.000-  37 2.61  39 2.61  40 2.61  42 2.61  46 2.61  48 2.61  49 2.61  51 2.61
                            25 2.75  13 2.75  19 2.75   4 2.75
  23  0.667  0.333  0.333-  37 2.61  40 2.61  46 2.61  38 2.61  49 2.61  47 2.61  41 2.61  50 2.61
                            26 2.75  14 2.75  20 2.75   5 2.75
  24  0.667  0.333  0.667-  38 2.61  41 2.61  47 2.61  39 2.61  50 2.61  48 2.61  42 2.61  51 2.61
                            27 2.75  15 2.75  21 2.75   6 2.75
  25  0.667  0.667  0.000-  40 2.61  42 2.61  43 2.61  45 2.61  49 2.61  51 2.61  52 2.61  54 2.61
                            16 2.75  22 2.75  19 2.75   7 2.75
  26  0.667  0.667  0.333-  40 2.61  43 2.61  49 2.61  41 2.61  52 2.61  50 2.61  44 2.61  53 2.61
                            17 2.75  23 2.75  20 2.75   8 2.75
  27  0.667  0.667  0.667-  41 2.61  44 2.61  50 2.61  42 2.61  53 2.61  51 2.61  45 2.61  54 2.61
                            18 2.75  24 2.75  21 2.75   9 2.75
  28  0.167  0.167  0.167-  14 2.61  11 2.61   5 2.61  13 2.61   2 2.61  10 2.61   4 2.61   1 2.61
                            31 2.75  37 2.75  34 2.75  46 2.75
  29  0.167  0.167  0.500-  15 2.61  12 2.61   6 2.61  14 2.61   3 2.61  11 2.61   5 2.61   2 2.61
                            32 2.75  38 2.75  35 2.75  47 2.75
  30  0.167  0.167  0.833-  13 2.61  15 2.61  10 2.61  12 2.61   4 2.61   6 2.61   1 2.61   3 2.61
                            33 2.75  39 2.75  36 2.75  48 2.75
  31  0.167  0.500  0.167-  17 2.61  14 2.61   8 2.61  16 2.61   5 2.61  13 2.61   7 2.61   4 2.61
                            28 2.75  34 2.75  40 2.75  49 2.75
  32  0.167  0.500  0.500-  18 2.61  15 2.61   9 2.61  17 2.61   6 2.61  14 2.61   8 2.61   5 2.61
                            29 2.75  35 2.75  41 2.75  50 2.75
  33  0.167  0.500  0.833-  16 2.61  18 2.61  13 2.61  15 2.61   7 2.61   9 2.61   4 2.61   6 2.61
                            30 2.75  36 2.75  42 2.75  51 2.75
  34  0.167  0.833  0.167-  11 2.61  17 2.61   2 2.61   8 2.61  16 2.61  10 2.61   7 2.61   1 2.61
                            31 2.75  43 2.75  28 2.75  52 2.75
  35  0.167  0.833  0.500-  12 2.61  18 2.61   3 2.61   9 2.61  17 2.61  11 2.61   8 2.61   2 2.61
                            32 2.75  44 2.75  29 2.75  53 2.75
  36  0.167  0.833  0.833-  10 2.61  12 2.61  16 2.61  18 2.61   1 2.61   3 2.61   7 2.61   9 2.61
                            33 2.75  45 2.75  30 2.75  54 2.75
  37  0.500  0.167  0.167-  23 2.61  20 2.61  14 2.61  22 2.61  11 2.61  19 2.61  13 2.61  10 2.61
                            28 2.75  40 2.75  46 2.75  43 2.75
  38  0.500  0.167  0.500-  24 2.61  21 2.61  15 2.61  23 2.61  12 2.61  20 2.61  14 2.61  11 2.61
                            29 2.75  41 2.75  47 2.75  44 2.75
  39  0.500  0.167  0.833-  22 2.61  24 2.61  19 2.61  21 2.61  13 2.61  15 2.61  10 2.61  12 2.61
                            30 2.75  42 2.75  48 2.75  45 2.75
  40  0.500  0.500  0.167-  26 2.61  23 2.61  17 2.61  25 2.61  14 2.61  22 2.61  16 2.61  13 2.61
                            31 2.75  37 2.75  43 2.75  49 2.75
  41  0.500  0.500  0.500-  27 2.61  24 2.61  18 2.61  26 2.61  15 2.61  23 2.61  17 2.61  14 2.61
                            32 2.75  38 2.75  44 2.75  50 2.75
  42  0.500  0.500  0.833-  25 2.61  27 2.61  22 2.61  24 2.61  16 2.61  18 2.61  13 2.61  15 2.61
                            33 2.75  39 2.75  45 2.75  51 2.75
  43  0.500  0.833  0.167-  20 2.61  26 2.61  11 2.61  17 2.61  25 2.61  19 2.61  16 2.61  10 2.61
                            34 2.75  40 2.75  52 2.75  37 2.75
  44  0.500  0.833  0.500-  21 2.61  27 2.61  12 2.61  18 2.61  26 2.61  20 2.61  17 2.61  11 2.61
                            35 2.75  41 2.75  53 2.75  38 2.75
  45  0.500  0.833  0.833-  19 2.61  21 2.61  25 2.61  27 2.61  10 2.61  12 2.61  16 2.61  18 2.61
                            36 2.75  42 2.75  54 2.75  39 2.75
  46  0.833  0.167  0.167-   5 2.61  23 2.61  20 2.61   2 2.61  22 2.61   4 2.61  19 2.61   1 2.61
                            37 2.75  49 2.75  28 2.75  52 2.75
  47  0.833  0.167  0.500-   6 2.61  24 2.61  21 2.61   3 2.61  23 2.61   5 2.61  20 2.61   2 2.61
                            38 2.75  50 2.75  29 2.75  53 2.75
  48  0.833  0.167  0.833-   4 2.61   6 2.61  22 2.61  24 2.61  19 2.61  21 2.61   1 2.61   3 2.61
                            39 2.75  51 2.75  30 2.75  54 2.75
  49  0.833  0.500  0.167-   8 2.61  26 2.61  23 2.61   5 2.61  25 2.61   7 2.61  22 2.61   4 2.61
                            40 2.75  46 2.75  52 2.75  31 2.75
  50  0.833  0.500  0.500-   9 2.61  27 2.61  24 2.61   6 2.61  26 2.61   8 2.61  23 2.61   5 2.61
                            41 2.75  47 2.75  53 2.75  32 2.75
  51  0.833  0.500  0.833-   7 2.61   9 2.61  25 2.61  27 2.61  22 2.61  24 2.61   4 2.61   6 2.61
                            42 2.75  48 2.75  54 2.75  33 2.75
  52  0.833  0.833  0.167-   2 2.61   8 2.61  20 2.61  26 2.61  19 2.61   7 2.61  25 2.61   1 2.61
                            43 2.75  49 2.75  46 2.75  34 2.75
  53  0.833  0.833  0.500-   3 2.61   9 2.61  21 2.61  27 2.61  20 2.61   8 2.61  26 2.61   2 2.61
                            44 2.75  50 2.75  47 2.75  35 2.75
  54  0.833  0.833  0.833-   1 2.61   3 2.61   7 2.61   9 2.61  19 2.61  21 2.61  25 2.61  27 2.61
                            45 2.75  51 2.75  48 2.75  36 2.75
 
  LATTYP: Found a simple tetragonal cell.
 ALAT       =     8.2501481662
 C/A-ratio  =     1.2642089792
  
  Lattice vectors:
  
 A1 = (   8.2501481662,   0.0000000000,   0.0000000000)
 A2 = (   0.0000000000,   8.2501481662,   0.0000000000)
 A3 = (   0.0000000000,   0.0000000000,  10.4299113916)


Analysis of symmetry for initial positions (statically):
=====================================================================
 Subroutine PRICEL returns following result:
 
  LATTYP: Found a simple tetragonal cell.
 ALAT       =     2.7500493888
 C/A-ratio  =     1.2642089792
  
  Lattice vectors:
  
 A1 = (   2.7500493888,   0.0000000000,   0.0000000000)
 A2 = (   0.0000000000,   2.7500493888,   0.0000000000)
 A3 = (   0.0000000000,   0.0000000000,   3.4766371306)
 
  27 primitive cells build up your supercell.
 

 Routine SETGRP: Setting up the symmetry group for a 
 simple tetragonal supercell.


 Subroutine GETGRP returns: Found 16 space group operations
 (whereof 16 operations were pure point group operations)
 out of a pool of 16 trial point group operations.


The static configuration has the point symmetry D_4h.


Analysis of symmetry for dynamics (positions and initial velocities):
=====================================================================
 Subroutine PRICEL returns following result:
 
  LATTYP: Found a simple tetragonal cell.
 ALAT       =     2.7500493888
 C/A-ratio  =     1.2642089792
  
  Lattice vectors:
  
 A1 = (   2.7500493888,   0.0000000000,   0.0000000000)
 A2 = (   0.0000000000,   2.7500493888,   0.0000000000)
 A3 = (   0.0000000000,   0.0000000000,   3.4766371306)
 
  27 primitive cells build up your supercell.
 

 Routine SETGRP: Setting up the symmetry group for a 
 simple tetragonal supercell.


 Subroutine GETGRP returns: Found 16 space group operations
 (whereof 16 operations were pure point group operations)
 out of a pool of 16 trial point group operations.


The dynamic configuration has the point symmetry D_4h.


Analysis of structural, dynamic, and magnetic symmetry:
=====================================================================
 Subroutine PRICEL returns:
 Original cell was already a primitive cell.
 

 Routine SETGRP: Setting up the symmetry group for a 
 simple tetragonal supercell.


 Subroutine GETGRP returns: Found  2 space group operations
 (whereof  1 operations were pure point group operations)
 out of a pool of 16 trial point group operations.


The magnetic configuration has the point symmetry C_1 .
 The point group associated with its full space group is C_1h.


 Subroutine INISYM returns: Found  2 space group operations
 (whereof  1 operations are pure point group operations),
 and found     1 'primitive' translations

 
 
 KPOINTS: automatic KPOINTS                       

Automatic generation of k-mesh.
 generate k-points for:    5    5    4
Space group operators:
 irot       det(A)        alpha          n_x          n_y          n_z        tau_x        tau_y        tau_z
    1     1.000000     0.000001     1.000000     0.000000     0.000000     0.000000     0.000000     0.000000
    2    -1.000000   180.000000     1.000000     0.000000     0.000000     0.666667     0.000000     0.000000
 
 Subroutine IBZKPT returns following result:
 ===========================================
 
 Found     33 irreducible k-points:
 
 Following reciprocal coordinates:
            Coordinates               Weight
  0.000000  0.000000  0.000000      1.000000
  0.200000  0.000000  0.000000      2.000000
  0.400000  0.000000  0.000000      2.000000
  0.000000  0.200000  0.000000      2.000000
  0.200000  0.200000  0.000000      4.000000
  0.400000  0.200000  0.000000      4.000000
  0.000000  0.400000  0.000000      2.000000
  0.200000  0.400000  0.000000      4.000000
  0.400000  0.400000  0.000000      4.000000
  0.000000  0.000000  0.250000      2.000000
  0.200000  0.000000  0.250000      4.000000
  0.400000  0.000000  0.250000      4.000000
  0.000000  0.200000  0.250000      2.000000
  0.200000  0.200000  0.250000      4.000000
  0.400000  0.200000  0.250000      4.000000
  0.000000  0.400000  0.250000      2.000000
  0.200000  0.400000  0.250000      4.000000
  0.400000  0.400000  0.250000      4.000000
  0.000000 -0.400000  0.250000      2.000000
  0.200000 -0.400000  0.250000      4.000000
  0.400000 -0.400000  0.250000      4.000000
  0.000000 -0.200000  0.250000      2.000000
  0.200000 -0.200000  0.250000      4.000000
  0.400000 -0.200000  0.250000      4.000000
  0.000000  0.000000  0.500000      1.000000
  0.200000  0.000000  0.500000      2.000000
  0.400000  0.000000  0.500000      2.000000
  0.000000  0.200000  0.500000      2.000000
  0.200000  0.200000  0.500000      4.000000
  0.400000  0.200000  0.500000      4.000000
  0.000000  0.400000  0.500000      2.000000
  0.200000  0.400000  0.500000      4.000000
  0.400000  0.400000  0.500000      4.000000
 
 Following cartesian coordinates:
            Coordinates               Weight
  0.000000  0.000000  0.000000      1.000000
  0.024242  0.000000  0.000000      2.000000
  0.048484  0.000000  0.000000      2.000000
  0.000000  0.024242  0.000000      2.000000
  0.024242  0.024242  0.000000      4.000000
  0.048484  0.024242  0.000000      4.000000
  0.000000  0.048484  0.000000      2.000000
  0.024242  0.048484  0.000000      4.000000
  0.048484  0.048484  0.000000      4.000000
  0.000000  0.000000  0.023970      2.000000
  0.024242  0.000000  0.023970      4.000000
  0.048484  0.000000  0.023970      4.000000
  0.000000  0.024242  0.023970      2.000000
  0.024242  0.024242  0.023970      4.000000
  0.048484  0.024242  0.023970      4.000000
  0.000000  0.048484  0.023970      2.000000
  0.024242  0.048484  0.023970      4.000000
  0.048484  0.048484  0.023970      4.000000
  0.000000 -0.048484  0.023970      2.000000
  0.024242 -0.048484  0.023970      4.000000
  0.048484 -0.048484  0.023970      4.000000
  0.000000 -0.024242  0.023970      2.000000
  0.024242 -0.024242  0.023970      4.000000
  0.048484 -0.024242  0.023970      4.000000
  0.000000  0.000000  0.047939      1.000000
  0.024242  0.000000  0.047939      2.000000
  0.048484  0.000000  0.047939      2.000000
  0.000000  0.024242  0.047939      2.000000
  0.024242  0.024242  0.047939      4.000000
  0.048484  0.024242  0.047939      4.000000
  0.000000  0.048484  0.047939      2.000000
  0.024242  0.048484  0.047939      4.000000
  0.048484  0.048484  0.047939      4.000000
 


--------------------------------------------------------------------------------------------------------




 Dimension of arrays:
   k-points           NKPTS =     33   k-points in BZ     NKDIM =     33   number of bands    NBANDS=    178
   number of dos      NEDOS =    301   number of ions     NIONS =     54
   non local maximal  LDIM  =      6   non local SUM 2l+1 LMDIM =     18
   total plane-waves  NPLWV = 204120
   max r-space proj   IRMAX =      1   max aug-charges    IRDMAX=  89713
   dimension x,y,z NGX =    54 NGY =   54 NGZ =   70
   dimension x,y,z NGXF=   108 NGYF=  108 NGZF=  140
   support grid    NGXF=   216 NGYF=  216 NGZF=  280
   ions per type =              27  27
   NGX,Y,Z   is equivalent  to a cutoff of  10.88, 10.88, 11.16 a.u.
   NGXF,Y,Z  is equivalent  to a cutoff of  21.76, 21.76, 22.32 a.u.

 SYSTEM =  AlMn_pv                                 
 POSCAR =  NewRef: 27, @ ['Mn', array([1.37502469, 

 Startparameter for this run:
   NWRITE =      2    write-flag & timer
   PREC   = accura    normal or accurate (medium, high low for compatibility)
   ISTART =      0    job   : 0-new  1-cont  2-samecut
   ICHARG =      2    charge: 1-file 2-atom 10-const
   ISPIN  =      2    spin polarized calculation?
   LNONCOLLINEAR =      F non collinear calculations
   LSORBIT =      F    spin-orbit coupling
   INIWAV =      1    electr: 0-lowe 1-rand  2-diag
   LASPH  =      F    aspherical Exc in radial PAW
   METAGGA=      F    non-selfconsistent MetaGGA calc.

 Electronic Relaxation 1
   ENCUT  =  404.8 eV  29.75 Ry    5.45 a.u.  13.53 13.53 17.11*2*pi/ulx,y,z
   ENINI  =  404.8     initial cutoff
   ENAUG  =  500.7 eV  augmentation charge cutoff
   NELM   =    100;   NELMIN=  4; NELMDL= -8     # of ELM steps 
   EDIFF  = 0.1E-06   stopping-criterion for ELM
   LREAL  =      F    real-space projection
   NLSPLINE    = F    spline interpolate recip. space projectors
   LCOMPAT=      F    compatible to vasp.4.4
   GGA_COMPAT  = T    GGA compatible to vasp.4.4-vasp.4.6
   LMAXPAW     = -100 max onsite density
   LMAXMIX     =    2 max onsite mixed and CHGCAR
   VOSKOWN=      0    Vosko Wilk Nusair interpolation
   ROPT   =    0.00000   0.00000
 Ionic relaxation
   EDIFFG = 0.1E-05   stopping-criterion for IOM
   NSW    =      0    number of steps for IOM
   NBLOCK =      1;   KBLOCK =      1    inner block; outer block 
   IBRION =     -1    ionic relax: 0-MD 1-quasi-New 2-CG
   NFREE  =      0    steps in history (QN), initial steepest desc. (CG)
   ISIF   =      2    stress and relaxation
   IWAVPR =     10    prediction:  0-non 1-charg 2-wave 3-comb
   ISYM   =      2    0-nonsym 1-usesym 2-fastsym
   LCORR  =      T    Harris-Foulkes like correction to forces

   POTIM  = 0.2000    time-step for ionic-motion
   TEIN   =    0.0    initial temperature
   TEBEG  =    0.0;   TEEND  =   0.0 temperature during run
   SMASS  =  -3.00    Nose mass-parameter (am)
   estimated Nose-frequenzy (Omega)   =  0.10E-29 period in steps =****** mass=  -0.156E-26a.u.
   SCALEE = 1.0000    scale energy and forces
   NPACO  =    256;   APACO  = 16.0  distance and # of slots for P.C.
   PSTRESS=    0.0 pullay stress

  Mass of Ions in am
   POMASS =  26.98 54.94
  Ionic Valenz
   ZVAL   =   3.00  7.00
  Atomic Wigner-Seitz radii
   RWIGS  =  -1.00 -1.00
  virtual crystal weights 
   VCA    =   1.00  1.00
   NELECT =     270.0000    total number of electrons
   NUPDOWN=      -1.0000    fix difference up-down

 DOS related values:
   EMIN   =  10.00;   EMAX   =-10.00  energy-range for DOS
   EFERMI =   0.00
   ISMEAR =     1;   SIGMA  =   0.20  broadening in eV -4-tet -1-fermi 0-gaus

 Electronic relaxation 2 (details)
   IALGO  =     58    algorithm
   LDIAG  =      T    sub-space diagonalisation (order eigenvalues)
   LSUBROT=      F    optimize rotation matrix (better conditioning)
   TURBO    =      0    0=normal 1=particle mesh
   IRESTART =      0    0=no restart 2=restart with 2 vectors
   NREBOOT  =      0    no. of reboots
   NMIN     =      0    reboot dimension
   EREF     =   0.00    reference energy to select bands
   IMIX   =      4    mixing-type and parameters
     AMIX     =   0.40;   BMIX     =  1.00
     AMIX_MAG =   1.60;   BMIX_MAG =  1.00
     AMIN     =   0.10
     WC   =   100.;   INIMIX=   1;  MIXPRE=   1;  MAXMIX= -45

 Intra band minimization:
   WEIMIN = 0.0000     energy-eigenvalue tresh-hold
   EBREAK =  0.14E-09  absolut break condition
   DEPER  =   0.30     relativ break condition  

   TIME   =   0.40     timestep for ELM

  volume/ion in A,a.u.               =      13.15        88.72
  Fermi-wavevector in a.u.,A,eV,Ry     =   1.186118  2.241439 19.141722  1.406877
  Thomas-Fermi vector in A             =   2.322298
 
 Write flags
   LWAVE        =      F    write WAVECAR
   LDOWNSAMPLE  =      F    k-point downsampling of WAVECAR
   LCHARG       =      F    write CHGCAR
   LVTOT        =      F    write LOCPOT, total local potential
   LVHAR        =      F    write LOCPOT, Hartree potential only
   LELF         =      F    write electronic localiz. function (ELF)
   LORBIT       =     10    0 simple, 1 ext, 2 COOP (PROOUT), +10 PAW based schemes


 Dipole corrections
   LMONO  =      F    monopole corrections only (constant potential shift)
   LDIPOL =      F    correct potential (dipole corrections)
   IDIPOL =      0    1-x, 2-y, 3-z, 4-all directions 
   EPSILON=  1.0000000 bulk dielectric constant

 Exchange correlation treatment:
   GGA     =    --    GGA type
   LEXCH   =     8    internal setting for exchange type
   VOSKOWN=      0    Vosko Wilk Nusair interpolation
   LHFCALC =     F    Hartree Fock is set to
   LHFONE  =     F    Hartree Fock one center treatment
   AEXX    =    0.0000 exact exchange contribution

 Linear response parameters
   LEPSILON=     F    determine dielectric tensor
   LRPA    =     F    only Hartree local field effects (RPA)
   LNABLA  =     F    use nabla operator in PAW spheres
   LVEL    =     F    velocity operator in full k-point grid
   LINTERFAST=   F  fast interpolation
   KINTER  =     0    interpolate to denser k-point grid
   CSHIFT  =0.1000    complex shift for real part using Kramers Kronig
   OMEGAMAX=  -1.0    maximum frequency
   DEG_THRESHOLD= 0.2000000E-02 threshold for treating states as degnerate
   RTIME   =   -0.100 relaxation time in fs
  (WPLASMAI=    0.000 imaginary part of plasma frequency in eV, 0.658/RTIME)
   DFIELD  = 0.0000000 0.0000000 0.0000000 field for delta impulse in time
 
 Orbital magnetization related:
   ORBITALMAG=     F  switch on orbital magnetization
   LCHIMAG   =     F  perturbation theory with respect to B field
   DQ        =  0.001000  dq finite difference perturbation B field
   LLRAUG    =     F  two centre corrections for induced B field



--------------------------------------------------------------------------------------------------------


 Static calculation
 charge density and potential will be updated during run
 spin polarized calculation
 Conjugate gradient for all bands (Freysoldt, et al. PRB 79, 241103 (2009))
 preconditioned conjugated gradient                                        
 perform sub-space diagonalisation
    before iterative eigenvector-optimisation
 modified Broyden-mixing scheme, WC =      100.0
 initial mixing is a Kerker type mixing with AMIX =  0.4000 and BMIX =      1.0000
 Hartree-type preconditioning will be used
 using additional bands           43
 reciprocal scheme for non local part
 use partial core corrections
 no Harris-corrections to forces 
 use gradient corrections 
 use of overlap-Matrix (Vanderbilt PP)
 Methfessel and Paxton  Order N= 1 SIGMA  =   0.20


--------------------------------------------------------------------------------------------------------


  energy-cutoff  :      404.80
  volume of cell :      709.91
      direct lattice vectors                 reciprocal lattice vectors
     8.250148166  0.000000000  0.000000000     0.121209944  0.000000000  0.000000000
     0.000000000  8.250148166  0.000000000     0.000000000  0.121209944  0.000000000
     0.000000000  0.000000000 10.429911392     0.000000000  0.000000000  0.095878092

  length of vectors
     8.250148166  8.250148166 10.429911392     0.121209944  0.121209944  0.095878092


 
 k-points in units of 2pi/SCALE and weight: automatic KPOINTS                       
   0.00000000  0.00000000  0.00000000       0.010
   0.02424199  0.00000000  0.00000000       0.020
   0.04848398  0.00000000  0.00000000       0.020
   0.00000000  0.02424199  0.00000000       0.020
   0.02424199  0.02424199  0.00000000       0.040
   0.04848398  0.02424199  0.00000000       0.040
   0.00000000  0.04848398  0.00000000       0.020
   0.02424199  0.04848398  0.00000000       0.040
   0.04848398  0.04848398  0.00000000       0.040
   0.00000000  0.00000000  0.02396952       0.020
   0.02424199  0.00000000  0.02396952       0.040
   0.04848398  0.00000000  0.02396952       0.040
   0.00000000  0.02424199  0.02396952       0.020
   0.02424199  0.02424199  0.02396952       0.040
   0.04848398  0.02424199  0.02396952       0.040
   0.00000000  0.04848398  0.02396952       0.020
   0.02424199  0.04848398  0.02396952       0.040
   0.04848398  0.04848398  0.02396952       0.040
   0.00000000 -0.04848398  0.02396952       0.020
   0.02424199 -0.04848398  0.02396952       0.040
   0.04848398 -0.04848398  0.02396952       0.040
   0.00000000 -0.02424199  0.02396952       0.020
   0.02424199 -0.02424199  0.02396952       0.040
   0.04848398 -0.02424199  0.02396952       0.040
   0.00000000  0.00000000  0.04793905       0.010
   0.02424199  0.00000000  0.04793905       0.020
   0.04848398  0.00000000  0.04793905       0.020
   0.00000000  0.02424199  0.04793905       0.020
   0.02424199  0.02424199  0.04793905       0.040
   0.04848398  0.02424199  0.04793905       0.040
   0.00000000  0.04848398  0.04793905       0.020
   0.02424199  0.04848398  0.04793905       0.040
   0.04848398  0.04848398  0.04793905       0.040
 
 k-points in reciprocal lattice and weights: automatic KPOINTS                       
   0.00000000  0.00000000  0.00000000       0.010
   0.20000000  0.00000000  0.00000000       0.020
   0.40000000  0.00000000  0.00000000       0.020
   0.00000000  0.20000000  0.00000000       0.020
   0.20000000  0.20000000  0.00000000       0.040
   0.40000000  0.20000000  0.00000000       0.040
   0.00000000  0.40000000  0.00000000       0.020
   0.20000000  0.40000000  0.00000000       0.040
   0.40000000  0.40000000  0.00000000       0.040
   0.00000000  0.00000000  0.25000000       0.020
   0.20000000  0.00000000  0.25000000       0.040
   0.40000000  0.00000000  0.25000000       0.040
   0.00000000  0.20000000  0.25000000       0.020
   0.20000000  0.20000000  0.25000000       0.040
   0.40000000  0.20000000  0.25000000       0.040
   0.00000000  0.40000000  0.25000000       0.020
   0.20000000  0.40000000  0.25000000       0.040
   0.40000000  0.40000000  0.25000000       0.040
   0.00000000 -0.40000000  0.25000000       0.020
   0.20000000 -0.40000000  0.25000000       0.040
   0.40000000 -0.40000000  0.25000000       0.040
   0.00000000 -0.20000000  0.25000000       0.020
   0.20000000 -0.20000000  0.25000000       0.040
   0.40000000 -0.20000000  0.25000000       0.040
   0.00000000  0.00000000  0.50000000       0.010
   0.20000000  0.00000000  0.50000000       0.020
   0.40000000  0.00000000  0.50000000       0.020
   0.00000000  0.20000000  0.50000000       0.020
   0.20000000  0.20000000  0.50000000       0.040
   0.40000000  0.20000000  0.50000000       0.040
   0.00000000  0.40000000  0.50000000       0.020
   0.20000000  0.40000000  0.50000000       0.040
   0.40000000  0.40000000  0.50000000       0.040
 
 position of ions in fractional coordinates (direct lattice) 
   0.00000000  0.00000000  0.00000000
   0.00000000  0.00000000  0.33333333
   0.00000000  0.00000000  0.66666667
   0.00000000  0.33333333  0.00000000
   0.00000000  0.33333333  0.33333333
   0.00000000  0.33333333  0.66666667
   0.00000000  0.66666667  0.00000000
   0.00000000  0.66666667  0.33333333
   0.00000000  0.66666667  0.66666667
   0.33333333  0.00000000  0.00000000
   0.33333333  0.00000000  0.33333333
   0.33333333  0.00000000  0.66666667
   0.33333333  0.33333333  0.00000000
   0.33333333  0.33333333  0.33333333
   0.33333333  0.33333333  0.66666667
   0.33333333  0.66666667  0.00000000
   0.33333333  0.66666667  0.33333333
   0.33333333  0.66666667  0.66666667
   0.66666667  0.00000000  0.00000000
   0.66666667  0.00000000  0.33333333
   0.66666667  0.00000000  0.66666667
   0.66666667  0.33333333  0.00000000
   0.66666667  0.33333333  0.33333333
   0.66666667  0.33333333  0.66666667
   0.66666667  0.66666667  0.00000000
   0.66666667  0.66666667  0.33333333
   0.66666667  0.66666667  0.66666667
   0.16666667  0.16666667  0.16666667
   0.16666667  0.16666667  0.50000000
   0.16666667  0.16666667  0.83333333
   0.16666667  0.50000000  0.16666667
   0.16666667  0.50000000  0.50000000
   0.16666667  0.50000000  0.83333333
   0.16666667  0.83333333  0.16666667
   0.16666667  0.83333333  0.50000000
   0.16666667  0.83333333  0.83333333
   0.50000000  0.16666667  0.16666667
   0.50000000  0.16666667  0.50000000
   0.50000000  0.16666667  0.83333333
   0.50000000  0.50000000  0.16666667
   0.50000000  0.50000000  0.50000000
   0.50000000  0.50000000  0.83333333
   0.50000000  0.83333333  0.16666667
   0.50000000  0.83333333  0.50000000
   0.50000000  0.83333333  0.83333333
   0.83333333  0.16666667  0.16666667
   0.83333333  0.16666667  0.50000000
   0.83333333  0.16666667  0.83333333
   0.83333333  0.50000000  0.16666667
   0.83333333  0.50000000  0.50000000
   0.83333333  0.50000000  0.83333333
   0.83333333  0.83333333  0.16666667
   0.83333333  0.83333333  0.50000000
   0.83333333  0.83333333  0.83333333
 
 position of ions in cartesian coordinates  (Angst):
   0.00000000  0.00000000  0.00000000
   0.00000000  0.00000000  3.47663713
   0.00000000  0.00000000  6.95327426
   0.00000000  2.75004939  0.00000000
   0.00000000  2.75004939  3.47663713
   0.00000000  2.75004939  6.95327426
   0.00000000  5.50009878  0.00000000
   0.00000000  5.50009878  3.47663713
   0.00000000  5.50009878  6.95327426
   2.75004939  0.00000000  0.00000000
   2.75004939  0.00000000  3.47663713
   2.75004939  0.00000000  6.95327426
   2.75004939  2.75004939  0.00000000
   2.75004939  2.75004939  3.47663713
   2.75004939  2.75004939  6.95327426
   2.75004939  5.50009878  0.00000000
   2.75004939  5.50009878  3.47663713
   2.75004939  5.50009878  6.95327426
   5.50009878  0.00000000  0.00000000
   5.50009878  0.00000000  3.47663713
   5.50009878  0.00000000  6.95327426
   5.50009878  2.75004939  0.00000000
   5.50009878  2.75004939  3.47663713
   5.50009878  2.75004939  6.95327426
   5.50009878  5.50009878  0.00000000
   5.50009878  5.50009878  3.47663713
   5.50009878  5.50009878  6.95327426
   1.37502469  1.37502469  1.73831857
   1.37502469  1.37502469  5.21495570
   1.37502469  1.37502469  8.69159283
   1.37502469  4.12507408  1.73831857
   1.37502469  4.12507408  5.21495570
   1.37502469  4.12507408  8.69159283
   1.37502469  6.87512347  1.73831857
   1.37502469  6.87512347  5.21495570
   1.37502469  6.87512347  8.69159283
   4.12507408  1.37502469  1.73831857
   4.12507408  1.37502469  5.21495570
   4.12507408  1.37502469  8.69159283
   4.12507408  4.12507408  1.73831857
   4.12507408  4.12507408  5.21495570
   4.12507408  4.12507408  8.69159283
   4.12507408  6.87512347  1.73831857
   4.12507408  6.87512347  5.21495570
   4.12507408  6.87512347  8.69159283
   6.87512347  1.37502469  1.73831857
   6.87512347  1.37502469  5.21495570
   6.87512347  1.37502469  8.69159283
   6.87512347  4.12507408  1.73831857
   6.87512347  4.12507408  5.21495570
   6.87512347  4.12507408  8.69159283
   6.87512347  6.87512347  1.73831857
   6.87512347  6.87512347  5.21495570
   6.87512347  6.87512347  8.69159283
 


--------------------------------------------------------------------------------------------------------


 k-point  1 :   0.0000 0.0000 0.0000  plane waves:   13099
 k-point  2 :   0.2000 0.0000 0.0000  plane waves:   13101
 k-point  3 :   0.4000 0.0000 0.0000  plane waves:   13111
 k-point  4 :   0.0000 0.2000 0.0000  plane waves:   13101
 k-point  5 :   0.2000 0.2000 0.0000  plane waves:   13137
 k-point  6 :   0.4000 0.2000 0.0000  plane waves:   13119
 k-point  7 :   0.0000 0.4000 0.0000  plane waves:   13111
 k-point  8 :   0.2000 0.4000 0.0000  plane waves:   13119
 k-point  9 :   0.4000 0.4000 0.0000  plane waves:   13129
 k-point 10 :   0.0000 0.0000 0.2500  plane waves:   13134
 k-point 11 :   0.2000 0.0000 0.2500  plane waves:   13149
 k-point 12 :   0.4000 0.0000 0.2500  plane waves:   13119
 k-point 13 :   0.0000 0.2000 0.2500  plane waves:   13149
 k-point 14 :   0.2000 0.2000 0.2500  plane waves:   13145
 k-point 15 :   0.4000 0.2000 0.2500  plane waves:   13134
 k-point 16 :   0.0000 0.4000 0.2500  plane waves:   13119
 k-point 17 :   0.2000 0.4000 0.2500  plane waves:   13134
 k-point 18 :   0.4000 0.4000 0.2500  plane waves:   13108
 k-point 19 :   0.0000-0.4000 0.2500  plane waves:   13119
 k-point 20 :   0.2000-0.4000 0.2500  plane waves:   13134
 k-point 21 :   0.4000-0.4000 0.2500  plane waves:   13108
 k-point 22 :   0.0000-0.2000 0.2500  plane waves:   13149
 k-point 23 :   0.2000-0.2000 0.2500  plane waves:   13145
 k-point 24 :   0.4000-0.2000 0.2500  plane waves:   13134
 k-point 25 :   0.0000 0.0000 0.5000  plane waves:   13186
 k-point 26 :   0.2000 0.0000 0.5000  plane waves:   13124
 k-point 27 :   0.4000 0.0000 0.5000  plane waves:   13152
 k-point 28 :   0.0000 0.2000 0.5000  plane waves:   13124
 k-point 29 :   0.2000 0.2000 0.5000  plane waves:   13136
 k-point 30 :   0.4000 0.2000 0.5000  plane waves:   13128
 k-point 31 :   0.0000 0.4000 0.5000  plane waves:   13152
 k-point 32 :   0.2000 0.4000 0.5000  plane waves:   13128
 k-point 33 :   0.4000 0.4000 0.5000  plane waves:   13112

 maximum and minimum number of plane-waves per node :      3313     3254

 maximum number of plane-waves:     13186
 maximum index in each direction: 
   IXMAX=   13   IYMAX=   13   IZMAX=   17
   IXMIN=  -13   IYMIN=  -13   IZMIN=  -17


 parallel 3D FFT for wavefunctions:
    minimum data exchange during FFTs selected (reduces bandwidth)
 parallel 3D FFT for charge:
    minimum data exchange during FFTs selected (reduces bandwidth)


 total amount of memory used by VASP MPI-rank0  1099370. kBytes
=======================================================================

   base      :      30000. kBytes
   nonl-proj :      34214. kBytes
   fftplans  :      31580. kBytes
   grid      :      21385. kBytes
   one-center:        435. kBytes
   wavefun   :     981756. kBytes
 
     INWAV:  cpu time    0.0000: real time    0.0000
 Broyden mixing: mesh for mixing (old mesh)
   NGX = 27   NGY = 27   NGZ = 35
  (NGX  =108   NGY  =108   NGZ  =140)
  gives a total of  25515 points

 initial charge density was supplied:
 charge density of overlapping atoms calculated
 number of electron     270.0000000 magnetization      27.0000000
 keeping initial charge density in first step


--------------------------------------------------------------------------------------------------------


 Maximum index for augmentation-charges        10967 (set IRDMAX)


--------------------------------------------------------------------------------------------------------


 First call to EWALD:  gamma=   0.199
 Maximum number of real-space cells 3x 3x 2
 Maximum number of reciprocal cells 3x 3x 3

    FEWALD:  cpu time    0.0211: real time    0.0211


--------------------------------------- Iteration      1(   1)  ---------------------------------------


    POTLOK:  cpu time    0.3964: real time    0.3976
    SETDIJ:  cpu time    0.5106: real time    0.5114
    TRIAL :  cpu time   40.8716: real time   41.2778
    CORREC:  cpu time    0.0069: real time    0.0077
    --------------------------------------------
      LOOP:  cpu time   42.1178: real time   42.5341

 eigenvalue-minimisations  : 23496
 total energy-change (2. order) : 0.2031800E+04  (-0.8883754E+04)
 number of electron     270.0000000 magnetization      27.0000000
 augmentation part      270.0000000 magnetization      27.0000000

 Free energy of the ion-electron system (eV)
  ---------------------------------------------------
  alpha Z        PSCENC =       798.38614055
  Ewald energy   TEWEN  =    -12901.57693327
  -Hartree energ DENC   =     -2855.60785864
  -exchange      EXHF   =         0.00000000
  -V(xc)+E(xc)   XCENC  =      -996.11142565
  PAW double counting   =     12741.82587617   -11476.22345381
  entropy T*S    EENTRO =         0.00142284
  eigenvalues    EBANDS =      4023.43191887
  atomic energy  EATOM  =     12697.67401269
  ---------------------------------------------------
  free energy    TOTEN  =      2031.79969974 eV

  energy without entropy =     2031.79827690  energy(sigma->0) =     2031.79922546


--------------------------------------------------------------------------------------------------------




--------------------------------------- Iteration      1(   2)  ---------------------------------------


    TRIAL :  cpu time   40.8552: real time   41.1353
    CORREC:  cpu time    0.0087: real time    0.0088
    --------------------------------------------
      LOOP:  cpu time   40.8653: real time   41.1473

 eigenvalue-minimisations  : 23496
 total energy-change (2. order) :-0.2136964E+04  (-0.2072338E+04)
 number of electron     270.0000000 magnetization      27.0000000
 augmentation part      270.0000000 magnetization      27.0000000

 Free energy of the ion-electron system (eV)
  ---------------------------------------------------
  alpha Z        PSCENC =       798.38614055
  Ewald energy   TEWEN  =    -12901.57693327
  -Hartree energ DENC   =     -2855.60785864
  -exchange      EXHF   =         0.00000000
  -V(xc)+E(xc)   XCENC  =      -996.11142565
  PAW double counting   =     12741.82587617   -11476.22345381
  entropy T*S    EENTRO =         0.00131182
  eigenvalues    EBANDS =      1886.46816261
  atomic energy  EATOM  =     12697.67401269
  ---------------------------------------------------
  free energy    TOTEN  =      -105.16416755 eV

  energy without entropy =     -105.16547936  energy(sigma->0) =     -105.16460482


--------------------------------------------------------------------------------------------------------




--------------------------------------- Iteration      1(   3)  ---------------------------------------


    TRIAL :  cpu time   55.7142: real time   56.1283
    CORREC:  cpu time    0.0101: real time    0.0109
    --------------------------------------------
      LOOP:  cpu time   55.7257: real time   56.1430

 eigenvalue-minimisations  : 35170
 total energy-change (2. order) :-0.2547429E+03  (-0.2225639E+03)
 number of electron     270.0000000 magnetization      27.0000000
 augmentation part      270.0000000 magnetization      27.0000000

 Free energy of the ion-electron system (eV)
  ---------------------------------------------------
  alpha Z        PSCENC =       798.38614055
  Ewald energy   TEWEN  =    -12901.57693327
  -Hartree energ DENC   =     -2855.60785864
  -exchange      EXHF   =         0.00000000
  -V(xc)+E(xc)   XCENC  =      -996.11142565
  PAW double counting   =     12741.82587617   -11476.22345381
  entropy T*S    EENTRO =         0.00426501
  eigenvalues    EBANDS =      1631.72229955
  atomic energy  EATOM  =     12697.67401269
  ---------------------------------------------------
  free energy    TOTEN  =      -359.90707741 eV

  energy without entropy =     -359.91134242  energy(sigma->0) =     -359.90849908


--------------------------------------------------------------------------------------------------------




--------------------------------------- Iteration      1(   4)  ---------------------------------------


    TRIAL :  cpu time   59.7943: real time   60.1500
    CORREC:  cpu time    0.0107: real time    0.0114
    --------------------------------------------
      LOOP:  cpu time   59.8083: real time   60.1651

 eigenvalue-minimisations  : 38240
 total energy-change (2. order) :-0.4023762E+02  (-0.3511188E+02)
 number of electron     270.0000000 magnetization      27.0000000
 augmentation part      270.0000000 magnetization      27.0000000

 Free energy of the ion-electron system (eV)
  ---------------------------------------------------
  alpha Z        PSCENC =       798.38614055
  Ewald energy   TEWEN  =    -12901.57693327
  -Hartree energ DENC   =     -2855.60785864
  -exchange      EXHF   =         0.00000000
  -V(xc)+E(xc)   XCENC  =      -996.11142565
  PAW double counting   =     12741.82587617   -11476.22345381
  entropy T*S    EENTRO =         0.00847383
  eigenvalues    EBANDS =      1591.48047199
  atomic energy  EATOM  =     12697.67401269
  ---------------------------------------------------
  free energy    TOTEN  =      -400.14469615 eV

  energy without entropy =     -400.15316998  energy(sigma->0) =     -400.14752076


--------------------------------------------------------------------------------------------------------




--------------------------------------- Iteration      1(   5)  ---------------------------------------


    TRIAL :  cpu time   60.4107: real time   60.8345
    CORREC:  cpu time    0.0106: real time    0.0113
    --------------------------------------------
      LOOP:  cpu time   60.4221: real time   60.8500

 eigenvalue-minimisations  : 38536
 total energy-change (2. order) :-0.3786863E+01  (-0.3610604E+01)
 number of electron     270.0000000 magnetization      27.0000000
 augmentation part      270.0000000 magnetization      27.0000000

 Free energy of the ion-electron system (eV)
  ---------------------------------------------------
  alpha Z        PSCENC =       798.38614055
  Ewald energy   TEWEN  =    -12901.57693327
  -Hartree energ DENC   =     -2855.60785864
  -exchange      EXHF   =         0.00000000
  -V(xc)+E(xc)   XCENC  =      -996.11142565
  PAW double counting   =     12741.82587617   -11476.22345381
  entropy T*S    EENTRO =         0.01009546
  eigenvalues    EBANDS =      1587.69198786
  atomic energy  EATOM  =     12697.67401269
  ---------------------------------------------------
  free energy    TOTEN  =      -403.93155866 eV

  energy without entropy =     -403.94165411  energy(sigma->0) =     -403.93492381


--------------------------------------------------------------------------------------------------------




--------------------------------------- Iteration      1(   6)  ---------------------------------------


    TRIAL :  cpu time   60.1977: real time   60.5815
    CORREC:  cpu time    0.0108: real time    0.0116
    --------------------------------------------
      LOOP:  cpu time   60.2095: real time   60.5966

 eigenvalue-minimisations  : 38456
 total energy-change (2. order) :-0.3061598E+00  (-0.3005375E+00)
 number of electron     270.0000000 magnetization      27.0000000
 augmentation part      270.0000000 magnetization      27.0000000

 Free energy of the ion-electron system (eV)
  ---------------------------------------------------
  alpha Z        PSCENC =       798.38614055
  Ewald energy   TEWEN  =    -12901.57693327
  -Hartree energ DENC   =     -2855.60785864
  -exchange      EXHF   =         0.00000000
  -V(xc)+E(xc)   XCENC  =      -996.11142565
  PAW double counting   =     12741.82587617   -11476.22345381
  entropy T*S    EENTRO =         0.00980807
  eigenvalues    EBANDS =      1587.38611544
  atomic energy  EATOM  =     12697.67401269
  ---------------------------------------------------
  free energy    TOTEN  =      -404.23771846 eV

  energy without entropy =     -404.24752653  energy(sigma->0) =     -404.24098782


--------------------------------------------------------------------------------------------------------




--------------------------------------- Iteration      1(   7)  ---------------------------------------


    TRIAL :  cpu time   61.1272: real time   61.5262
    CORREC:  cpu time    0.0109: real time    0.0117
    --------------------------------------------
      LOOP:  cpu time   61.1415: real time   61.5415

 eigenvalue-minimisations  : 39192
 total energy-change (2. order) :-0.3401573E-01  (-0.3374355E-01)
 number of electron     270.0000000 magnetization      27.0000000
 augmentation part      270.0000000 magnetization      27.0000000

 Free energy of the ion-electron system (eV)
  ---------------------------------------------------
  alpha Z        PSCENC =       798.38614055
  Ewald energy   TEWEN  =    -12901.57693327
  -Hartree energ DENC   =     -2855.60785864
  -exchange      EXHF   =         0.00000000
  -V(xc)+E(xc)   XCENC  =      -996.11142565
  PAW double counting   =     12741.82587617   -11476.22345381
  entropy T*S    EENTRO =         0.00978414
  eigenvalues    EBANDS =      1587.35212364
  atomic energy  EATOM  =     12697.67401269
  ---------------------------------------------------
  free energy    TOTEN  =      -404.27173419 eV

  energy without entropy =     -404.28151833  energy(sigma->0) =     -404.27499557


--------------------------------------------------------------------------------------------------------




--------------------------------------- Iteration      1(   8)  ---------------------------------------


    TRIAL :  cpu time   59.5209: real time   59.9119
    CORREC:  cpu time    0.0110: real time    0.0119
    CHARGE:  cpu time    1.8073: real time    1.8197
    --------------------------------------------
      LOOP:  cpu time   61.3412: real time   61.7471

 eigenvalue-minimisations  : 37760
 total energy-change (2. order) :-0.2870191E-02  (-0.2857356E-02)
 number of electron     269.9999995 magnetization      19.4418983
 augmentation part       64.2176584 magnetization      11.1888702

 Free energy of the ion-electron system (eV)
  ---------------------------------------------------
  alpha Z        PSCENC =       798.38614055
  Ewald energy   TEWEN  =    -12901.57693327
  -Hartree energ DENC   =     -2855.60785864
  -exchange      EXHF   =         0.00000000
  -V(xc)+E(xc)   XCENC  =      -996.11142565
  PAW double counting   =     12741.82587617   -11476.22345381
  entropy T*S    EENTRO =         0.00978371
  eigenvalues    EBANDS =      1587.34925388
  atomic energy  EATOM  =     12697.67401269
  ---------------------------------------------------
  free energy    TOTEN  =      -404.27460438 eV

  energy without entropy =     -404.28438809  energy(sigma->0) =     -404.27786561


--------------------------------------------------------------------------------------------------------




--------------------------------------- Iteration      1(   9)  ---------------------------------------


    POTLOK:  cpu time    0.3965: real time    0.3965
    SETDIJ:  cpu time    0.4602: real time    0.4602
    TRIAL :  cpu time   20.5267: real time   20.6684
    CORREC:  cpu time    6.1585: real time    6.2537
    CHARGE:  cpu time    1.8275: real time    1.8397
    --------------------------------------------
      LOOP:  cpu time   29.3874: real time   29.6366

 eigenvalue-minimisations  :     0
 total energy-change (2. order) : 0.2992194E+03  (-0.2185791E+03)
 number of electron     269.9999993 magnetization      20.5549703
 augmentation part       82.8516034 magnetization      13.5333673

 Free energy of the ion-electron system (eV)
  ---------------------------------------------------
  alpha Z        PSCENC =       798.38614055
  Ewald energy   TEWEN  =    -12901.57693327
  -Hartree energ DENC   =     -1273.43770809
  -exchange      EXHF   =         0.00000000
  -V(xc)+E(xc)   XCENC  =     -1041.48082376
  PAW double counting   =     19172.47169162   -17753.10298142
  entropy T*S    EENTRO =         0.02176579
  eigenvalues    EBANDS =       196.00159951
  atomic energy  EATOM  =     12697.67401269
  ---------------------------------------------------
  free energy    TOTEN  =      -105.05521847 eV

  energy without entropy =     -105.07698426  energy(sigma->0) =     -105.06247373


--------------------------------------------------------------------------------------------------------




--------------------------------------- Iteration      1(  10)  ---------------------------------------


    POTLOK:  cpu time    0.3907: real time    0.3907
    SETDIJ:  cpu time    0.5103: real time    0.5104
    TRIAL :  cpu time   21.0684: real time   21.1226
    CORREC:  cpu time    6.0940: real time    6.2777
    CHARGE:  cpu time    1.8109: real time    1.8231
    --------------------------------------------
      LOOP:  cpu time   29.8910: real time   30.1425

 eigenvalue-minimisations  :     0
 total energy-change (2. order) :-0.2146096E+03  (-0.1207945E+02)
 number of electron     269.9999993 magnetization      20.9330133
 augmentation part       86.9294349 magnetization      14.1425328

 Free energy of the ion-electron system (eV)
  ---------------------------------------------------
  alpha Z        PSCENC =       798.38614055
  Ewald energy   TEWEN  =    -12901.57693327
  -Hartree energ DENC   =     -2125.95757586
  -exchange      EXHF   =         0.00000000
  -V(xc)+E(xc)   XCENC  =     -1011.45947312
  PAW double counting   =     20760.35063360   -19526.35134490
  entropy T*S    EENTRO =         0.01476469
  eigenvalues    EBANDS =       989.24791807
  atomic energy  EATOM  =     12697.67401269
  ---------------------------------------------------
  free energy    TOTEN  =      -319.66485645 eV

  energy without entropy =     -319.67962114  energy(sigma->0) =     -319.66977801


--------------------------------------------------------------------------------------------------------




--------------------------------------- Iteration      1(  11)  ---------------------------------------


    POTLOK:  cpu time    0.3911: real time    0.3911
    SETDIJ:  cpu time    0.4802: real time    0.4801
    TRIAL :  cpu time   20.4609: real time   20.5953
    CORREC:  cpu time    6.1216: real time    6.2184
    CHARGE:  cpu time    1.8410: real time    1.8482
    --------------------------------------------
      LOOP:  cpu time   29.3385: real time   29.5779

 eigenvalue-minimisations  :     0
 total energy-change (2. order) :-0.1175917E+02  (-0.1087818E+02)
 number of electron     269.9999993 magnetization      21.3365329
 augmentation part       88.9428318 magnetization      14.6704958

 Free energy of the ion-electron system (eV)
  ---------------------------------------------------
  alpha Z        PSCENC =       798.38614055
  Ewald energy   TEWEN  =    -12901.57693327
  -Hartree energ DENC   =     -2374.94149234
  -exchange      EXHF   =         0.00000000
  -V(xc)+E(xc)   XCENC  =     -1002.52329004
  PAW double counting   =     21678.88187156   -20484.10180291
  entropy T*S    EENTRO =        -0.00344524
  eigenvalues    EBANDS =      1256.76269777
  atomic energy  EATOM  =     12697.67401269
  ---------------------------------------------------
  free energy    TOTEN  =      -331.42403129 eV

  energy without entropy =     -331.42058605  energy(sigma->0) =     -331.42288287


--------------------------------------------------------------------------------------------------------




--------------------------------------- Iteration      1(  12)  ---------------------------------------


    POTLOK:  cpu time    0.3914: real time    0.3914
    SETDIJ:  cpu time    0.4815: real time    0.4817
    TRIAL :  cpu time   21.0748: real time   21.1236
    CORREC:  cpu time    6.1242: real time    6.2891
    CHARGE:  cpu time    1.8234: real time    1.8234
    --------------------------------------------
      LOOP:  cpu time   29.8976: real time   30.1120

 eigenvalue-minimisations  :     0
 total energy-change (2. order) :-0.1092116E+02  (-0.1025305E+02)
 number of electron     269.9999993 magnetization      21.3155293
 augmentation part       87.1529208 magnetization      14.6950816

 Free energy of the ion-electron system (eV)
  ---------------------------------------------------
  alpha Z        PSCENC =       798.38614055
  Ewald energy   TEWEN  =    -12901.57693327
  -Hartree energ DENC   =     -2555.80868609
  -exchange      EXHF   =         0.00000000
  -V(xc)+E(xc)   XCENC  =      -996.57666843
  PAW double counting   =     21781.89354271   -20592.25025230
  entropy T*S    EENTRO =        -0.02403747
  eigenvalues    EBANDS =      1425.91709733
  atomic energy  EATOM  =     12697.67401269
  ---------------------------------------------------
  free energy    TOTEN  =      -342.34519204 eV

  energy without entropy =     -342.32115457  energy(sigma->0) =     -342.33717955


--------------------------------------------------------------------------------------------------------




--------------------------------------- Iteration      1(  13)  ---------------------------------------


    POTLOK:  cpu time    0.3864: real time    0.3944
    SETDIJ:  cpu time    0.5014: real time    0.5014
    TRIAL :  cpu time   20.4748: real time   20.5990
    CORREC:  cpu time    6.1044: real time    6.2323
    CHARGE:  cpu time    1.8325: real time    1.8449
    --------------------------------------------
      LOOP:  cpu time   29.3146: real time   29.5882

 eigenvalue-minimisations  :     0
 total energy-change (2. order) :-0.1030102E+02  (-0.1092968E+01)
 number of electron     269.9999993 magnetization      21.3949179
 augmentation part       86.4172109 magnetization      14.6921544

 Free energy of the ion-electron system (eV)
  ---------------------------------------------------
  alpha Z        PSCENC =       798.38614055
  Ewald energy   TEWEN  =    -12901.57693327
  -Hartree energ DENC   =     -2541.35920215
  -exchange      EXHF   =         0.00000000
  -V(xc)+E(xc)   XCENC  =      -997.94169962
  PAW double counting   =     21248.02816390   -20014.12264828
  entropy T*S    EENTRO =        -0.02789307
  eigenvalues    EBANDS =      1358.28999064
  atomic energy  EATOM  =     12697.67401269
  ---------------------------------------------------
  free energy    TOTEN  =      -352.64621301 eV

  energy without entropy =     -352.61831994  energy(sigma->0) =     -352.63691532


--------------------------------------------------------------------------------------------------------




--------------------------------------- Iteration      1(  14)  ---------------------------------------


    POTLOK:  cpu time    0.3917: real time    0.3917
    SETDIJ:  cpu time    0.4861: real time    0.4860
    TRIAL :  cpu time   21.0818: real time   21.1294
    CORREC:  cpu time    6.1366: real time    6.3024
    CHARGE:  cpu time    1.8214: real time    1.8215
    --------------------------------------------
      LOOP:  cpu time   29.9243: real time   30.1389

 eigenvalue-minimisations  :     0
 total energy-change (2. order) :-0.1027925E+01  (-0.1044553E+01)
 number of electron     269.9999993 magnetization      21.4381011
 augmentation part       85.8070931 magnetization      14.5740497

 Free energy of the ion-electron system (eV)
  ---------------------------------------------------
  alpha Z        PSCENC =       798.38614055
  Ewald energy   TEWEN  =    -12901.57693327
  -Hartree energ DENC   =     -2504.99832862
  -exchange      EXHF   =         0.00000000
  -V(xc)+E(xc)   XCENC  =      -999.25755153
  PAW double counting   =     20969.35575475   -19723.87366264
  entropy T*S    EENTRO =        -0.02938421
  eigenvalues    EBANDS =      1310.64432337
  atomic energy  EATOM  =     12697.67401269
  ---------------------------------------------------
  free energy    TOTEN  =      -353.67413778 eV

  energy without entropy =     -353.64475357  energy(sigma->0) =     -353.66434304


--------------------------------------------------------------------------------------------------------




--------------------------------------- Iteration      1(  15)  ---------------------------------------


    POTLOK:  cpu time    0.3909: real time    0.3908
    SETDIJ:  cpu time    0.4959: real time    0.5069
    TRIAL :  cpu time   20.4654: real time   20.5814
    CORREC:  cpu time    6.1597: real time    6.2205
    CHARGE:  cpu time    1.8399: real time    1.8521
    --------------------------------------------
      LOOP:  cpu time   29.3571: real time   29.5572

 eigenvalue-minimisations  :     0
 total energy-change (2. order) :-0.1043803E+01  (-0.9524684E+00)
 number of electron     269.9999992 magnetization      21.4606570
 augmentation part       86.6249312 magnetization      14.6089217

 Free energy of the ion-electron system (eV)
  ---------------------------------------------------
  alpha Z        PSCENC =       798.38614055
  Ewald energy   TEWEN  =    -12901.57693327
  -Hartree energ DENC   =     -2462.77986867
  -exchange      EXHF   =         0.00000000
  -V(xc)+E(xc)   XCENC  =     -1000.70947763
  PAW double counting   =     20326.31442818   -19069.51724327
  entropy T*S    EENTRO =        -0.03337389
  eigenvalues    EBANDS =      1257.52038449
  atomic energy  EATOM  =     12697.67401269
  ---------------------------------------------------
  free energy    TOTEN  =      -354.71794114 eV

  energy without entropy =     -354.68456725  energy(sigma->0) =     -354.70681651


--------------------------------------------------------------------------------------------------------




--------------------------------------- Iteration      1(  16)  ---------------------------------------


    POTLOK:  cpu time    0.3908: real time    0.3909
    SETDIJ:  cpu time    0.4620: real time    0.4619
    TRIAL :  cpu time   21.1130: real time   21.1648
    CORREC:  cpu time    6.1263: real time    6.2221
    CHARGE:  cpu time    1.8228: real time    1.8230
    --------------------------------------------
      LOOP:  cpu time   29.9211: real time   30.0698

 eigenvalue-minimisations  :     0
 total energy-change (2. order) :-0.9528756E+00  (-0.2166506E+00)
 number of electron     269.9999992 magnetization      21.4617304
 augmentation part       86.9929627 magnetization      14.6335714

 Free energy of the ion-electron system (eV)
  ---------------------------------------------------
  alpha Z        PSCENC =       798.38614055
  Ewald energy   TEWEN  =    -12901.57693327
  -Hartree energ DENC   =     -2488.99028064
  -exchange      EXHF   =         0.00000000
  -V(xc)+E(xc)   XCENC  =      -999.54557732
  PAW double counting   =     19757.36300192   -18505.91392087
  entropy T*S    EENTRO =        -0.03432309
  eigenvalues    EBANDS =      1286.96611409
  atomic energy  EATOM  =     12697.67401269
  ---------------------------------------------------
  free energy    TOTEN  =      -355.67081674 eV

  energy without entropy =     -355.63649365  energy(sigma->0) =     -355.65937571


--------------------------------------------------------------------------------------------------------




--------------------------------------- Iteration      1(  17)  ---------------------------------------


    POTLOK:  cpu time    0.3915: real time    0.3915
    SETDIJ:  cpu time    0.4552: real time    0.4613
    TRIAL :  cpu time   20.4684: real time   20.6323
    CORREC:  cpu time    6.1566: real time    6.2408
    CHARGE:  cpu time    1.7982: real time    1.8201
    --------------------------------------------
      LOOP:  cpu time   29.2833: real time   29.5603

 eigenvalue-minimisations  :     0
 total energy-change (2. order) :-0.2178949E+00  (-0.1957037E+00)
 number of electron     269.9999992 magnetization      21.5239237
 augmentation part       87.2719575 magnetization      14.7483321

 Free energy of the ion-electron system (eV)
  ---------------------------------------------------
  alpha Z        PSCENC =       798.38614055
  Ewald energy   TEWEN  =    -12901.57693327
  -Hartree energ DENC   =     -2504.01508238
  -exchange      EXHF   =         0.00000000
  -V(xc)+E(xc)   XCENC  =      -998.87681805
  PAW double counting   =     19654.94571072   -18406.96716947
  entropy T*S    EENTRO =        -0.03505822
  eigenvalues    EBANDS =      1304.57575071
  atomic energy  EATOM  =     12697.67401269
  ---------------------------------------------------
  free energy    TOTEN  =      -355.88871159 eV

  energy without entropy =     -355.85365337  energy(sigma->0) =     -355.87702552


--------------------------------------------------------------------------------------------------------




--------------------------------------- Iteration      1(  18)  ---------------------------------------


    POTLOK:  cpu time    0.3914: real time    0.3914
    SETDIJ:  cpu time    0.4885: real time    0.4887
    TRIAL :  cpu time   21.1903: real time   21.2428
    CORREC:  cpu time    6.0557: real time    6.2518
    CHARGE:  cpu time    1.8188: real time    1.8188
    --------------------------------------------
      LOOP:  cpu time   29.9464: real time   30.1960

 eigenvalue-minimisations  :     0
 total energy-change (2. order) :-0.1956620E+00  (-0.1926725E+00)
 number of electron     269.9999992 magnetization      21.4512173
 augmentation part       87.2312970 magnetization      14.8200300

 Free energy of the ion-electron system (eV)
  ---------------------------------------------------
  alpha Z        PSCENC =       798.38614055
  Ewald energy   TEWEN  =    -12901.57693327
  -Hartree energ DENC   =     -2515.08679563
  -exchange      EXHF   =         0.00000000
  -V(xc)+E(xc)   XCENC  =      -998.21976315
  PAW double counting   =     19583.47767666   -18338.49371078
  entropy T*S    EENTRO =        -0.03660051
  eigenvalues    EBANDS =      1317.79005757
  atomic energy  EATOM  =     12697.67401269
  ---------------------------------------------------
  free energy    TOTEN  =      -356.08437357 eV

  energy without entropy =     -356.04777306  energy(sigma->0) =     -356.07217340


--------------------------------------------------------------------------------------------------------




--------------------------------------- Iteration      1(  19)  ---------------------------------------


    POTLOK:  cpu time    0.3920: real time    0.3921
    SETDIJ:  cpu time    0.4762: real time    0.4761
    TRIAL :  cpu time   20.4717: real time   20.6080
    CORREC:  cpu time    6.1498: real time    6.2350
    CHARGE:  cpu time    1.7991: real time    1.8222
    --------------------------------------------
      LOOP:  cpu time   29.2905: real time   29.5370

 eigenvalue-minimisations  :     0
 total energy-change (2. order) :-0.1925887E+00  (-0.6821782E-01)
 number of electron     269.9999992 magnetization      21.4905567
 augmentation part       86.9944269 magnetization      14.8718417

 Free energy of the ion-electron system (eV)
  ---------------------------------------------------
  alpha Z        PSCENC =       798.38614055
  Ewald energy   TEWEN  =    -12901.57693327
  -Hartree energ DENC   =     -2510.13755123
  -exchange      EXHF   =         0.00000000
  -V(xc)+E(xc)   XCENC  =      -998.08102082
  PAW double counting   =     19520.64504686   -18275.35028553
  entropy T*S    EENTRO =        -0.03753709
  eigenvalues    EBANDS =      1312.20022894
  atomic energy  EATOM  =     12697.67401269
  ---------------------------------------------------
  free energy    TOTEN  =      -356.27696231 eV

  energy without entropy =     -356.23942522  energy(sigma->0) =     -356.26444995


--------------------------------------------------------------------------------------------------------




--------------------------------------- Iteration      1(  20)  ---------------------------------------


    POTLOK:  cpu time    0.4003: real time    0.4002
    SETDIJ:  cpu time    0.4550: real time    0.4553
    TRIAL :  cpu time   21.0788: real time   21.1281
    CORREC:  cpu time    6.0574: real time    6.2471
    CHARGE:  cpu time    1.8147: real time    1.8312
    --------------------------------------------
      LOOP:  cpu time   29.8141: real time   30.0701

 eigenvalue-minimisations  :     0
 total energy-change (2. order) :-0.6807229E-01  (-0.3960657E-01)
 number of electron     269.9999992 magnetization      21.5147864
 augmentation part       86.8526437 magnetization      14.9035448

 Free energy of the ion-electron system (eV)
  ---------------------------------------------------
  alpha Z        PSCENC =       798.38614055
  Ewald energy   TEWEN  =    -12901.57693327
  -Hartree energ DENC   =     -2497.73168506
  -exchange      EXHF   =         0.00000000
  -V(xc)+E(xc)   XCENC  =      -998.38420286
  PAW double counting   =     19493.93057044   -18246.21701269
  entropy T*S    EENTRO =        -0.03762924
  eigenvalues    EBANDS =      1297.61161268
  atomic energy  EATOM  =     12697.67401269
  ---------------------------------------------------
  free energy    TOTEN  =      -356.34503460 eV

  energy without entropy =     -356.30740536  energy(sigma->0) =     -356.33249152


--------------------------------------------------------------------------------------------------------




--------------------------------------- Iteration      1(  21)  ---------------------------------------


    POTLOK:  cpu time    0.3939: real time    0.3940
    SETDIJ:  cpu time    0.4572: real time    0.4575
    TRIAL :  cpu time   20.4936: real time   20.6748
    CORREC:  cpu time    6.1783: real time    6.2875
    CHARGE:  cpu time    1.8174: real time    1.8180
    --------------------------------------------
      LOOP:  cpu time   29.3596: real time   29.6521

 eigenvalue-minimisations  :     0
 total energy-change (2. order) :-0.3958337E-01  (-0.5405777E-01)
 number of electron     269.9999992 magnetization      21.5676583
 augmentation part       86.8104145 magnetization      14.9880079

 Free energy of the ion-electron system (eV)
  ---------------------------------------------------
  alpha Z        PSCENC =       798.38614055
  Ewald energy   TEWEN  =    -12901.57693327
  -Hartree energ DENC   =     -2491.47078901
  -exchange      EXHF   =         0.00000000
  -V(xc)+E(xc)   XCENC  =      -998.51416462
  PAW double counting   =     19486.33078650   -18237.31111080
  entropy T*S    EENTRO =        -0.03824883
  eigenvalues    EBANDS =      1290.13506922
  atomic energy  EATOM  =     12697.67401269
  ---------------------------------------------------
  free energy    TOTEN  =      -356.38461798 eV

  energy without entropy =     -356.34636914  energy(sigma->0) =     -356.37186836


--------------------------------------------------------------------------------------------------------




--------------------------------------- Iteration      1(  22)  ---------------------------------------


    POTLOK:  cpu time    0.3956: real time    0.4062
    SETDIJ:  cpu time    0.4644: real time    0.4646
    TRIAL :  cpu time   20.9755: real time   21.0409
    CORREC:  cpu time    6.1503: real time    6.2998
    CHARGE:  cpu time    1.8173: real time    1.8328
    --------------------------------------------
      LOOP:  cpu time   29.8085: real time   30.0509

 eigenvalue-minimisations  :     0
 total energy-change (2. order) :-0.5400208E-01  (-0.3246831E-01)
 number of electron     269.9999992 magnetization      21.5867822
 augmentation part       86.9169134 magnetization      15.0365265

 Free energy of the ion-electron system (eV)
  ---------------------------------------------------
  alpha Z        PSCENC =       798.38614055
  Ewald energy   TEWEN  =    -12901.57693327
  -Hartree energ DENC   =     -2491.93408575
  -exchange      EXHF   =         0.00000000
  -V(xc)+E(xc)   XCENC  =      -998.34252807
  PAW double counting   =     19498.22738781   -18249.29217816
  entropy T*S    EENTRO =        -0.03887536
  eigenvalues    EBANDS =      1290.45781298
  atomic energy  EATOM  =     12697.67401269
  ---------------------------------------------------
  free energy    TOTEN  =      -356.43862006 eV

  energy without entropy =     -356.39974469  energy(sigma->0) =     -356.42566160


--------------------------------------------------------------------------------------------------------




--------------------------------------- Iteration      1(  23)  ---------------------------------------


    POTLOK:  cpu time    0.3921: real time    0.3922
    SETDIJ:  cpu time    0.4604: real time    0.4608
    TRIAL :  cpu time   20.4734: real time   20.6692
    CORREC:  cpu time    6.1431: real time    6.2287
    CHARGE:  cpu time    1.8288: real time    1.8295
    --------------------------------------------
      LOOP:  cpu time   29.3009: real time   29.5845

 eigenvalue-minimisations  :     0
 total energy-change (2. order) :-0.3249879E-01  (-0.9361490E-02)
 number of electron     269.9999992 magnetization      21.6155517
 augmentation part       86.9656875 magnetization      15.0593273

 Free energy of the ion-electron system (eV)
  ---------------------------------------------------
  alpha Z        PSCENC =       798.38614055
[...]
   45       -0.011  -0.015  -2.282  -2.308
   46        0.021   0.012   2.351   2.385
   47        0.028   0.023   2.424   2.475
   48        0.032   0.027   2.391   2.450
   49        0.018   0.021   2.384   2.424
   50        0.024   0.030   2.380   2.434
   51       -0.020  -0.025  -2.278  -2.323
   52        0.012   0.025   2.227   2.264
   53       -0.031  -0.022  -2.300  -2.353
   54       -0.027  -0.021  -2.442  -2.489
--------------------------------------------------
tot         -0.016  -0.117  21.767  21.634
 
    FORLOC:  cpu time    0.0585: real time    0.0585
    FORNL :  cpu time   30.3723: real time   30.6381
    STRESS:  cpu time   41.8710: real time   42.1888
    FORCOR:  cpu time    0.4399: real time    0.4399
    OFIELD:  cpu time    0.0021: real time    0.0021

  FORCE on cell =-STRESS in cart. coord.  units (eV):
  Direction    XX          YY          ZZ          XY          YZ          ZX
  --------------------------------------------------------------------------------------
  Alpha Z   798.38614   798.38614   798.38614
  Ewald   -4053.61603 -4053.61603 -4794.40593    -0.00000    -0.00000    -0.00000
  Hartree  1083.50883  1084.09395   333.32402    -0.00000     0.21486    -0.00000
  E(xc)   -1141.77147 -1141.81902 -1140.16700    -0.00000    -0.04252     0.00000
  Local     369.86750   369.06843  1903.85503    -0.00000    -0.66420     0.00000
  n-local  -169.17715  -169.27931  -175.08776    -0.00906    -0.14780    -0.21250
  augment   784.47567   784.72491   768.23362     0.00000     0.24065     0.00001
  Kinetic  2334.51420  2335.20359  2309.25496    -0.94468     0.67693    -1.53802
  Fock        0.00000     0.00000     0.00000     0.00000     0.00000     0.00000
  -------------------------------------------------------------------------------------
  Total       6.18769     6.76266     3.39307     0.00000     0.27792     0.00000
  in kB      13.96481    15.26244     7.65771     0.00000     0.62723     0.00000
  external pressure =       12.29 kB  Pullay stress =        0.00 kB


 VOLUME and BASIS-vectors are now :
 -----------------------------------------------------------------------------
  energy-cutoff  :      404.80
  volume of cell :      709.91
      direct lattice vectors                 reciprocal lattice vectors
     8.250148166  0.000000000  0.000000000     0.121209944  0.000000000  0.000000000
     0.000000000  8.250148166  0.000000000     0.000000000  0.121209944  0.000000000
     0.000000000  0.000000000 10.429911392     0.000000000  0.000000000  0.095878092

  length of vectors
     8.250148166  8.250148166 10.429911392     0.121209944  0.121209944  0.095878092


 FORCES acting on ions:
    Electron-Ion                     Ewald-Force                    Non-Local-Force
 -----------------------------------------------------------------------------------------------
   0.159E+00 -.123E+00 0.451E-01   -.239E-08 -.239E-08 -.210E-08   -.104E+00 0.797E-01 0.113E-01
   0.116E-01 -.990E-02 -.917E-02   -.239E-08 -.239E-08 0.171E-08   0.441E-01 0.266E-01 -.340E-01
   0.663E-01 -.213E-01 0.223E-01   -.239E-08 -.239E-08 0.861E-08   -.127E+00 0.109E-02 -.173E-01
   0.142E+00 0.195E+00 -.576E-01   -.239E-08 -.802E-09 -.210E-08   -.104E+00 -.112E+00 0.493E-01
   -.182E-01 0.188E-01 0.219E-01   -.239E-08 -.802E-09 0.171E-08   0.958E-02 0.556E-02 -.187E-03
   0.110E+00 0.141E+00 0.221E-02   -.239E-08 -.802E-09 0.861E-08   -.863E-01 -.102E+00 -.311E-01
   -.668E-02 -.267E-01 -.553E-01   -.239E-08 0.631E-08 -.210E-08   -.857E-02 0.775E-02 0.232E-01
   0.331E-01 -.423E-01 -.344E-01   -.239E-08 0.631E-08 0.171E-08   0.393E-02 -.150E-01 -.107E-01
   0.799E-01 -.107E+00 0.125E+00   -.239E-08 0.631E-08 0.861E-08   -.881E-01 0.833E-01 -.405E-01
   0.373E-09 0.209E-01 -.134E+00   -.802E-09 -.239E-08 -.210E-08   0.000E+00 -.658E-02 0.600E-01
   0.373E-09 -.338E-01 0.190E-01   -.802E-09 -.239E-08 0.171E-08   0.000E+00 0.144E-01 0.884E-02
   0.373E-09 -.740E-02 0.671E-01   -.803E-09 -.239E-08 0.861E-08   0.000E+00 0.110E-01 -.371E-01
   0.373E-09 -.663E-02 -.974E-01   -.802E-09 -.802E-09 -.210E-08   0.000E+00 -.258E-02 0.620E-01
   0.373E-09 0.384E-02 -.124E-01   -.802E-09 -.802E-09 0.171E-08   0.000E+00 -.931E-02 0.408E-01
   0.373E-09 -.206E-01 0.103E+00   -.803E-09 -.802E-09 0.861E-08   0.000E+00 0.206E-02 -.779E-01
   0.373E-09 -.141E-01 -.166E+00   -.802E-09 0.631E-08 -.210E-08   0.000E+00 0.610E-02 0.413E-01
   0.373E-09 0.413E-01 0.292E-01   -.802E-09 0.631E-08 0.171E-08   0.000E+00 -.112E-01 0.748E-02
   0.373E-09 0.254E-01 0.900E-01   -.803E-09 0.631E-08 0.861E-08   0.000E+00 -.110E-01 -.113E-01
   -.159E+00 -.123E+00 0.451E-01   0.631E-08 -.239E-08 -.210E-08   0.104E+00 0.797E-01 0.113E-01
   -.116E-01 -.990E-02 -.917E-02   0.631E-08 -.239E-08 0.171E-08   -.441E-01 0.266E-01 -.340E-01
   -.663E-01 -.213E-01 0.223E-01   0.631E-08 -.239E-08 0.861E-08   0.127E+00 0.109E-02 -.173E-01
   -.142E+00 0.195E+00 -.576E-01   0.631E-08 -.802E-09 -.210E-08   0.104E+00 -.112E+00 0.493E-01
   0.182E-01 0.188E-01 0.219E-01   0.631E-08 -.802E-09 0.171E-08   -.958E-02 0.556E-02 -.187E-03
   -.110E+00 0.141E+00 0.221E-02   0.631E-08 -.802E-09 0.861E-08   0.863E-01 -.102E+00 -.311E-01
   0.668E-02 -.267E-01 -.553E-01   0.631E-08 0.631E-08 -.210E-08   0.857E-02 0.775E-02 0.232E-01
   -.331E-01 -.423E-01 -.344E-01   0.631E-08 0.631E-08 0.171E-08   -.393E-02 -.150E-01 -.107E-01
   -.799E-01 -.107E+00 0.125E+00   0.631E-08 0.631E-08 0.861E-08   0.881E-01 0.833E-01 -.405E-01
   0.474E-01 -.306E-01 0.326E-01   -.169E-07 -.169E-07 -.180E-07   0.744E-03 0.540E-01 -.612E-01
   -.331E-01 -.132E+00 -.887E-02   -.169E-07 -.169E-07 -.170E-08   0.678E-01 0.131E+00 0.410E-01
   0.265E+00 -.228E-01 -.584E-01   -.169E-07 -.169E-07 0.115E-07   -.160E+00 0.161E-01 0.652E-01
   -.799E-01 -.180E-02 -.411E-01   -.169E-07 0.802E-09 -.180E-07   0.101E+00 -.422E-01 -.256E-01
   -.158E+00 0.894E-01 0.172E-01   -.169E-07 0.802E-09 -.170E-08   0.151E+00 -.104E+00 0.480E-01
   -.140E+00 -.797E-01 -.713E-02   -.169E-07 0.802E-09 0.115E-07   0.111E+00 0.100E+00 0.804E-02
   -.749E-01 0.397E-01 0.379E-01   -.169E-07 0.130E-07 -.180E-07   0.219E-01 -.301E-01 -.102E+00
   0.221E+00 0.533E-01 -.319E-01   -.169E-07 0.130E-07 -.170E-08   -.790E-01 -.610E-01 0.342E-01
   -.532E-01 0.102E+00 0.118E+00   -.169E-07 0.130E-07 0.115E-07   0.115E+00 -.988E-01 -.119E+00
   -.474E-01 -.306E-01 0.326E-01   0.802E-09 -.169E-07 -.180E-07   -.744E-03 0.540E-01 -.612E-01
   0.331E-01 -.132E+00 -.887E-02   0.802E-09 -.169E-07 -.170E-08   -.678E-01 0.131E+00 0.410E-01
   -.265E+00 -.228E-01 -.584E-01   0.802E-09 -.169E-07 0.115E-07   0.160E+00 0.161E-01 0.652E-01
   0.799E-01 -.180E-02 -.411E-01   0.802E-09 0.802E-09 -.180E-07   -.101E+00 -.422E-01 -.256E-01
   0.158E+00 0.894E-01 0.172E-01   0.802E-09 0.802E-09 -.170E-08   -.151E+00 -.104E+00 0.480E-01
   0.140E+00 -.797E-01 -.713E-02   0.802E-09 0.802E-09 0.115E-07   -.111E+00 0.100E+00 0.804E-02
   0.749E-01 0.397E-01 0.379E-01   0.802E-09 0.130E-07 -.180E-07   -.219E-01 -.301E-01 -.102E+00
   -.221E+00 0.533E-01 -.319E-01   0.802E-09 0.130E-07 -.170E-08   0.790E-01 -.610E-01 0.342E-01
   0.532E-01 0.102E+00 0.118E+00   0.802E-09 0.130E-07 0.115E-07   -.115E+00 -.988E-01 -.119E+00
   -.605E-08 -.571E-01 -.154E+00   0.130E-07 -.169E-07 -.180E-07   0.000E+00 -.186E-02 0.121E+00
   -.605E-08 0.252E+00 0.209E+00   0.130E-07 -.169E-07 -.170E-08   0.000E+00 -.120E+00 -.236E+00
   -.604E-08 -.587E-01 -.137E+00   0.130E-07 -.169E-07 0.115E-07   0.000E+00 0.433E-01 0.205E+00
   -.605E-08 0.113E+00 0.121E+00   0.130E-07 0.802E-09 -.180E-07   0.000E+00 -.325E-01 -.166E+00
   -.605E-08 -.213E+00 -.107E+00   0.130E-07 0.802E-09 -.170E-08   0.000E+00 0.114E+00 0.130E+00
   -.605E-08 0.263E+00 0.179E+00   0.130E-07 0.802E-09 0.115E-07   0.000E+00 -.153E+00 -.178E+00
   -.605E-08 -.570E-01 -.163E+00   0.130E-07 0.130E-07 -.180E-07   0.000E+00 0.536E-01 0.172E+00
   -.605E-08 0.812E-01 0.447E+00   0.130E-07 0.130E-07 -.170E-08   0.000E+00 -.558E-01 -.483E+00
   -.604E-08 -.358E+00 -.340E+00   0.130E-07 0.130E-07 0.115E-07   0.000E+00 0.214E+00 0.460E+00
 -----------------------------------------------------------------------------------------------
   -.362E-07 0.647E-01 0.203E+00   -.614E-13 -.142E-13 0.128E-13   -.555E-16 -.647E-01 -.203E+00
 
 
 POSITION                                       TOTAL-FORCE (eV/Angst)
 -----------------------------------------------------------------------------------
      0.00000      0.00000      0.00000         0.063397     -0.050593      0.054755
      0.00000      0.00000      3.47664         0.051908      0.013433     -0.038948
      0.00000      0.00000      6.95327        -0.050243     -0.020504      0.006477
      0.00000      2.75005      0.00000         0.046823      0.092423     -0.014029
      0.00000      2.75005      3.47664        -0.009577      0.024217      0.022048
      0.00000      2.75005      6.95327         0.030908      0.048204     -0.025477
      0.00000      5.50010      0.00000        -0.015059     -0.019571     -0.034206
      0.00000      5.50010      3.47664         0.035948     -0.055802     -0.043189
      0.00000      5.50010      6.95327        -0.001267     -0.030491      0.087551
      2.75005      0.00000      0.00000         0.000000      0.015290     -0.080592
      2.75005      0.00000      3.47664         0.000000     -0.020615      0.027351
      2.75005      0.00000      6.95327         0.000000      0.002718      0.033263
      2.75005      2.75005      0.00000         0.000000     -0.009518     -0.040795
      2.75005      2.75005      3.47664         0.000000     -0.005055      0.024952
      2.75005      2.75005      6.95327         0.000000     -0.019285      0.032710
      2.75005      5.50010      0.00000         0.000000     -0.008418     -0.129979
      2.75005      5.50010      3.47664         0.000000      0.031619      0.036450
      2.75005      5.50010      6.95327         0.000000      0.015779      0.079981
      5.50010      0.00000      0.00000        -0.063397     -0.050593      0.054755
      5.50010      0.00000      3.47664        -0.051908      0.013433     -0.038948
      5.50010      0.00000      6.95327         0.050243     -0.020504      0.006477
      5.50010      2.75005      0.00000        -0.046823      0.092423     -0.014029
      5.50010      2.75005      3.47664         0.009577      0.024217      0.022048
      5.50010      2.75005      6.95327        -0.030908      0.048204     -0.025477
      5.50010      5.50010      0.00000         0.015059     -0.019571     -0.034206
      5.50010      5.50010      3.47664        -0.035948     -0.055802     -0.043189
      5.50010      5.50010      6.95327         0.001267     -0.030491      0.087551
      1.37502      1.37502      1.73832         0.048870      0.023107     -0.020442
      1.37502      1.37502      5.21496         0.034206     -0.002202      0.023981
      1.37502      1.37502      8.69159         0.103048     -0.007284      0.005350
      1.37502      4.12507      1.73832         0.020221     -0.043654     -0.059453
      1.37502      4.12507      5.21496        -0.010223     -0.013005      0.057871
      1.37502      4.12507      8.69159        -0.030578      0.019231     -0.000603
      1.37502      6.87512      1.73832        -0.051195      0.010184     -0.056401
      1.37502      6.87512      5.21496         0.144321     -0.007064     -0.002179
      1.37502      6.87512      8.69159         0.059192      0.005207      0.002349
      4.12507      1.37502      1.73832        -0.048870      0.023107     -0.020442
      4.12507      1.37502      5.21496        -0.034206     -0.002202      0.023981
      4.12507      1.37502      8.69159        -0.103048     -0.007284      0.005350
      4.12507      4.12507      1.73832        -0.020221     -0.043654     -0.059453
      4.12507      4.12507      5.21496         0.010223     -0.013005      0.057871
      4.12507      4.12507      8.69159         0.030578      0.019231     -0.000603
      4.12507      6.87512      1.73832         0.051195      0.010184     -0.056401
      4.12507      6.87512      5.21496        -0.144321     -0.007064     -0.002179
      4.12507      6.87512      8.69159        -0.059192      0.005207      0.002349
      6.87512      1.37502      1.73832         0.000000     -0.056220     -0.031526
      6.87512      1.37502      5.21496         0.000000      0.138750     -0.027604
      6.87512      1.37502      8.69159         0.000000     -0.019104      0.066427
      6.87512      4.12507      1.73832         0.000000      0.078917     -0.034219
      6.87512      4.12507      5.21496         0.000000     -0.101593      0.015061
      6.87512      4.12507      8.69159         0.000000      0.109895      0.005026
      6.87512      6.87512      1.73832         0.000000     -0.005095      0.005554
      6.87512      6.87512      5.21496         0.000000      0.025878     -0.027982
      6.87512      6.87512      8.69159         0.000000     -0.145619      0.115012
 -----------------------------------------------------------------------------------
    total drift:                               -0.000000     -0.000001     -0.000048


--------------------------------------------------------------------------------------------------------



  FREE ENERGIE OF THE ION-ELECTRON SYSTEM (eV)
  ---------------------------------------------------
  free  energy   TOTEN  =      -356.52722518 eV

  energy  without entropy=     -356.49123970  energy(sigma->0) =     -356.51523002
 


--------------------------------------------------------------------------------------------------------


    POTLOK:  cpu time    0.9587: real time    0.9679


--------------------------------------------------------------------------------------------------------


     LOOP+:  cpu time 2298.8707: real time 2318.2521
    4ORBIT:  cpu time    0.0000: real time    0.0000
 


 total charge     
 
# of ion       s       p       d       tot
------------------------------------------
    1        0.406   0.429   0.000   0.834
    2        0.405   0.429   0.000   0.834
    3        0.405   0.430   0.000   0.835
    4        0.406   0.428   0.000   0.834
    5        0.404   0.428   0.000   0.833
    6        0.405   0.428   0.000   0.833
    7        0.405   0.426   0.000   0.832
    8        0.404   0.430   0.000   0.834
    9        0.405   0.427   0.000   0.833
   10        0.405   0.426   0.000   0.832
   11        0.404   0.429   0.000   0.832
   12        0.405   0.426   0.000   0.831
   13        0.405   0.427   0.000   0.832
   14        0.404   0.429   0.000   0.833
   15        0.405   0.426   0.000   0.831
   16        0.405   0.427   0.000   0.832
   17        0.405   0.429   0.000   0.833
   18        0.405   0.426   0.000   0.832
   19        0.406   0.428   0.000   0.834
   20        0.405   0.430   0.000   0.834
   21        0.405   0.430   0.000   0.834
   22        0.406   0.428   0.000   0.834
   23        0.405   0.428   0.000   0.833
   24        0.405   0.428   0.000   0.834
   25        0.405   0.426   0.000   0.831
   26        0.404   0.430   0.000   0.834
   27        0.405   0.428   0.000   0.833
   28        0.334   0.353   5.135   5.821
   29        0.332   0.353   5.134   5.819
   30        0.335   0.355   5.128   5.818
   31        0.334   0.351   5.136   5.821
   32        0.332   0.351   5.135   5.818
   33        0.334   0.351   5.141   5.826
   34        0.333   0.349   5.143   5.825
   35        0.334   0.355   5.130   5.819
   36        0.334   0.353   5.137   5.824
   37        0.333   0.353   5.130   5.816
   38        0.332   0.353   5.137   5.822
   39        0.335   0.355   5.129   5.819
   40        0.334   0.351   5.138   5.822
   41        0.332   0.351   5.143   5.827
   42        0.334   0.351   5.132   5.817
   43        0.333   0.349   5.135   5.818
   44        0.334   0.355   5.126   5.815
   45        0.334   0.354   5.129   5.816
   46        0.333   0.347   5.146   5.826
   47        0.334   0.354   5.129   5.817
   48        0.339   0.358   5.117   5.813
   49        0.333   0.352   5.134   5.819
   50        0.333   0.357   5.125   5.815
   51        0.334   0.356   5.129   5.819
   52        0.331   0.355   5.131   5.817
   53        0.334   0.353   5.137   5.824
   54        0.336   0.353   5.127   5.816
--------------------------------------------------
tot         19.941  21.082 138.596 179.619
 


 magnetization (x)
 
# of ion       s       p       d       tot
------------------------------------------
    1       -0.004  -0.007   0.000  -0.011
    2       -0.017  -0.031   0.000  -0.047
    3        0.000   0.002   0.000   0.002
    4       -0.004  -0.008   0.000  -0.012
    5       -0.021  -0.038   0.000  -0.059
    6       -0.004  -0.006   0.000  -0.009
    7       -0.001  -0.000   0.000  -0.001
    8       -0.018  -0.029   0.000  -0.047
    9        0.003   0.008   0.000   0.011
   10       -0.001  -0.003   0.000  -0.003
   11       -0.022  -0.035   0.000  -0.057
   12       -0.000   0.000   0.000   0.000
   13       -0.001  -0.001   0.000  -0.002
   14       -0.023  -0.037   0.000  -0.060
   15       -0.001  -0.001   0.000  -0.002
   16        0.001   0.000   0.000   0.001
   17       -0.021  -0.037   0.000  -0.058
   18        0.001   0.003   0.000   0.004
   19       -0.004  -0.007   0.000  -0.011
   20       -0.017  -0.030   0.000  -0.047
   21       -0.000   0.001   0.000   0.001
   22       -0.004  -0.008   0.000  -0.012
   23       -0.021  -0.038   0.000  -0.059
   24       -0.003  -0.006   0.000  -0.009
   25       -0.001  -0.000   0.000  -0.001
   26       -0.018  -0.029   0.000  -0.046
   27        0.003   0.008   0.000   0.011
   28        0.016   0.024   2.361   2.402
   29        0.013   0.018   2.342   2.374
   30       -0.022  -0.022  -2.332  -2.376
   31        0.017   0.019   2.371   2.408
   32        0.015   0.013   2.347   2.375
   33       -0.012  -0.011  -2.267  -2.290
   34        0.019   0.016   2.371   2.406
   35        0.025   0.025   2.385   2.435
   36       -0.011  -0.015  -2.266  -2.291
   37        0.016   0.025   2.362   2.403
   38        0.013   0.018   2.343   2.374
   39       -0.022  -0.022  -2.330  -2.374
   40        0.017   0.020   2.372   2.410
   41        0.015   0.014   2.347   2.376
   42       -0.013  -0.011  -2.274  -2.297
   43        0.020   0.016   2.383   2.419
   44        0.025   0.025   2.394   2.444
   45       -0.011  -0.015  -2.282  -2.308
   46        0.021   0.012   2.351   2.385
   47        0.028   0.023   2.424   2.475
   48        0.032   0.027   2.391   2.450
   49        0.018   0.021   2.384   2.424
   50        0.024   0.030   2.380   2.434
   51       -0.020  -0.025  -2.278  -2.323
   52        0.012   0.025   2.227   2.264
   53       -0.031  -0.022  -2.300  -2.353
   54       -0.027  -0.021  -2.442  -2.489
--------------------------------------------------
tot         -0.016  -0.117  21.767  21.634
 

 total amount of memory used by VASP MPI-rank0  1099370. kBytes
=======================================================================

   base      :      30000. kBytes
   nonl-proj :      34214. kBytes
   fftplans  :      31580. kBytes
   grid      :      21385. kBytes
   one-center:        435. kBytes
   wavefun   :     981756. kBytes
 
  
  
 General timing and accounting informations for this job:
 ========================================================
  
                  Total CPU time used (sec):     2338.669
                            User time (sec):     2309.312
                          System time (sec):       29.357
                         Elapsed time (sec):     2360.885
  
                   Maximum memory used (kb):     1284044.
                   Average memory used (kb):           0.
  
                          Minor page faults:       731394
                          Major page faults:           15
                 Voluntary context switches:         3558
