 vasp.5.4.4.18Apr17-6-g9f103f2a35 (build Dec 13 2018 10:28:32) complex          
  
 executed on             LinuxIFC date 2019.05.21  08:49:05
 running on   96 total cores
 distrk:  each k-point on   96 cores,    1 groups
 distr:  one band on NCORES_PER_BAND=  24 cores,    4 groups


--------------------------------------------------------------------------------------------------------


 INCAR:
 POTCAR:   PAW_PBE F 08Apr2002                    
 POTCAR:   PAW_PBE Ni 06Sep2000                   
 POTCAR:   PAW_PBE Cs_sv 08Apr2002                

 ----------------------------------------------------------------------------- 
|                                                                             |
|           W    W    AA    RRRRR   N    N  II  N    N   GGGG   !!!           |
|           W    W   A  A   R    R  NN   N  II  NN   N  G    G  !!!           |
|           W    W  A    A  R    R  N N  N  II  N N  N  G       !!!           |
|           W WW W  AAAAAA  RRRRR   N  N N  II  N  N N  G  GGG   !            |
|           WW  WW  A    A  R   R   N   NN  II  N   NN  G    G                |
|           W    W  A    A  R    R  N    N  II  N    N   GGGG   !!!           |
|                                                                             |
|      For optimal performance we recommend to set                            |
|        NCORE= 4 - approx SQRT( number of cores)                             |
|      NCORE specifies how many cores store one orbital (NPAR=cpu/NCORE).     |
|      This setting can  greatly improve the performance of VASP for DFT.     |
|      The default,   NCORE=1            might be grossly inefficient         |
|      on modern multi-core architectures or massively parallel machines.     |
|      Do your own testing !!!!                                               |
|      Unfortunately you need to use the default for GW and RPA calculations. |
|      (for HF NCORE is supported but not extensively tested yet)             |
|                                                                             |
 ----------------------------------------------------------------------------- 

 POTCAR:   PAW_PBE F 08Apr2002                    
   VRHFIN =F: s2p5                                                              
   LEXCH  = PE                                                                  
   EATOM  =   659.4942 eV,   48.4715 Ry                                         
                                                                                
   TITEL  = PAW_PBE F 08Apr2002                                                 
   LULTRA =        F    use ultrasoft PP ?                                      
   IUNSCR =        0    unscreen: 0-lin 1-nonlin 2-no                           
   RPACOR =     .000    partial core radius                                     
   POMASS =   18.998; ZVAL   =    7.000    mass and valenz                      
   RCORE  =    1.520    outmost cutoff radius                                   
   RWIGS  =    1.500; RWIGS  =     .794    wigner-seitz radius (au A)           
   ENMAX  =  400.000; ENMIN  =  300.000 eV                                      
   ICORE  =        2    local potential                                         
   LCOR   =        T    correct aug charges                                     
   LPAW   =        T    paw PP                                                  
   EAUG   =  613.614                                                            
   DEXC   =     .000                                                            
   RMAX   =    2.254    core radius for proj-oper                               
   RAUG   =    1.300    factor for augmentation sphere                          
   RDEP   =    1.539    radius for radial grids                                 
   QCUT   =   -5.545; QGAM   =   11.091    optimization parameters              
                                                                                
   Description                                                                  
     l     E      TYP  RCUT    TYP  RCUT                                        
     0   .000     23  1.200                                                     
     0  -.700     23  1.200                                                     
     1   .000     23  1.520                                                     
     1   .100     23  1.520                                                     
     2   .000      7  1.500                                                     
  local pseudopotential read in
  atomic valenz-charges read in
  non local Contribution for L=           0  read in
    real space projection operators read in
  non local Contribution for L=           0  read in
    real space projection operators read in
  non local Contribution for L=           1  read in
    real space projection operators read in
  non local Contribution for L=           1  read in
    real space projection operators read in
    PAW grid and wavefunctions read in
 
   number of l-projection  operators is LMAX  =           4
   number of lm-projection operators is LMMAX =           8
 
 POTCAR:   PAW_PBE Ni 06Sep2000                   
   VRHFIN =Ni:                                                                  
   LEXCH  = PE                                                                  
   EATOM  =  1077.9025 eV,   79.2236 Ry                                         
                                                                                
   TITEL  = PAW_PBE Ni 06Sep2000                                                
   LULTRA =        F    use ultrasoft PP ?                                      
   IUNSCR =        1    unscreen: 0-lin 1-nonlin 2-no                           
   RPACOR =    2.000    partial core radius                                     
   POMASS =   58.690; ZVAL   =   10.000    mass and valenz                      
   RCORE  =    2.300    outmost cutoff radius                                   
   RWIGS  =    2.430; RWIGS  =    1.286    wigner-seitz radius (au A)           
   ENMAX  =  269.533; ENMIN  =  202.150 eV                                      
   RCLOC  =    1.681    cutoff for local pot                                    
   LCOR   =        T    correct aug charges                                     
   LPAW   =        T    paw PP                                                  
   EAUG   =  544.565                                                            
   DEXC   =    -.009                                                            
   RMAX   =    2.808    core radius for proj-oper                               
   RAUG   =    1.300    factor for augmentation sphere                          
   RDEP   =    2.390    radius for radial grids                                 
   QCUT   =   -4.451; QGAM   =    8.902    optimization parameters              
                                                                                
   Description                                                                  
     l     E      TYP  RCUT    TYP  RCUT                                        
     2   .000     23  2.300                                                     
     2   .000     23  2.300                                                     
     0   .000     23  2.300                                                     
     0   .000     23  2.300                                                     
     1  -.200     23  2.300                                                     
     1   .000     23  2.300                                                     
     3   .000      7   .000                                                     
  local pseudopotential read in
  partial core-charges read in
  atomic valenz-charges read in
  non local Contribution for L=           2  read in
    real space projection operators read in
  non local Contribution for L=           2  read in
    real space projection operators read in
  non local Contribution for L=           0  read in
    real space projection operators read in
  non local Contribution for L=           0  read in
    real space projection operators read in
  non local Contribution for L=           1  read in
    real space projection operators read in
  non local Contribution for L=           1  read in
    real space projection operators read in
    PAW grid and wavefunctions read in
 
   number of l-projection  operators is LMAX  =           6
   number of lm-projection operators is LMMAX =          18
 
 POTCAR:   PAW_PBE Cs_sv 08Apr2002                
   VRHFIN =Cs: 5s5p6s                                                           
   LEXCH  = PE                                                                  
   EATOM  =   555.6835 eV,   40.8416 Ry                                         
                                                                                
   TITEL  = PAW_PBE Cs_sv 08Apr2002                                             
   LULTRA =        F    use ultrasoft PP ?                                      
   IUNSCR =        1    unscreen: 0-lin 1-nonlin 2-no                           
   RPACOR =    2.200    partial core radius                                     
   POMASS =  132.900; ZVAL   =    9.000    mass and valenz                      
   RCORE  =    2.500    outmost cutoff radius                                   
   RWIGS  =    2.500; RWIGS  =    1.323    wigner-seitz radius (au A)           
   ENMAX  =  220.318; ENMIN  =  165.238 eV                                      
   RCLOC  =    2.207    cutoff for local pot                                    
   LCOR   =        T    correct aug charges                                     
   LPAW   =        T    paw PP                                                  
   EAUG   =  407.933                                                            
   DEXC   =    -.004                                                            
   RMAX   =    3.106    core radius for proj-oper                               
   RAUG   =    1.300    factor for augmentation sphere                          
   RDEP   =    2.590    radius for radial grids                                 
   QCUT   =   -4.024; QGAM   =    8.048    optimization parameters              
                                                                                
   Description                                                                  
     l     E      TYP  RCUT    TYP  RCUT                                        
     0   .000     23  1.900                                                     
     0   .000     23  1.900                                                     
     0   .000     23  1.900                                                     
     0   .000     23  1.900                                                     
     1   .000     23  2.500                                                     
     1  -.200     23  2.500                                                     
     2   .000     23  2.500                                                     
  local pseudopotential read in
  partial core-charges read in
  atomic valenz-charges read in
  non local Contribution for L=           0  read in
    real space projection operators read in
  non local Contribution for L=           0  read in
    real space projection operators read in
  non local Contribution for L=           1  read in
    real space projection operators read in
  non local Contribution for L=           1  read in
    real space projection operators read in
  non local Contribution for L=           2  read in
    real space projection operators read in
    PAW grid and wavefunctions read in
 
   number of l-projection  operators is LMAX  =           5
   number of lm-projection operators is LMMAX =          13
 
 PAW_PBE F 08Apr2002                    :
 energy of atom  1       EATOM= -659.4942
 kinetic energy error for atom=    0.0323 (will be added to EATOM!!)
 PAW_PBE Ni 06Sep2000                   :
 energy of atom  2       EATOM=-1077.9025
 kinetic energy error for atom=    0.0030 (will be added to EATOM!!)
 PAW_PBE Cs_sv 08Apr2002                :
 energy of atom  3       EATOM= -555.6835
 kinetic energy error for atom=    0.0016 (will be added to EATOM!!)
 
 
 POSCAR: For VASP. System= small                 
  positions in cartesian coordinates
  velocities in cartesian coordinates
  No initial velocities read in
 exchange correlation table for  LEXCH =        8
   RHO(1)=    0.500       N(1)  =     2000
   RHO(2)=  100.500       N(2)  =     4000
 


--------------------------------------------------------------------------------------------------------


 ion  position               nearest neighbor table
   1  0.570  0.640  0.250-  32 2.04  28 2.04
   2  0.070  0.640  0.250-  31 2.04  27 2.04
   3  0.570  0.140  0.250-  30 2.04  26 2.04
   4  0.070  0.140  0.250-  29 2.04  25 2.04
   5  0.860  0.930  0.250-  29 2.04  25 2.04
   6  0.360  0.930  0.250-  30 2.04  26 2.04
   7  0.860  0.430  0.250-  31 2.04  27 2.04
   8  0.360  0.430  0.250-  32 2.04  28 2.04
   9  0.570  0.930  0.250-  30 2.04  26 2.04
  10  0.070  0.930  0.250-  29 2.04  25 2.04
  11  0.570  0.430  0.250-  32 2.04  28 2.04
  12  0.070  0.430  0.250-  31 2.04  27 2.04
  13  0.930  0.860  0.750-  25 2.04  29 2.04
  14  0.430  0.860  0.750-  26 2.04  30 2.04
  15  0.930  0.360  0.750-  27 2.04  31 2.04
  16  0.430  0.360  0.750-  28 2.04  32 2.04
  17  0.640  0.570  0.750-  28 2.04  32 2.04
  18  0.140  0.570  0.750-  27 2.04  31 2.04
  19  0.640  0.070  0.750-  26 2.04  30 2.04
  20  0.140  0.070  0.750-  25 2.04  29 2.04
  21  0.930  0.570  0.750-  27 2.04  31 2.04
  22  0.430  0.570  0.750-  28 2.04  32 2.04
  23  0.930  0.070  0.750-  25 2.04  29 2.04
  24  0.430  0.070  0.750-  26 2.04  30 2.04
  25  0.000  0.000  0.000-  20 2.04   5 2.04   4 2.04  13 2.04  23 2.04  10 2.04  29 2.66  29 2.66

  26  0.500  0.000  0.000-  19 2.04   6 2.04   3 2.04  14 2.04  24 2.04   9 2.04  30 2.66  30 2.66

  27  1.000  0.500  0.000-  18 2.04   7 2.04  15 2.04   2 2.04  21 2.04  12 2.04  31 2.66  31 2.66

  28  0.500  0.500  0.000-  17 2.04   8 2.04  16 2.04   1 2.04  22 2.04  11 2.04  32 2.66  32 2.66

  29  0.000  0.000  0.500-   5 2.04  20 2.04   4 2.04  13 2.04  10 2.04  23 2.04  25 2.66  25 2.66

  30  0.500  0.000  0.500-   6 2.04  19 2.04   3 2.04  14 2.04   9 2.04  24 2.04  26 2.66  26 2.66

  31  1.000  0.500  0.500-   7 2.04  18 2.04   2 2.04  15 2.04  12 2.04  21 2.04  27 2.66  27 2.66

  32  0.500  0.500  0.500-   8 2.04  17 2.04   1 2.04  16 2.04  11 2.04  22 2.04  28 2.66  28 2.66

  33  0.667  0.833  0.750-
  34  0.167  0.833  0.750-
  35  0.667  0.333  0.750-
  36  0.167  0.333  0.750-
  37  0.833  0.667  0.250-
  38  0.333  0.667  0.250-
  39  0.833  0.167  0.250-
  40  0.333  0.167  0.250-
 
  LATTYP: Found a hexagonal cell.
 ALAT       =    12.7752670119
 C/A-ratio  =     0.4167528495
  
  Lattice vectors:
  
 A1 = (   6.3876227840,  11.0637119627,   0.0000000000)
 A2 = (   6.3876227840, -11.0637119627,   0.0000000000)
 A3 = (   0.0000000000,   0.0000000000,  -5.3241289298)


Analysis of symmetry for initial positions (statically):
=====================================================================
 Subroutine PRICEL returns following result:
 
  LATTYP: Found a hexagonal cell.
 ALAT       =     6.3876335059
 C/A-ratio  =     0.8335056989
  
  Lattice vectors:
  
 A1 = (   3.1938113920,   5.5318559813,   0.0000000000)
 A2 = (   3.1938113920,  -5.5318559813,   0.0000000000)
 A3 = (   0.0000000000,   0.0000000000,  -5.3241289298)
 
   4 primitive cells build up your supercell.
 

 Routine SETGRP: Setting up the symmetry group for a 
 hexagonal supercell.


 Subroutine GETGRP returns: Found  8 space group operations
 (whereof  4 operations were pure point group operations)
 out of a pool of 24 trial point group operations.


The static configuration has the point symmetry C_2h.
 The point group associated with its full space group is D_2h.


Analysis of symmetry for dynamics (positions and initial velocities):
=====================================================================
 Subroutine PRICEL returns following result:
 
  LATTYP: Found a hexagonal cell.
 ALAT       =     6.3876335059
 C/A-ratio  =     0.8335056989
  
  Lattice vectors:
  
 A1 = (   3.1938113920,   5.5318559813,   0.0000000000)
 A2 = (   3.1938113920,  -5.5318559813,   0.0000000000)
 A3 = (   0.0000000000,   0.0000000000,  -5.3241289298)
 
   4 primitive cells build up your supercell.
 

 Routine SETGRP: Setting up the symmetry group for a 
 hexagonal supercell.


 Subroutine GETGRP returns: Found  8 space group operations
 (whereof  4 operations were pure point group operations)
 out of a pool of 24 trial point group operations.


The dynamic configuration has the point symmetry C_2h.
 The point group associated with its full space group is D_2h.


Analysis of structural, dynamic, and magnetic symmetry:
=====================================================================
 Subroutine PRICEL returns:
 Original cell was already a primitive cell.
 

 Routine SETGRP: Setting up the symmetry group for a 
 hexagonal supercell.


 Subroutine GETGRP returns: Found  2 space group operations
 (whereof  2 operations were pure point group operations)
 out of a pool of 24 trial point group operations.


The magnetic configuration has the point symmetry S_2 .


 Subroutine INISYM returns: Found  2 space group operations
 (whereof  2 operations are pure point group operations),
 and found     1 'primitive' translations

 
 
 KPOINTS: Automatic mesh                          

Automatic generation of k-mesh.
Space group operators:
 irot       det(A)        alpha          n_x          n_y          n_z        tau_x        tau_y        tau_z
    1     1.000000     0.000000     1.000000     0.000000     0.000000     0.000000     0.000000     0.000000
    2    -1.000000     0.000000     1.000000     0.000000     0.000000     0.000000     0.000000     0.000000
 
 Subroutine IBZKPT returns following result:
 ===========================================
 
 Found     12 irreducible k-points:
 
 Following reciprocal coordinates:
            Coordinates               Weight
  0.000000  0.000000  0.000000      1.000000
  0.500000  0.000000  0.000000      1.000000
  0.000000  0.500000  0.000000      1.000000
  0.500000  0.500000  0.000000      1.000000
  0.000000  0.000000  0.250000      2.000000
  0.500000  0.000000  0.250000      2.000000
  0.000000  0.500000  0.250000      2.000000
  0.500000  0.500000  0.250000      2.000000
  0.000000  0.000000  0.500000      1.000000
  0.500000  0.000000  0.500000      1.000000
  0.000000  0.500000  0.500000      1.000000
  0.500000  0.500000  0.500000      1.000000
 
 Following cartesian coordinates:
            Coordinates               Weight
  0.000000  0.000000  0.000000      1.000000
  0.039138  0.022596  0.000000      1.000000
  0.000000  0.045193  0.000000      1.000000
  0.039138  0.067789  0.000000      1.000000
  0.000000  0.000000  0.046956      2.000000
  0.039138  0.022596  0.046956      2.000000
  0.000000  0.045193  0.046956      2.000000
  0.039138  0.067789  0.046956      2.000000
  0.000000  0.000000  0.093912      1.000000
  0.039138  0.022596  0.093912      1.000000
  0.000000  0.045193  0.093912      1.000000
  0.039138  0.067789  0.093912      1.000000
 


--------------------------------------------------------------------------------------------------------




 Dimension of arrays:
   k-points           NKPTS =     12   k-points in BZ     NKDIM =     12   number of bands    NBANDS=    196
   number of dos      NEDOS =    301   number of ions     NIONS =     40
   non local maximal  LDIM  =      6   non local SUM 2l+1 LMDIM =     18
   total plane-waves  NPLWV = 368640
   max r-space proj   IRMAX =   9164   max aug-charges    IRDMAX=   9965
   dimension x,y,z NGX =    96 NGY =   96 NGZ =   40
   dimension x,y,z NGXF=   140 NGYF=  140 NGZF=   60
   support grid    NGXF=   140 NGYF=  140 NGZF=   60
   ions per type =              24   8   8
   NGX,Y,Z   is equivalent  to a cutoff of  12.49, 12.49, 12.49 a.u.
   NGXF,Y,Z  is equivalent  to a cutoff of  18.22, 18.22, 18.74 a.u.

 SYSTEM =  CsNiF3 AF without U                     
 POSCAR =  For VASP. System= small                 

 Startparameter for this run:
   NWRITE =      2    write-flag & timer
   PREC   = high      normal or accurate (medium, high low for compatibility)
   ISTART =      0    job   : 0-new  1-cont  2-samecut
   ICHARG =      2    charge: 1-file 2-atom 10-const
   ISPIN  =      2    spin polarized calculation?
   LNONCOLLINEAR =      F non collinear calculations
   LSORBIT =      F    spin-orbit coupling
   INIWAV =      1    electr: 0-lowe 1-rand  2-diag
   LASPH  =      F    aspherical Exc in radial PAW
   METAGGA=      F    non-selfconsistent MetaGGA calc.

 Electronic Relaxation 1
   ENCUT  =  520.0 eV  38.22 Ry    6.18 a.u.  23.75 23.75  9.90*2*pi/ulx,y,z
   ENINI  =  520.0     initial cutoff
   ENAUG  =  613.6 eV  augmentation charge cutoff
   NELM   =    100;   NELMIN=  2; NELMDL= -5     # of ELM steps 
   EDIFF  = 0.1E-06   stopping-criterion for ELM
   LREAL  =      T    real-space projection
   NLSPLINE    = F    spline interpolate recip. space projectors
   LCOMPAT=      F    compatible to vasp.4.4
   GGA_COMPAT  = T    GGA compatible to vasp.4.4-vasp.4.6
   LMAXPAW     = -100 max onsite density
   LMAXMIX     =    2 max onsite mixed and CHGCAR
   VOSKOWN=      0    Vosko Wilk Nusair interpolation
   ROPT   =    0.00000   0.00000   0.00000
 Ionic relaxation
   EDIFFG = 0.1E-05   stopping-criterion for IOM
   NSW    =      0    number of steps for IOM
   NBLOCK =      1;   KBLOCK =      1    inner block; outer block 
   IBRION =     -1    ionic relax: 0-MD 1-quasi-New 2-CG
   NFREE  =      0    steps in history (QN), initial steepest desc. (CG)
   ISIF   =      2    stress and relaxation
   IWAVPR =     10    prediction:  0-non 1-charg 2-wave 3-comb
   ISYM   =      2    0-nonsym 1-usesym 2-fastsym
   LCORR  =      T    Harris-Foulkes like correction to forces

   POTIM  = 0.5000    time-step for ionic-motion
   TEIN   =    0.0    initial temperature
   TEBEG  =    0.0;   TEEND  =   0.0 temperature during run
   SMASS  =  -3.00    Nose mass-parameter (am)
   estimated Nose-frequenzy (Omega)   =  0.10E-29 period in steps =****** mass=  -0.373E-26a.u.
   SCALEE = 1.0000    scale energy and forces
   NPACO  =    256;   APACO  = 16.0  distance and # of slots for P.C.
   PSTRESS=    0.0 pullay stress

  Mass of Ions in am
   POMASS =  19.00 58.69132.90
  Ionic Valenz
   ZVAL   =   7.00 10.00  9.00
  Atomic Wigner-Seitz radii
   RWIGS  =  -1.00 -1.00 -1.00
  virtual crystal weights 
   VCA    =   1.00  1.00  1.00
   NELECT =     320.0000    total number of electrons
   NUPDOWN=      -1.0000    fix difference up-down

 DOS related values:
   EMIN   =  10.00;   EMAX   =-10.00  energy-range for DOS
   EFERMI =   0.00
   ISMEAR =     0;   SIGMA  =   0.20  broadening in eV -4-tet -1-fermi 0-gaus

 Electronic relaxation 2 (details)
   IALGO  =     38    algorithm
   LDIAG  =      T    sub-space diagonalisation (order eigenvalues)
   LSUBROT=      F    optimize rotation matrix (better conditioning)
   TURBO    =      0    0=normal 1=particle mesh
   IRESTART =      0    0=no restart 2=restart with 2 vectors
   NREBOOT  =      0    no. of reboots
   NMIN     =      0    reboot dimension
   EREF     =   0.00    reference energy to select bands
   IMIX   =      4    mixing-type and parameters
     AMIX     =   0.40;   BMIX     =  1.00
     AMIX_MAG =   1.60;   BMIX_MAG =  1.00
     AMIN     =   0.10
     WC   =   100.;   INIMIX=   1;  MIXPRE=   1;  MAXMIX= -45

 Intra band minimization:
   WEIMIN = 0.0000     energy-eigenvalue tresh-hold
   EBREAK =  0.13E-09  absolut break condition
   DEPER  =   0.30     relativ break condition  

   TIME   =   0.40     timestep for ELM

  volume/ion in A,a.u.               =      18.81       126.96
  Fermi-wavevector in a.u.,A,eV,Ry     =   1.231077  2.326398 20.620322  1.515551
  Thomas-Fermi vector in A             =   2.365901
 
 Write flags
   LWAVE        =      F    write WAVECAR
   LDOWNSAMPLE  =      F    k-point downsampling of WAVECAR
   LCHARG       =      F    write CHGCAR
   LVTOT        =      F    write LOCPOT, total local potential
   LVHAR        =      F    write LOCPOT, Hartree potential only
   LELF         =      F    write electronic localiz. function (ELF)
   LORBIT       =     11    0 simple, 1 ext, 2 COOP (PROOUT), +10 PAW based schemes


 Dipole corrections
   LMONO  =      F    monopole corrections only (constant potential shift)
   LDIPOL =      F    correct potential (dipole corrections)
   IDIPOL =      0    1-x, 2-y, 3-z, 4-all directions 
   EPSILON=  1.0000000 bulk dielectric constant

 Exchange correlation treatment:
   GGA     =    --    GGA type
   LEXCH   =     8    internal setting for exchange type
   VOSKOWN=      0    Vosko Wilk Nusair interpolation
   LHFCALC =     F    Hartree Fock is set to
   LHFONE  =     F    Hartree Fock one center treatment
   AEXX    =    0.0000 exact exchange contribution

 Linear response parameters
   LEPSILON=     F    determine dielectric tensor
   LRPA    =     F    only Hartree local field effects (RPA)
   LNABLA  =     F    use nabla operator in PAW spheres
   LVEL    =     F    velocity operator in full k-point grid
   LINTERFAST=   F  fast interpolation
   KINTER  =     0    interpolate to denser k-point grid
   CSHIFT  =0.1000    complex shift for real part using Kramers Kronig
   OMEGAMAX=  -1.0    maximum frequency
   DEG_THRESHOLD= 0.2000000E-02 threshold for treating states as degnerate
   RTIME   =   -0.100 relaxation time in fs
  (WPLASMAI=    0.000 imaginary part of plasma frequency in eV, 0.658/RTIME)
   DFIELD  = 0.0000000 0.0000000 0.0000000 field for delta impulse in time
 
 Orbital magnetization related:
   ORBITALMAG=     F  switch on orbital magnetization
   LCHIMAG   =     F  perturbation theory with respect to B field
   DQ        =  0.001000  dq finite difference perturbation B field
   LLRAUG    =     F  two centre corrections for induced B field



--------------------------------------------------------------------------------------------------------


 Static calculation
 charge density and potential will be updated during run
 spin polarized calculation
 Variant of blocked Davidson
 Davidson routine will perform the subspace rotation
 perform sub-space diagonalisation
    after iterative eigenvector-optimisation
 modified Broyden-mixing scheme, WC =      100.0
 initial mixing is a Kerker type mixing with AMIX =  0.4000 and BMIX =      1.0000
 Hartree-type preconditioning will be used
 using additional bands           36
 real space projection scheme for non local part
 use partial core corrections
 calculate Harris-corrections to forces 
   (improved forces if not selfconsistent)
 use gradient corrections 
 use of overlap-Matrix (Vanderbilt PP)
 Gauss-broadening in eV      SIGMA  =   0.20


--------------------------------------------------------------------------------------------------------


  energy-cutoff  :      520.00
  volume of cell :      752.52
      direct lattice vectors                 reciprocal lattice vectors
    12.775245568  0.000000000  0.000000000     0.078276382  0.045192789  0.000000000
    -6.387622784 11.063711963  0.000000000     0.000000000  0.090385578  0.000000000
     0.000000000  0.000000000  5.324128930     0.000000000  0.000000000  0.187824152

  length of vectors
    12.775245568 12.775267012  5.324128930     0.090385730  0.090385578  0.187824152


 
 k-points in units of 2pi/SCALE and weight: Automatic mesh                          
   0.00000000  0.00000000  0.00000000       0.062
   0.03913819  0.02259639  0.00000000       0.062
   0.00000000  0.04519279  0.00000000       0.062
   0.03913819  0.06778918  0.00000000       0.062
   0.00000000  0.00000000  0.04695604       0.125
   0.03913819  0.02259639  0.04695604       0.125
   0.00000000  0.04519279  0.04695604       0.125
   0.03913819  0.06778918  0.04695604       0.125
   0.00000000  0.00000000  0.09391208       0.062
   0.03913819  0.02259639  0.09391208       0.062
   0.00000000  0.04519279  0.09391208       0.062
   0.03913819  0.06778918  0.09391208       0.062
 
 k-points in reciprocal lattice and weights: Automatic mesh                          
   0.00000000  0.00000000  0.00000000       0.062
   0.50000000  0.00000000  0.00000000       0.062
   0.00000000  0.50000000  0.00000000       0.062
   0.50000000  0.50000000  0.00000000       0.062
   0.00000000  0.00000000  0.25000000       0.125
   0.50000000  0.00000000  0.25000000       0.125
   0.00000000  0.50000000  0.25000000       0.125
   0.50000000  0.50000000  0.25000000       0.125
   0.00000000  0.00000000  0.50000000       0.062
   0.50000000  0.00000000  0.50000000       0.062
   0.00000000  0.50000000  0.50000000       0.062
   0.50000000  0.50000000  0.50000000       0.062
 
 position of ions in fractional coordinates (direct lattice) 
   0.57007855  0.64016376  0.25000000
   0.07007855  0.64016376  0.25000000
   0.57007855  0.14016376  0.25000000
   0.07007855  0.14016376  0.25000000
   0.85983624  0.92992145  0.25000000
   0.35983624  0.92992145  0.25000000
   0.85983624  0.42992145  0.25000000
   0.35983624  0.42992145  0.25000000
   0.57008349  0.92991651  0.25000000
   0.07008349  0.92991651  0.25000000
   0.57008349  0.42991651  0.25000000
   0.07008349  0.42991651  0.25000000
   0.92992145  0.85983624  0.75000000
   0.42992145  0.85983624  0.75000000
   0.92992145  0.35983624  0.75000000
   0.42992145  0.35983624  0.75000000
   0.64016376  0.57007855  0.75000000
   0.14016376  0.57007855  0.75000000
   0.64016376  0.07007855  0.75000000
   0.14016376  0.07007855  0.75000000
   0.92991651  0.57008349  0.75000000
   0.42991651  0.57008349  0.75000000
   0.92991651  0.07008349  0.75000000
   0.42991651  0.07008349  0.75000000
   0.00000000  0.00000000  0.00000000
   0.50000000  0.00000000  0.00000000
   1.00000000  0.50000000  0.00000000
   0.50000000  0.50000000  0.00000000
   0.00000000  0.00000000  0.50000000
   0.50000000  0.00000000  0.50000000
   1.00000000  0.50000000  0.50000000
   0.50000000  0.50000000  0.50000000
   0.66666713  0.83333287  0.75000000
   0.16666713  0.83333287  0.75000000
   0.66666713  0.33333287  0.75000000
   0.16666713  0.33333287  0.75000000
   0.83333287  0.66666713  0.25000000
   0.33333287  0.66666713  0.25000000
   0.83333287  0.16666713  0.25000000
   0.33333287  0.16666713  0.25000000
 
 position of ions in cartesian coordinates  (Angst):
   3.19376888  7.08258743  1.33103223
  -3.19385391  7.08258743  1.33103223
   6.38758027  1.55073145  1.33103223
  -0.00004252  1.55073145  1.33103223
   5.04463170 10.28838306  1.33103223
  -1.34299108 10.28838306  1.33103223
   8.23844310  4.75652708  1.33103223
   1.85082031  4.75652708  1.33103223
   1.34300064 10.28832845  1.33103223
  -5.04462215 10.28832845  1.33103223
   4.53681203  4.75647247  1.33103223
  -1.85081076  4.75647247  1.33103223
   6.38766530  9.51298052  3.99309670
   0.00004252  9.51298052  3.99309670
   9.58147669  3.98112454  3.99309670
   3.19385391  3.98112454  3.99309670
   4.53680247  6.30718488  3.99309670
  -1.85082031  6.30718488  3.99309670
   7.73061386  0.77532890  3.99309670
   1.34299108  0.77532890  3.99309670
   8.23843354  6.30723949  3.99309670
   1.85081076  6.30723949  3.99309670
  11.43224493  0.77538351  3.99309670
   5.04462215  0.77538351  3.99309670
   0.00000000  0.00000000  0.00000000
   6.38762278  0.00000000  0.00000000
   9.58143418  5.53185598  0.00000000
   3.19381139  5.53185598  0.00000000
   0.00000000  0.00000000  2.66206446
   6.38762278  0.00000000  2.66206446
   9.58143418  5.53185598  2.66206446
   3.19381139  5.53185598  2.66206446
   3.19382031  9.21975482  3.99309670
  -3.19380247  9.21975482  3.99309670
   6.38763170  3.68789884  3.99309670
   0.00000892  3.68789884  3.99309670
   6.38761387  7.37581312  1.33103223
  -0.00000892  7.37581312  1.33103223
   9.58142526  1.84395714  1.33103223
   3.19380247  1.84395714  1.33103223
 


--------------------------------------------------------------------------------------------------------


 k-point  1 :   0.0000 0.0000 0.0000  plane waves:   20197
 k-point  2 :   0.5000 0.0000 0.0000  plane waves:   20226
 k-point  3 :   0.0000 0.5000 0.0000  plane waves:   20226
 k-point  4 :   0.5000 0.5000 0.0000  plane waves:   20226
 k-point  5 :   0.0000 0.0000 0.2500  plane waves:   20294
 k-point  6 :   0.5000 0.0000 0.2500  plane waves:   20258
 k-point  7 :   0.0000 0.5000 0.2500  plane waves:   20258
 k-point  8 :   0.5000 0.5000 0.2500  plane waves:   20258
 k-point  9 :   0.0000 0.0000 0.5000  plane waves:   20240
 k-point 10 :   0.5000 0.0000 0.5000  plane waves:   20320
 k-point 11 :   0.0000 0.5000 0.5000  plane waves:   20320
 k-point 12 :   0.5000 0.5000 0.5000  plane waves:   20320

 maximum and minimum number of plane-waves per node :       882      806

 maximum number of plane-waves:     20320
 maximum index in each direction: 
   IXMAX=   23   IYMAX=   23   IZMAX=    9
   IXMIN=  -24   IYMIN=  -24   IZMIN=  -10


 real space projection operators:
  total allocation   :      19689.81 KBytes
  max/ min on nodes  :        844.06        757.81


 parallel 3D FFT for wavefunctions:
    minimum data exchange during FFTs selected (reduces bandwidth)
 parallel 3D FFT for charge:
    minimum data exchange during FFTs selected (reduces bandwidth)


 total amount of memory used by VASP MPI-rank0    57743. kBytes
=======================================================================

   base      :      30000. kBytes
   nonlr-proj:       7318. kBytes
   fftplans  :       1046. kBytes
   grid      :       2759. kBytes
   one-center:         62. kBytes
   wavefun   :      16558. kBytes
 
     INWAV:  cpu time    0.0000: real time    0.0000
 Broyden mixing: mesh for mixing (old mesh)
   NGX = 47   NGY = 47   NGZ = 19
  (NGX  =140   NGY  =140   NGZ  = 60)
  gives a total of  41971 points

 initial charge density was supplied:
 charge density of overlapping atoms calculated
 number of electron     320.0000000 magnetization       3.2840000
 keeping initial charge density in first step


--------------------------------------------------------------------------------------------------------


 Maximum index for non-local projection operator          385
 Maximum index for augmentation-charges          485 (set IRDMAX)


--------------------------------------------------------------------------------------------------------


 First call to EWALD:  gamma=   0.195
 Maximum number of real-space cells 2x 2x 4
 Maximum number of reciprocal cells 4x 4x 2

    FEWALD:  cpu time    0.0019: real time    0.0019


--------------------------------------- Iteration      1(   1)  ---------------------------------------


    POTLOK:  cpu time    0.0829: real time    0.0897
    SETDIJ:  cpu time    0.0074: real time    0.0074
     EDDAV:  cpu time    7.6773: real time    7.7964
       DOS:  cpu time    0.0043: real time    0.0043
    --------------------------------------------
      LOOP:  cpu time    7.7719: real time    7.8979

 eigenvalue-minimisations  :  9408
 total energy-change (2. order) : 0.3921970E+04  (-0.1453995E+05)
 number of electron     320.0000000 magnetization       3.2840000
 augmentation part      320.0000000 magnetization       3.2840000

 Free energy of the ion-electron system (eV)
  ---------------------------------------------------
  alpha Z        PSCENC =      1278.33848294
  Ewald energy   TEWEN  =    -16011.11606870
  -Hartree energ DENC   =    -12510.24273293
  -exchange      EXHF   =         0.00000000
  -V(xc)+E(xc)   XCENC  =      1221.41187491
  PAW double counting   =     19640.54138542   -20241.63226317
  entropy T*S    EENTRO =        -0.14619202
  eigenvalues    EBANDS =      1649.07823899
  atomic energy  EATOM  =     28895.73697308
  Solvation  Ediel_sol  =         0.00000000
  ---------------------------------------------------
  free energy    TOTEN  =      3921.96969853 eV

  energy without entropy =     3922.11589055  energy(sigma->0) =     3922.04279454


--------------------------------------------------------------------------------------------------------




--------------------------------------- Iteration      1(   2)  ---------------------------------------


     EDDAV:  cpu time    7.8808: real time    7.9124
       DOS:  cpu time    0.0049: real time    0.0049
    --------------------------------------------
      LOOP:  cpu time    7.8857: real time    7.9173

 eigenvalue-minimisations  : 10032
 total energy-change (2. order) :-0.3444464E+04  (-0.3167659E+04)
 number of electron     320.0000000 magnetization       3.2840000
 augmentation part      320.0000000 magnetization       3.2840000

 Free energy of the ion-electron system (eV)
  ---------------------------------------------------
  alpha Z        PSCENC =      1278.33848294
  Ewald energy   TEWEN  =    -16011.11606870
  -Hartree energ DENC   =    -12510.24273293
  -exchange      EXHF   =         0.00000000
  -V(xc)+E(xc)   XCENC  =      1221.41187491
  PAW double counting   =     19640.54138542   -20241.63226317
  entropy T*S    EENTRO =        -0.29882236
  eigenvalues    EBANDS =     -1795.23306694
  atomic energy  EATOM  =     28895.73697308
  Solvation  Ediel_sol  =         0.00000000
  ---------------------------------------------------
  free energy    TOTEN  =       477.50576226 eV

  energy without entropy =      477.80458462  energy(sigma->0) =      477.65517344


--------------------------------------------------------------------------------------------------------




--------------------------------------- Iteration      1(   3)  ---------------------------------------


     EDDAV:  cpu time    7.8052: real time    7.8181
       DOS:  cpu time    0.0054: real time    0.0054
    --------------------------------------------
      LOOP:  cpu time    7.8106: real time    7.8234

 eigenvalue-minimisations  : 10220
 total energy-change (2. order) :-0.6506422E+03  (-0.6317703E+03)
 number of electron     320.0000000 magnetization       3.2840000
 augmentation part      320.0000000 magnetization       3.2840000

 Free energy of the ion-electron system (eV)
  ---------------------------------------------------
  alpha Z        PSCENC =      1278.33848294
  Ewald energy   TEWEN  =    -16011.11606870
  -Hartree energ DENC   =    -12510.24273293
  -exchange      EXHF   =         0.00000000
  -V(xc)+E(xc)   XCENC  =      1221.41187491
  PAW double counting   =     19640.54138542   -20241.63226317
  entropy T*S    EENTRO =        -0.36832044
  eigenvalues    EBANDS =     -2445.80578454
  atomic energy  EATOM  =     28895.73697308
  Solvation  Ediel_sol  =         0.00000000
  ---------------------------------------------------
  free energy    TOTEN  =      -173.13645342 eV

  energy without entropy =     -172.76813299  energy(sigma->0) =     -172.95229321


--------------------------------------------------------------------------------------------------------




--------------------------------------- Iteration      1(   4)  ---------------------------------------


     EDDAV:  cpu time    8.7990: real time    8.8818
       DOS:  cpu time    0.0050: real time    0.0050
    --------------------------------------------
      LOOP:  cpu time    8.8040: real time    8.8869

 eigenvalue-minimisations  : 10952
 total energy-change (2. order) :-0.3599697E+02  (-0.3535617E+02)
 number of electron     320.0000000 magnetization       3.2840000
 augmentation part      320.0000000 magnetization       3.2840000

 Free energy of the ion-electron system (eV)
  ---------------------------------------------------
  alpha Z        PSCENC =      1278.33848294
  Ewald energy   TEWEN  =    -16011.11606870
  -Hartree energ DENC   =    -12510.24273293
  -exchange      EXHF   =         0.00000000
  -V(xc)+E(xc)   XCENC  =      1221.41187491
  PAW double counting   =     19640.54138542   -20241.63226317
  entropy T*S    EENTRO =        -0.34048916
  eigenvalues    EBANDS =     -2481.83058696
  atomic energy  EATOM  =     28895.73697308
  Solvation  Ediel_sol  =         0.00000000
  ---------------------------------------------------
  free energy    TOTEN  =      -209.13342457 eV

  energy without entropy =     -208.79293540  energy(sigma->0) =     -208.96317998


--------------------------------------------------------------------------------------------------------




--------------------------------------- Iteration      1(   5)  ---------------------------------------


     EDDAV:  cpu time    8.9682: real time    9.0056
       DOS:  cpu time    0.0054: real time    0.0054
    CHARGE:  cpu time    0.3311: real time    0.3334
    MIXING:  cpu time    0.0019: real time    0.0019
    --------------------------------------------
      LOOP:  cpu time    9.3066: real time    9.3464

 eigenvalue-minimisations  : 11656
 total energy-change (2. order) :-0.1342085E+01  (-0.1334869E+01)
 number of electron     320.0000853 magnetization       3.5961016
 augmentation part       64.5824211 magnetization       2.6778066

 Broyden mixing:
  rms(total) = 0.37415E+01    rms(broyden)= 0.37377E+01
  rms(prec ) = 0.46463E+01
  weight for this iteration     100.00

 Free energy of the ion-electron system (eV)
  ---------------------------------------------------
  alpha Z        PSCENC =      1278.33848294
  Ewald energy   TEWEN  =    -16011.11606870
  -Hartree energ DENC   =    -12510.24273293
  -exchange      EXHF   =         0.00000000
  -V(xc)+E(xc)   XCENC  =      1221.41187491
  PAW double counting   =     19640.54138542   -20241.63226317
  entropy T*S    EENTRO =        -0.33899612
  eigenvalues    EBANDS =     -2483.17416471
  atomic energy  EATOM  =     28895.73697308
  Solvation  Ediel_sol  =         0.00000000
  ---------------------------------------------------
  free energy    TOTEN  =      -210.47550928 eV

  energy without entropy =     -210.13651316  energy(sigma->0) =     -210.30601122


--------------------------------------------------------------------------------------------------------




--------------------------------------- Iteration      1(   6)  ---------------------------------------


    POTLOK:  cpu time    0.0870: real time    0.0911
    SETDIJ:  cpu time    0.0076: real time    0.0076
     EDDAV:  cpu time    9.8323: real time    9.8932
       DOS:  cpu time    0.0053: real time    0.0053
    CHARGE:  cpu time    0.3153: real time    0.3153
    MIXING:  cpu time    0.0009: real time    0.0009
    --------------------------------------------
      LOOP:  cpu time   10.2485: real time   10.3135

 eigenvalue-minimisations  : 13248
 total energy-change (2. order) : 0.2717914E+02  (-0.2113281E+02)
 number of electron     320.0000821 magnetization       3.7081047
 augmentation part       66.3425966 magnetization       2.7658387

 Broyden mixing:
  rms(total) = 0.20692E+01    rms(broyden)= 0.20673E+01
  rms(prec ) = 0.22343E+01
  weight for this iteration     100.00

 eigenvalues of (default mixing * dielectric matrix)
  average eigenvalue GAMMA=   0.6005
  0.6005

 Free energy of the ion-electron system (eV)
  ---------------------------------------------------
  alpha Z        PSCENC =      1278.33848294
  Ewald energy   TEWEN  =    -16011.11606870
  -Hartree energ DENC   =    -12661.77753310
  -exchange      EXHF   =         0.00000000
  -V(xc)+E(xc)   XCENC  =      1242.29143340
  PAW double counting   =     20155.89553338   -20728.70438286
  entropy T*S    EENTRO =        -0.00045396
  eigenvalues    EBANDS =     -2353.96035086
  atomic energy  EATOM  =     28895.73697308
  Solvation  Ediel_sol  =         0.00000000
  ---------------------------------------------------
  free energy    TOTEN  =      -183.29636669 eV

  energy without entropy =     -183.29591273  energy(sigma->0) =     -183.29613971


--------------------------------------------------------------------------------------------------------




--------------------------------------- Iteration      1(   7)  ---------------------------------------


    POTLOK:  cpu time    0.0875: real time    0.0910
    SETDIJ:  cpu time    0.0067: real time    0.0067
     EDDAV:  cpu time    9.5137: real time    9.5526
       DOS:  cpu time    0.0049: real time    0.0050
    CHARGE:  cpu time    0.3408: real time    0.3410
    MIXING:  cpu time    0.0016: real time    0.0016
    --------------------------------------------
      LOOP:  cpu time    9.9554: real time    9.9980

 eigenvalue-minimisations  : 13008
 total energy-change (2. order) : 0.5878808E+00  (-0.3024221E+01)
 number of electron     320.0000821 magnetization       3.7853489
 augmentation part       64.3315773 magnetization       2.8962542

 Broyden mixing:
  rms(total) = 0.88190E+00    rms(broyden)= 0.88162E+00
  rms(prec ) = 0.95449E+00
  weight for this iteration     100.00

 eigenvalues of (default mixing * dielectric matrix)
  average eigenvalue GAMMA=   0.6590
  0.6590  0.6590

 Free energy of the ion-electron system (eV)
  ---------------------------------------------------
  alpha Z        PSCENC =      1278.33848294
  Ewald energy   TEWEN  =    -16011.11606870
  -Hartree energ DENC   =    -12690.62002046
  -exchange      EXHF   =         0.00000000
  -V(xc)+E(xc)   XCENC  =      1238.80976145
  PAW double counting   =     20306.26100615   -20910.28542101
  entropy T*S    EENTRO =        -0.00011439
  eigenvalues    EBANDS =     -2289.83308498
  atomic energy  EATOM  =     28895.73697308
  Solvation  Ediel_sol  =         0.00000000
  ---------------------------------------------------
  free energy    TOTEN  =      -182.70848592 eV

  energy without entropy =     -182.70837153  energy(sigma->0) =     -182.70842873


--------------------------------------------------------------------------------------------------------




--------------------------------------- Iteration      1(   8)  ---------------------------------------


    POTLOK:  cpu time    0.0876: real time    0.0914
    SETDIJ:  cpu time    0.0074: real time    0.0074
     EDDAV:  cpu time    8.9105: real time    8.9817
       DOS:  cpu time    0.0050: real time    0.0050
    CHARGE:  cpu time    0.2860: real time    0.2860
    MIXING:  cpu time    0.0008: real time    0.0008
    --------------------------------------------
      LOOP:  cpu time    9.2973: real time    9.3723

 eigenvalue-minimisations  : 11560
 total energy-change (2. order) :-0.3786440E+00  (-0.4475064E+00)
 number of electron     320.0000826 magnetization       3.9697750
 augmentation part       64.4281177 magnetization       3.1187364

 Broyden mixing:
  rms(total) = 0.47729E+00    rms(broyden)= 0.47716E+00
  rms(prec ) = 0.55408E+00
  weight for this iteration     100.00

 eigenvalues of (default mixing * dielectric matrix)
  average eigenvalue GAMMA=   1.0333
  1.7067  0.6965  0.6965

 Free energy of the ion-electron system (eV)
  ---------------------------------------------------
  alpha Z        PSCENC =      1278.33848294
  Ewald energy   TEWEN  =    -16011.11606870
  -Hartree energ DENC   =    -12677.64250788
  -exchange      EXHF   =         0.00000000
  -V(xc)+E(xc)   XCENC  =      1238.43023902
  PAW double counting   =     20355.87081065   -20965.95636915
  entropy T*S    EENTRO =        -0.00002700
  eigenvalues    EBANDS =     -2296.74866288
  atomic energy  EATOM  =     28895.73697308
  Solvation  Ediel_sol  =         0.00000000
  ---------------------------------------------------
  free energy    TOTEN  =      -183.08712993 eV

  energy without entropy =     -183.08710293  energy(sigma->0) =     -183.08711643


--------------------------------------------------------------------------------------------------------




--------------------------------------- Iteration      1(   9)  ---------------------------------------


    POTLOK:  cpu time    0.0887: real time    0.0888
    SETDIJ:  cpu time    0.0068: real time    0.0068
     EDDAV:  cpu time    9.4611: real time    9.4702
       DOS:  cpu time    0.0050: real time    0.0050
    CHARGE:  cpu time    0.2875: real time    0.2876
    MIXING:  cpu time    0.0012: real time    0.0012
    --------------------------------------------
      LOOP:  cpu time    9.8501: real time    9.8595

 eigenvalue-minimisations  : 12960
 total energy-change (2. order) : 0.8817365E-01  (-0.7172593E-01)
 number of electron     320.0000824 magnetization       3.9965473
 augmentation part       64.5853783 magnetization       3.1053312

 Broyden mixing:
  rms(total) = 0.21970E+00    rms(broyden)= 0.21967E+00
  rms(prec ) = 0.23934E+00
  weight for this iteration     100.00

 eigenvalues of (default mixing * dielectric matrix)
  average eigenvalue GAMMA=   1.1088
  2.4153  0.8012  0.6093  0.6093

 Free energy of the ion-electron system (eV)
  ---------------------------------------------------
  alpha Z        PSCENC =      1278.33848294
  Ewald energy   TEWEN  =    -16011.11606870
  -Hartree energ DENC   =    -12690.30471136
  -exchange      EXHF   =         0.00000000
  -V(xc)+E(xc)   XCENC  =      1240.11399009
  PAW double counting   =     20538.68500408   -21161.11876240
  entropy T*S    EENTRO =        -0.00000559
  eigenvalues    EBANDS =     -2273.33385842
  atomic energy  EATOM  =     28895.73697308
  Solvation  Ediel_sol  =         0.00000000
  ---------------------------------------------------
  free energy    TOTEN  =      -182.99895628 eV

  energy without entropy =     -182.99895069  energy(sigma->0) =     -182.99895348


--------------------------------------------------------------------------------------------------------




--------------------------------------- Iteration      1(  10)  ---------------------------------------


    POTLOK:  cpu time    0.0945: real time    0.0946
    SETDIJ:  cpu time    0.0067: real time    0.0067
     EDDAV:  cpu time    9.8643: real time    9.9249
       DOS:  cpu time    0.0048: real time    0.0048
    CHARGE:  cpu time    0.3850: real time    0.3854
    MIXING:  cpu time    0.0011: real time    0.0011
    --------------------------------------------
      LOOP:  cpu time   10.3564: real time   10.4176

 eigenvalue-minimisations  : 12696
 total energy-change (2. order) :-0.1937481E-01  (-0.2653987E-01)
 number of electron     320.0000826 magnetization       3.9965510
 augmentation part       64.4861166 magnetization       3.1128244

 Broyden mixing:
  rms(total) = 0.82104E-01    rms(broyden)= 0.82061E-01
  rms(prec ) = 0.98247E-01
  weight for this iteration     100.00

 eigenvalues of (default mixing * dielectric matrix)
  average eigenvalue GAMMA=   1.0997
  2.4473  1.0759  0.6583  0.6583  0.6586

 Free energy of the ion-electron system (eV)
  ---------------------------------------------------
  alpha Z        PSCENC =      1278.33848294
  Ewald energy   TEWEN  =    -16011.11606870
  -Hartree energ DENC   =    -12694.21634835
  -exchange      EXHF   =         0.00000000
  -V(xc)+E(xc)   XCENC  =      1240.08155916
  PAW double counting   =     20561.32656693   -21187.19635649
  entropy T*S    EENTRO =        -0.00000431
  eigenvalues    EBANDS =     -2265.97313535
  atomic energy  EATOM  =     28895.73697308
  Solvation  Ediel_sol  =         0.00000000
  ---------------------------------------------------
  free energy    TOTEN  =      -183.01833109 eV

  energy without entropy =     -183.01832678  energy(sigma->0) =     -183.01832894


--------------------------------------------------------------------------------------------------------




--------------------------------------- Iteration      1(  11)  ---------------------------------------


    POTLOK:  cpu time    0.0898: real time    0.0930
    SETDIJ:  cpu time    0.0250: real time    0.0250
     EDDAV:  cpu time    9.9590: real time    9.9975
       DOS:  cpu time    0.0048: real time    0.0048
    CHARGE:  cpu time    0.2812: real time    0.2814
    MIXING:  cpu time    0.0015: real time    0.0015
    --------------------------------------------
      LOOP:  cpu time   10.3613: real time   10.4032

 eigenvalue-minimisations  : 13120
 total energy-change (2. order) : 0.2116552E-02  (-0.4722280E-02)
 number of electron     320.0000827 magnetization       3.9985744
 augmentation part       64.4768319 magnetization       3.1227039

 Broyden mixing:
  rms(total) = 0.26102E-01    rms(broyden)= 0.26030E-01
  rms(prec ) = 0.31222E-01
  weight for this iteration     100.00

 eigenvalues of (default mixing * dielectric matrix)
  average eigenvalue GAMMA=   1.0869
  2.4642  1.0429  1.0429  0.6617  0.6617  0.6479

 Free energy of the ion-electron system (eV)
  ---------------------------------------------------
  alpha Z        PSCENC =      1278.33848294
  Ewald energy   TEWEN  =    -16011.11606870
  -Hartree energ DENC   =    -12694.45775638
  -exchange      EXHF   =         0.00000000
  -V(xc)+E(xc)   XCENC  =      1239.89920994
  PAW double counting   =     20556.28744252   -21182.44167337
  entropy T*S    EENTRO =        -0.00000616
  eigenvalues    EBANDS =     -2265.26281841
  atomic energy  EATOM  =     28895.73697308
  Solvation  Ediel_sol  =         0.00000000
  ---------------------------------------------------
  free energy    TOTEN  =      -183.01621454 eV

  energy without entropy =     -183.01620838  energy(sigma->0) =     -183.01621146


--------------------------------------------------------------------------------------------------------




--------------------------------------- Iteration      1(  12)  ---------------------------------------


    POTLOK:  cpu time    0.1161: real time    0.1194
    SETDIJ:  cpu time    0.0068: real time    0.0068
     EDDAV:  cpu time    8.3540: real time    8.4373
       DOS:  cpu time    0.0048: real time    0.0048
    CHARGE:  cpu time    0.2831: real time    0.2833
    MIXING:  cpu time    0.0017: real time    0.0017
    --------------------------------------------
      LOOP:  cpu time    8.7665: real time    8.8532

 eigenvalue-minimisations  : 10576
 total energy-change (2. order) :-0.3069250E-02  (-0.1244207E-02)
 number of electron     320.0000827 magnetization       3.9997386
 augmentation part       64.4791655 magnetization       3.1245517

 Broyden mixing:
  rms(total) = 0.13726E-01    rms(broyden)= 0.13705E-01
  rms(prec ) = 0.16993E-01
  weight for this iteration     100.00

 eigenvalues of (default mixing * dielectric matrix)
  average eigenvalue GAMMA=   1.1274
  2.4928  1.4401  1.0563  0.9250  0.6671  0.6671  0.6432

 Free energy of the ion-electron system (eV)
  ---------------------------------------------------
  alpha Z        PSCENC =      1278.33848294
  Ewald energy   TEWEN  =    -16011.11606870
  -Hartree energ DENC   =    -12696.68363523
  -exchange      EXHF   =         0.00000000
  -V(xc)+E(xc)   XCENC  =      1240.02362563
  PAW double counting   =     20556.81318747   -21182.96405826
  entropy T*S    EENTRO =        -0.00000517
  eigenvalues    EBANDS =     -2263.16778556
  atomic energy  EATOM  =     28895.73697308
  Solvation  Ediel_sol  =         0.00000000
  ---------------------------------------------------
  free energy    TOTEN  =      -183.01928379 eV

  energy without entropy =     -183.01927862  energy(sigma->0) =     -183.01928121


--------------------------------------------------------------------------------------------------------




--------------------------------------- Iteration      1(  13)  ---------------------------------------


    POTLOK:  cpu time    0.1010: real time    0.1047
    SETDIJ:  cpu time    0.0067: real time    0.0067
     EDDAV:  cpu time    8.6962: real time    8.7255
       DOS:  cpu time    0.0052: real time    0.0052
    CHARGE:  cpu time    0.2805: real time    0.2808
    MIXING:  cpu time    0.0015: real time    0.0015
    --------------------------------------------
      LOOP:  cpu time    9.0912: real time    9.1244

 eigenvalue-minimisations  : 11864
 total energy-change (2. order) :-0.9176787E-03  (-0.1444142E-03)
 number of electron     320.0000826 magnetization       4.0001119
 augmentation part       64.4776792 magnetization       3.1247702

 Broyden mixing:
  rms(total) = 0.71619E-02    rms(broyden)= 0.71534E-02
  rms(prec ) = 0.87500E-02
  weight for this iteration     100.00

 eigenvalues of (default mixing * dielectric matrix)
  average eigenvalue GAMMA=   1.1646
  2.5228  2.0703  1.0053  1.0053  0.6621  0.6621  0.6399  0.7489

 Free energy of the ion-electron system (eV)
  ---------------------------------------------------
  alpha Z        PSCENC =      1278.33848294
  Ewald energy   TEWEN  =    -16011.11606870
  -Hartree energ DENC   =    -12698.40580018
  -exchange      EXHF   =         0.00000000
  -V(xc)+E(xc)   XCENC  =      1240.12170794
  PAW double counting   =     20557.27855910   -21183.42271282
  entropy T*S    EENTRO =        -0.00000539
  eigenvalues    EBANDS =     -2261.55133745
  atomic energy  EATOM  =     28895.73697308
  Solvation  Ediel_sol  =         0.00000000
  ---------------------------------------------------
  free energy    TOTEN  =      -183.02020147 eV

  energy without entropy =     -183.02019608  energy(sigma->0) =     -183.02019878


--------------------------------------------------------------------------------------------------------




--------------------------------------- Iteration      1(  14)  ---------------------------------------


    POTLOK:  cpu time    0.0840: real time    0.0876
    SETDIJ:  cpu time    0.0067: real time    0.0067
     EDDAV:  cpu time    9.5854: real time    9.6568
       DOS:  cpu time    0.0049: real time    0.0049
    CHARGE:  cpu time    0.2789: real time    0.2791
    MIXING:  cpu time    0.0011: real time    0.0011
    --------------------------------------------
      LOOP:  cpu time    9.9611: real time   10.0363

 eigenvalue-minimisations  : 12656
 total energy-change (2. order) :-0.2461360E-03  (-0.3441864E-04)
 number of electron     320.0000826 magnetization       4.0001535
 augmentation part       64.4758438 magnetization       3.1248380

 Broyden mixing:
  rms(total) = 0.33571E-02    rms(broyden)= 0.33566E-02
  rms(prec ) = 0.43619E-02
  weight for this iteration     100.00

 eigenvalues of (default mixing * dielectric matrix)
  average eigenvalue GAMMA=   1.2144
  2.6596  2.4600  1.1346  1.1346  0.6658  0.6658  0.8669  0.6479  0.6944

 Free energy of the ion-electron system (eV)
  ---------------------------------------------------
  alpha Z        PSCENC =      1278.33848294
  Ewald energy   TEWEN  =    -16011.11606870
  -Hartree energ DENC   =    -12699.17080828
  -exchange      EXHF   =         0.00000000
  -V(xc)+E(xc)   XCENC  =      1240.15755440
  PAW double counting   =     20557.37457926   -21183.49205543
  entropy T*S    EENTRO =        -0.00000566
  eigenvalues    EBANDS =     -2260.84909922
  atomic energy  EATOM  =     28895.73697308
  Solvation  Ediel_sol  =         0.00000000
  ---------------------------------------------------
  free energy    TOTEN  =      -183.02044761 eV

  energy without entropy =     -183.02044195  energy(sigma->0) =     -183.02044478


--------------------------------------------------------------------------------------------------------




--------------------------------------- Iteration      1(  15)  ---------------------------------------


    POTLOK:  cpu time    0.0821: real time    0.0857
    SETDIJ:  cpu time    0.0067: real time    0.0067
     EDDAV:  cpu time    8.4253: real time    8.4381
       DOS:  cpu time    0.0047: real time    0.0047
    CHARGE:  cpu time    0.2816: real time    0.2821
    MIXING:  cpu time    0.0018: real time    0.0018
    --------------------------------------------
      LOOP:  cpu time    8.8022: real time    8.8192

 eigenvalue-minimisations  : 11380
 total energy-change (2. order) :-0.5228599E-04  (-0.8644611E-05)
 number of electron     320.0000826 magnetization       4.0001546
 augmentation part       64.4764972 magnetization       3.1248890

 Broyden mixing:
  rms(total) = 0.14464E-02    rms(broyden)= 0.14431E-02
  rms(prec ) = 0.22038E-02
  weight for this iteration     100.00

 eigenvalues of (default mixing * dielectric matrix)
  average eigenvalue GAMMA=   1.2083
  2.9000  2.4143  1.2280  1.2280  0.9018  0.6662  0.6662  0.6327  0.7228  0.7228

 Free energy of the ion-electron system (eV)
  ---------------------------------------------------
  alpha Z        PSCENC =      1278.33848294
  Ewald energy   TEWEN  =    -16011.11606870
  -Hartree energ DENC   =    -12699.36347783
  -exchange      EXHF   =         0.00000000
  -V(xc)+E(xc)   XCENC  =      1240.16604906
  PAW double counting   =     20557.00400095   -21183.09012174
  entropy T*S    EENTRO =        -0.00000584
  eigenvalues    EBANDS =     -2260.69633181
  atomic energy  EATOM  =     28895.73697308
  Solvation  Ediel_sol  =         0.00000000
  ---------------------------------------------------
  free energy    TOTEN  =      -183.02049989 eV

  energy without entropy =     -183.02049406  energy(sigma->0) =     -183.02049697


--------------------------------------------------------------------------------------------------------




--------------------------------------- Iteration      1(  16)  ---------------------------------------


    POTLOK:  cpu time    0.0843: real time    0.0879
    SETDIJ:  cpu time    0.0068: real time    0.0068
     EDDAV:  cpu time    9.6950: real time    9.7396
       DOS:  cpu time    0.0047: real time    0.0047
    CHARGE:  cpu time    0.2828: real time    0.2828
    MIXING:  cpu time    0.0013: real time    0.0013
    --------------------------------------------
      LOOP:  cpu time   10.0748: real time   10.1232

 eigenvalue-minimisations  : 12728
 total energy-change (2. order) :-0.9552386E-06  (-0.2633048E-05)
 number of electron     320.0000827 magnetization       4.0000884
 augmentation part       64.4777797 magnetization       3.1248370

 Broyden mixing:
  rms(total) = 0.73115E-03    rms(broyden)= 0.73036E-03
  rms(prec ) = 0.13722E-02
  weight for this iteration     100.00

 eigenvalues of (default mixing * dielectric matrix)
  average eigenvalue GAMMA=   1.1814
  2.9489  2.3895  1.2319  1.1259  1.1259  0.6662  0.6662  0.7843  0.7843  0.6669
  0.6054

 Free energy of the ion-electron system (eV)
  ---------------------------------------------------
  alpha Z        PSCENC =      1278.33848294
  Ewald energy   TEWEN  =    -16011.11606870
  -Hartree energ DENC   =    -12699.36159588
  -exchange      EXHF   =         0.00000000
  -V(xc)+E(xc)   XCENC  =      1240.16899065
  PAW double counting   =     20556.93779668   -21183.01784182
  entropy T*S    EENTRO =        -0.00000590
  eigenvalues    EBANDS =     -2260.70723189
  atomic energy  EATOM  =     28895.73697308
  Solvation  Ediel_sol  =         0.00000000
  ---------------------------------------------------
  free energy    TOTEN  =      -183.02050085 eV

  energy without entropy =     -183.02049495  energy(sigma->0) =     -183.02049790


--------------------------------------------------------------------------------------------------------




--------------------------------------- Iteration      1(  17)  ---------------------------------------


    POTLOK:  cpu time    0.0888: real time    0.0903
    SETDIJ:  cpu time    0.0068: real time    0.0067
     EDDAV:  cpu time   10.2714: real time   10.3209
       DOS:  cpu time    0.0047: real time    0.0047
    CHARGE:  cpu time    0.3014: real time    0.3017
    MIXING:  cpu time    0.0014: real time    0.0014
    --------------------------------------------
      LOOP:  cpu time   10.6744: real time   10.7257

 eigenvalue-minimisations  : 13488
 total energy-change (2. order) : 0.2179775E-05  (-0.7482228E-06)
 number of electron     320.0000826 magnetization       3.9999846
 augmentation part       64.4775062 magnetization       3.1246973

 Broyden mixing:
  rms(total) = 0.51782E-03    rms(broyden)= 0.51771E-03
  rms(prec ) = 0.93703E-03
  weight for this iteration     100.00

 eigenvalues of (default mixing * dielectric matrix)
  average eigenvalue GAMMA=   1.2186
  3.0022  2.3860  1.9481  1.1864  1.1864  0.9109  0.6669  0.6669  0.7200  0.7200
  0.5932  0.6364

 Free energy of the ion-electron system (eV)
  ---------------------------------------------------
  alpha Z        PSCENC =      1278.33848294
  Ewald energy   TEWEN  =    -16011.11606870
  -Hartree energ DENC   =    -12699.39140232
  -exchange      EXHF   =         0.00000000
  -V(xc)+E(xc)   XCENC  =      1240.17338432
  PAW double counting   =     20556.93516476   -21183.02117228
  entropy T*S    EENTRO =        -0.00000603
  eigenvalues    EBANDS =     -2260.67585442
  atomic energy  EATOM  =     28895.73697308
  Solvation  Ediel_sol  =         0.00000000
  ---------------------------------------------------
  free energy    TOTEN  =      -183.02049867 eV

  energy without entropy =     -183.02049263  energy(sigma->0) =     -183.02049565


--------------------------------------------------------------------------------------------------------




--------------------------------------- Iteration      1(  18)  ---------------------------------------


    POTLOK:  cpu time    0.0846: real time    0.0891
    SETDIJ:  cpu time    0.0069: real time    0.0069
     EDDAV:  cpu time   10.4030: real time   10.4389
       DOS:  cpu time    0.0046: real time    0.0046
    CHARGE:  cpu time    0.2837: real time    0.2837
    MIXING:  cpu time    0.0014: real time    0.0014
    --------------------------------------------
      LOOP:  cpu time   10.7842: real time   10.8247

 eigenvalue-minimisations  : 13608
 total energy-change (2. order) : 0.2358553E-05  (-0.4020245E-06)
 number of electron     320.0000826 magnetization       3.9999584
 augmentation part       64.4774497 magnetization       3.1246532

 Broyden mixing:
  rms(total) = 0.29504E-03    rms(broyden)= 0.29482E-03
  rms(prec ) = 0.53248E-03
  weight for this iteration     100.00

 eigenvalues of (default mixing * dielectric matrix)
  average eigenvalue GAMMA=   1.2260
  3.0787  2.4325  2.2786  1.2029  1.2029  0.9078  0.6646  0.6646  0.7815  0.7815
  0.6922  0.6505  0.5992

 Free energy of the ion-electron system (eV)
  ---------------------------------------------------
  alpha Z        PSCENC =      1278.33848294
  Ewald energy   TEWEN  =    -16011.11606870
  -Hartree energ DENC   =    -12699.38956665
  -exchange      EXHF   =         0.00000000
  -V(xc)+E(xc)   XCENC  =      1240.17397697
  PAW double counting   =     20556.85542686   -21182.94295885
  entropy T*S    EENTRO =        -0.00000615
  eigenvalues    EBANDS =     -2260.67675580
  atomic energy  EATOM  =     28895.73697308
  Solvation  Ediel_sol  =         0.00000000
  ---------------------------------------------------
  free energy    TOTEN  =      -183.02049631 eV

  energy without entropy =     -183.02049016  energy(sigma->0) =     -183.02049324


--------------------------------------------------------------------------------------------------------




--------------------------------------- Iteration      1(  19)  ---------------------------------------


    POTLOK:  cpu time    0.1012: real time    0.1045
    SETDIJ:  cpu time    0.0067: real time    0.0067
     EDDAV:  cpu time    8.8761: real time    8.8977
       DOS:  cpu time    0.0047: real time    0.0047
    CHARGE:  cpu time    0.3392: real time    0.3392
    MIXING:  cpu time    0.0021: real time    0.0021
    --------------------------------------------
      LOOP:  cpu time    9.3301: real time    9.3549

 eigenvalue-minimisations  : 12248
 total energy-change (2. order) : 0.7046692E-06  (-0.3380700E-06)
 number of electron     320.0000826 magnetization       3.9999688
 augmentation part       64.4774746 magnetization       3.1246582

 Broyden mixing:
  rms(total) = 0.22442E-03    rms(broyden)= 0.22439E-03
  rms(prec ) = 0.34648E-03
  weight for this iteration     100.00

 eigenvalues of (default mixing * dielectric matrix)
  average eigenvalue GAMMA=   1.2304
  3.1707  2.5990  2.2633  1.1636  1.1636  1.0980  1.0980  0.6662  0.6662  0.7260
  0.7260  0.6604  0.6119  0.6119

 Free energy of the ion-electron system (eV)
  ---------------------------------------------------
  alpha Z        PSCENC =      1278.33848294
  Ewald energy   TEWEN  =    -16011.11606870
  -Hartree energ DENC   =    -12699.38163342
  -exchange      EXHF   =         0.00000000
  -V(xc)+E(xc)   XCENC  =      1240.17330555
  PAW double counting   =     20556.83135017   -21182.91909828
  entropy T*S    EENTRO =        -0.00000619
  eigenvalues    EBANDS =     -2260.68380075
  atomic energy  EATOM  =     28895.73697308
  Solvation  Ediel_sol  =         0.00000000
  ---------------------------------------------------
  free energy    TOTEN  =      -183.02049560 eV

  energy without entropy =     -183.02048942  energy(sigma->0) =     -183.02049251


--------------------------------------------------------------------------------------------------------




--------------------------------------- Iteration      1(  20)  ---------------------------------------


    POTLOK:  cpu time    0.0832: real time    0.0865
    SETDIJ:  cpu time    0.0067: real time    0.0067
     EDDAV:  cpu time    8.6947: real time    8.7610
       DOS:  cpu time    0.0051: real time    0.0051
    CHARGE:  cpu time    0.3259: real time    0.3266
    MIXING:  cpu time    0.0018: real time    0.0018
    --------------------------------------------
      LOOP:  cpu time    9.1175: real time    9.1877

 eigenvalue-minimisations  : 10896
 total energy-change (2. order) : 0.5735128E-06  (-0.5703340E-07)
 number of electron     320.0000826 magnetization       3.9999821
 augmentation part       64.4774762 magnetization       3.1247088

 Broyden mixing:
  rms(total) = 0.12307E-03    rms(broyden)= 0.12299E-03
  rms(prec ) = 0.17019E-03
  weight for this iteration     100.00

 eigenvalues of (default mixing * dielectric matrix)
  average eigenvalue GAMMA=   1.2969
  3.5628  2.8899  2.2705  1.9540  1.1786  1.1786  0.9804  0.6653  0.6653  0.7390
  0.7390  0.7356  0.6933  0.6285  0.5724

 Free energy of the ion-electron system (eV)
  ---------------------------------------------------
  alpha Z        PSCENC =      1278.33848294
  Ewald energy   TEWEN  =    -16011.11606870
  -Hartree energ DENC   =    -12699.37710329
  -exchange      EXHF   =         0.00000000
  -V(xc)+E(xc)   XCENC  =      1240.17281419
  PAW double counting   =     20556.84947582   -21182.93706594
  entropy T*S    EENTRO =        -0.00000624
  eigenvalues    EBANDS =     -2260.68799689
  atomic energy  EATOM  =     28895.73697308
  Solvation  Ediel_sol  =         0.00000000
  ---------------------------------------------------
  free energy    TOTEN  =      -183.02049503 eV

  energy without entropy =     -183.02048880  energy(sigma->0) =     -183.02049191


--------------------------------------------------------------------------------------------------------




--------------------------------------- Iteration      1(  21)  ---------------------------------------


    POTLOK:  cpu time    0.0832: real time    0.0885
    SETDIJ:  cpu time    0.0067: real time    0.0067
     EDDAV:  cpu time    7.8595: real time    7.8740
       DOS:  cpu time    0.0048: real time    0.0048
    CHARGE:  cpu time    0.2807: real time    0.2807
    MIXING:  cpu time    0.0051: real time    0.0051
    --------------------------------------------
      LOOP:  cpu time    8.2400: real time    8.2597

 eigenvalue-minimisations  : 10240
 total energy-change (2. order) : 0.1023036E-06  (-0.6186883E-07)
 number of electron     320.0000826 magnetization       3.9999886
 augmentation part       64.4774824 magnetization       3.1247127

 Broyden mixing:
  rms(total) = 0.79833E-04    rms(broyden)= 0.79785E-04
  rms(prec ) = 0.96017E-04
  weight for this iteration     100.00

 eigenvalues of (default mixing * dielectric matrix)
  average eigenvalue GAMMA=   1.3233
  4.1953  2.9686  2.4059  1.8983  1.1632  1.1632  0.9587  0.9587  0.8219  0.6658
  0.6658  0.7269  0.7269  0.6414  0.6414  0.5701

 Free energy of the ion-electron system (eV)
  ---------------------------------------------------
  alpha Z        PSCENC =      1278.33848294
  Ewald energy   TEWEN  =    -16011.11606870
  -Hartree energ DENC   =    -12699.37493355
  -exchange      EXHF   =         0.00000000
  -V(xc)+E(xc)   XCENC  =      1240.17257223
  PAW double counting   =     20556.87105758   -21182.95920741
  entropy T*S    EENTRO =        -0.00000626
  eigenvalues    EBANDS =     -2260.68936484
  atomic energy  EATOM  =     28895.73697308
  Solvation  Ediel_sol  =         0.00000000
  ---------------------------------------------------
  free energy    TOTEN  =      -183.02049493 eV

  energy without entropy =     -183.02048867  energy(sigma->0) =     -183.02049180


--------------------------------------------------------------------------------------------------------




--------------------------------------- Iteration      1(  22)  ---------------------------------------


    POTLOK:  cpu time    0.0893: real time    0.0929
    SETDIJ:  cpu time    0.0067: real time    0.0067
     EDDAV:  cpu time    6.7626: real time    6.7658
       DOS:  cpu time    0.0050: real time    0.0050
    --------------------------------------------
      LOOP:  cpu time    6.8636: real time    6.8704

 eigenvalue-minimisations  :  7736
 total energy-change (2. order) :-0.7457857E-08  (-0.1939861E-07)
 number of electron     320.0000826 magnetization       3.9999886
 augmentation part       64.4774824 magnetization       3.1247127

 Free energy of the ion-electron system (eV)
  ---------------------------------------------------
  alpha Z        PSCENC =      1278.33848294
  Ewald energy   TEWEN  =    -16011.11606870
  -Hartree energ DENC   =    -12699.37569962
  -exchange      EXHF   =         0.00000000
  -V(xc)+E(xc)   XCENC  =      1240.17264579
  PAW double counting   =     20556.87939161   -21182.96822580
  entropy T*S    EENTRO =        -0.00000626
  eigenvalues    EBANDS =     -2260.68798798
  atomic energy  EATOM  =     28895.73697308
  Solvation  Ediel_sol  =         0.00000000
  ---------------------------------------------------
  free energy    TOTEN  =      -183.02049494 eV

  energy without entropy =     -183.02048867  energy(sigma->0) =     -183.02049180


--------------------------------------------------------------------------------------------------------




 average (electrostatic) potential at core
  the test charge radii are     0.7167  0.9791  1.1312
  (the norm of the test charge is              1.0000)
       1 -78.4139       2 -78.4156       3 -78.4157       4 -78.4155       5 -78.4157
       6 -78.4159       7 -78.4157       8 -78.4139       9 -78.4156      10 -78.4155
      11 -78.4138      12 -78.4154      13 -78.4155      14 -78.4157      15 -78.4156
      16 -78.4139      17 -78.4139      18 -78.4157      19 -78.4159      20 -78.4157
      21 -78.4154      22 -78.4138      23 -78.4155      24 -78.4156      25 -46.7720
      26 -46.7721      27 -46.7720      28 -46.8065      29 -46.7721      30 -46.7720
      31 -46.7720      32 -46.8066      33 -49.4754      34 -49.4751      35 -49.4754
      36 -49.4755      37 -49.4755      38 -49.4754      39 -49.4751      40 -49.4754
 
 
 
 E-fermi :   1.1127     XC(G=0):  -8.6945     alpha+bet : -7.8451


 spin component 1

 k-point     1 :       0.0000    0.0000    0.0000
  band No.  band energies     occupation 
      1     -22.3755      1.00000
      2     -22.3579      1.00000
      3     -22.2656      1.00000
      4     -22.1640      1.00000
      5     -22.0395      1.00000
      6     -22.0338      1.00000
      7     -21.9344      1.00000
      8     -21.9187      1.00000
      9     -21.9121      1.00000
     10     -21.9062      1.00000
     11     -21.8980      1.00000
     12     -21.8628      1.00000
     13     -21.8605      1.00000
     14     -21.8576      1.00000
     15     -21.8551      1.00000
     16     -21.8311      1.00000
     17     -21.8060      1.00000
     18     -21.8044      1.00000
     19     -21.7516      1.00000
     20     -21.7515      1.00000
     21     -21.7022      1.00000
     22     -21.7015      1.00000
     23     -21.6433      1.00000
     24     -21.6431      1.00000
     25     -19.7376      1.00000
     26     -19.7366      1.00000
     27     -19.7362      1.00000
     28     -19.7362      1.00000
     29     -19.7339      1.00000
     30     -19.7338      1.00000
     31     -19.7337      1.00000
     32     -19.7110      1.00000
     33      -7.0062      1.00000
     34      -7.0062      1.00000
     35      -6.9218      1.00000
     36      -6.8551      1.00000
     37      -6.8545      1.00000
     38      -6.8542      1.00000
     39      -6.7088      1.00000
     40      -6.7063      1.00000
     41      -6.7050      1.00000
     42      -6.6372      1.00000
     43      -6.6339      1.00000
     44      -6.6280      1.00000
     45      -6.6008      1.00000
     46      -6.6008      1.00000
     47      -6.5879      1.00000
     48      -6.5875      1.00000
     49      -6.5872      1.00000
     50      -6.5660      1.00000
     51      -6.5631      1.00000
     52      -6.5616      1.00000
     53      -6.4957      1.00000
     54      -6.4956      1.00000
     55      -6.4953      1.00000
     56      -6.4328      1.00000
     57      -5.7455      1.00000
     58      -5.6452      1.00000
     59      -5.5474      1.00000
     60      -5.4008      1.00000
     61      -5.1859      1.00000
     62      -5.1313      1.00000
     63      -5.0204      1.00000
     64      -4.8541      1.00000
     65      -4.7991      1.00000
     66      -4.7868      1.00000
     67      -4.7783      1.00000
     68      -4.6994      1.00000
     69      -4.6661      1.00000
     70      -4.6062      1.00000
     71      -4.5951      1.00000
     72      -4.5813      1.00000
     73      -4.5424      1.00000
     74      -4.5242      1.00000
     75      -4.5171      1.00000
     76      -4.5154      1.00000
     77      -4.4971      1.00000
     78      -4.4065      1.00000
     79      -4.1745      1.00000
     80      -4.1332      1.00000
     81      -4.0559      1.00000
     82      -4.0444      1.00000
     83      -4.0321      1.00000
     84      -4.0082      1.00000
     85      -3.9791      1.00000
     86      -3.9790      1.00000
     87      -3.9162      1.00000
     88      -3.8496      1.00000
     89      -3.7877      1.00000
     90      -3.7642      1.00000
     91      -3.7506      1.00000
     92      -3.7478      1.00000
     93      -3.7353      1.00000
     94      -3.7336      1.00000
     95      -3.7174      1.00000
     96      -3.7168      1.00000
     97      -3.6482      1.00000
     98      -3.6420      1.00000
     99      -3.6368      1.00000
    100      -3.6141      1.00000
    101      -3.5791      1.00000
    102      -3.5135      1.00000
    103      -3.4993      1.00000
    104      -3.4951      1.00000
    105      -3.3764      1.00000
    106      -3.3154      1.00000
    107      -3.1733      1.00000
    108      -3.1522      1.00000
    109      -3.0981      1.00000
    110      -3.0884      1.00000
    111      -3.0397      1.00000
    112      -3.0050      1.00000
    113      -2.9807      1.00000
    114      -2.9695      1.00000
    115      -2.8571      1.00000
    116      -2.8552      1.00000
    117      -2.8501      1.00000
    118      -2.8222      1.00000
    119      -2.7540      1.00000
    120      -2.6826      1.00000
    121      -2.6495      1.00000
    122      -2.6308      1.00000
    123      -2.5858      1.00000
    124      -2.5719      1.00000
    125      -2.5169      1.00000
    126      -2.5030      1.00000
[...]
   24        1.736   4.329   0.000   6.064
   25        0.296   0.367   8.176   8.839
   26        0.296   0.367   8.176   8.839
   27        0.296   0.367   8.176   8.839
   28        0.296   0.368   8.172   8.837
   29        0.296   0.367   8.176   8.839
   30        0.296   0.367   8.176   8.839
   31        0.296   0.367   8.176   8.839
   32        0.296   0.368   8.172   8.837
   33        1.838   4.719   0.017   6.574
   34        1.838   4.719   0.017   6.574
   35        1.838   4.719   0.017   6.574
   36        1.838   4.719   0.017   6.574
   37        1.838   4.719   0.017   6.574
   38        1.838   4.719   0.017   6.574
   39        1.838   4.719   0.017   6.574
   40        1.838   4.719   0.017   6.574
--------------------------------------------------
tot         58.728 144.580  65.541 268.850
 


 magnetization (x)
 
# of ion       s       p       d       tot
------------------------------------------
    1        0.000   0.000   0.000   0.000
    2        0.004   0.101   0.000   0.105
    3       -0.004  -0.101   0.000  -0.105
    4        0.004   0.101   0.000   0.105
    5        0.004   0.101   0.000   0.105
    6       -0.004  -0.100   0.000  -0.104
    7        0.004   0.101   0.000   0.105
    8        0.000   0.000   0.000   0.000
    9       -0.004  -0.101   0.000  -0.105
   10        0.004   0.101   0.000   0.105
   11        0.000   0.000   0.000   0.000
   12        0.004   0.101   0.000   0.105
   13        0.004   0.101   0.000   0.105
   14       -0.004  -0.101   0.000  -0.105
   15        0.004   0.101   0.000   0.105
   16        0.000   0.000   0.000   0.000
   17        0.000   0.000   0.000   0.000
   18        0.004   0.101   0.000   0.105
   19       -0.004  -0.100   0.000  -0.104
   20        0.004   0.101   0.000   0.105
   21        0.004   0.101   0.000   0.105
   22        0.000   0.000   0.000   0.000
   23        0.004   0.101   0.000   0.105
   24       -0.004  -0.101   0.000  -0.105
   25        0.000  -0.001   1.644   1.642
   26       -0.000   0.001  -1.644  -1.642
   27        0.000  -0.001   1.644   1.642
   28       -0.002  -0.002  -1.646  -1.650
   29        0.000  -0.001   1.644   1.642
   30       -0.000   0.001  -1.644  -1.642
   31        0.000  -0.001   1.644   1.642
   32        0.002   0.002   1.647   1.651
   33        0.000   0.000   0.000   0.000
   34        0.000   0.000   0.000   0.001
   35        0.000   0.000   0.000   0.000
   36        0.000   0.001   0.000   0.001
   37        0.000   0.001   0.000   0.001
   38        0.000   0.000   0.000   0.000
   39        0.000   0.000   0.000   0.001
   40        0.000   0.000   0.000   0.000
--------------------------------------------------
tot          0.025   0.604   3.288   3.917
 
    CHARGE:  cpu time    0.3186: real time    0.3234
    FORLOC:  cpu time    0.0037: real time    0.0037
    FORNL :  cpu time    1.0915: real time    1.0915
    STRESS:  cpu time    3.3337: real time    3.3656
    FORCOR:  cpu time    0.0725: real time    0.0731
    FORHAR:  cpu time    0.0107: real time    0.0107
    MIXING:  cpu time    0.0015: real time    0.0015
    OFIELD:  cpu time    0.0001: real time    0.0001

  FORCE on cell =-STRESS in cart. coord.  units (eV):
  Direction    XX          YY          ZZ          XY          YZ          ZX
  --------------------------------------------------------------------------------------
  Alpha Z  1278.33848  1278.33848  1278.33848
  Ewald   -7609.75632 -7610.00282  -791.44196    -0.20307    -0.00000     0.00000
  Hartree  2322.02700  2321.81210  8055.53147    -0.17835    -0.00023    -0.00039
  E(xc)   -1677.18759 -1677.18871 -1675.11905    -0.00114     0.00002     0.00003
  Local     556.95192   557.40262-11901.70673     0.37515     0.00042     0.00071
  n-local -1126.90594 -1126.90641 -1113.01629     0.00047     0.00016     0.00028
  augment   750.25488   750.25746   727.65821     0.00241    -0.00009    -0.00015
  Kinetic  5506.36140  5506.36749  5419.66893     0.00075    -0.00008    -0.00012
  Fock        0.00000     0.00000     0.00000     0.00000     0.00000     0.00000
  -------------------------------------------------------------------------------------
  Total       0.08384     0.08022    -0.08693    -0.00378     0.00019     0.00034
  in kB       0.17849     0.17078    -0.18509    -0.00805     0.00040     0.00073
  external pressure =        0.05 kB  Pullay stress =        0.00 kB


 VOLUME and BASIS-vectors are now :
 -----------------------------------------------------------------------------
  energy-cutoff  :      520.00
  volume of cell :      752.52
      direct lattice vectors                 reciprocal lattice vectors
    12.775245568  0.000000000  0.000000000     0.078276382  0.045192789  0.000000000
    -6.387622784 11.063711963  0.000000000     0.000000000  0.090385578  0.000000000
     0.000000000  0.000000000  5.324128930     0.000000000  0.000000000  0.187824152

  length of vectors
    12.775245568 12.775267012  5.324128930     0.090385730  0.090385578  0.187824152


 FORCES acting on ions
    electron-ion (+dipol)            ewald-force                    non-local-force                 convergence-correction
 -----------------------------------------------------------------------------------------------
   0.411E-03 -.392E+03 -.509E-04   -.107E-02 0.408E+03 -.641E-08   0.675E-03 -.164E+02 0.396E-04   -.492E-05 -.275E-03 -.151E-04
   0.949E-03 -.392E+03 -.128E-03   -.107E-02 0.408E+03 -.641E-08   0.262E-03 -.163E+02 0.118E-03   -.233E-05 -.274E-03 -.695E-05
   0.727E-03 -.392E+03 0.705E-04   -.107E-02 0.408E+03 -.641E-08   0.594E-03 -.163E+02 -.414E-04   -.162E-03 0.464E-04 -.837E-07
   0.631E-03 -.392E+03 -.945E-04   -.107E-02 0.408E+03 -.641E-08   0.341E-03 -.163E+02 0.520E-04   0.160E-03 0.831E-04 -.326E-04
   0.339E+03 0.196E+03 -.458E-04   -.354E+03 -.204E+03 -.641E-08   0.142E+02 0.817E+01 0.489E-04   0.620E-04 -.178E-03 -.331E-04
   0.339E+03 0.196E+03 0.133E-03   -.354E+03 -.204E+03 -.642E-08   0.142E+02 0.817E+01 -.115E-03   0.237E-03 0.108E-03 -.234E-05
   0.339E+03 0.196E+03 -.674E-04   -.354E+03 -.204E+03 -.642E-08   0.142E+02 0.817E+01 0.463E-04   -.151E-03 0.154E-03 -.756E-05
   0.339E+03 0.196E+03 -.106E-02   -.354E+03 -.204E+03 -.642E-08   0.142E+02 0.818E+01 0.883E-03   0.178E-03 0.139E-03 -.174E-04
   -.339E+03 0.196E+03 0.948E-04   0.354E+03 -.204E+03 -.641E-08   -.142E+02 0.817E+01 -.428E-04   -.928E-04 -.161E-03 -.666E-06
   -.339E+03 0.196E+03 -.828E-04   0.354E+03 -.204E+03 -.641E-08   -.142E+02 0.817E+01 0.121E-03   -.210E-03 0.873E-04 -.323E-04
   -.339E+03 0.196E+03 -.283E-04   0.354E+03 -.204E+03 -.641E-08   -.142E+02 0.818E+01 0.420E-04   -.182E-03 0.137E-03 -.164E-04
   -.339E+03 0.196E+03 -.943E-04   0.354E+03 -.204E+03 -.641E-08   -.142E+02 0.817E+01 0.514E-04   0.145E-03 0.155E-03 -.781E-05
   -.631E-03 0.392E+03 0.943E-04   0.107E-02 -.408E+03 -.641E-08   -.341E-03 0.163E+02 -.520E-04   -.160E-03 -.831E-04 0.326E-04
   -.727E-03 0.392E+03 -.707E-04   0.107E-02 -.408E+03 -.641E-08   -.594E-03 0.163E+02 0.414E-04   0.162E-03 -.464E-04 0.837E-07
   -.949E-03 0.392E+03 0.127E-03   0.107E-02 -.408E+03 -.641E-08   -.262E-03 0.163E+02 -.118E-03   0.233E-05 0.274E-03 0.695E-05
   -.411E-03 0.392E+03 0.508E-04   0.107E-02 -.408E+03 -.641E-08   -.675E-03 0.164E+02 -.396E-04   0.492E-05 0.275E-03 0.151E-04
   -.339E+03 -.196E+03 0.106E-02   0.354E+03 0.204E+03 -.642E-08   -.142E+02 -.818E+01 -.883E-03   -.178E-03 -.139E-03 0.174E-04
   -.339E+03 -.196E+03 0.673E-04   0.354E+03 0.204E+03 -.642E-08   -.142E+02 -.817E+01 -.463E-04   0.151E-03 -.154E-03 0.756E-05
   -.339E+03 -.196E+03 -.133E-03   0.354E+03 0.204E+03 -.642E-08   -.142E+02 -.817E+01 0.115E-03   -.237E-03 -.108E-03 0.234E-05
   -.339E+03 -.196E+03 0.456E-04   0.354E+03 0.204E+03 -.642E-08   -.142E+02 -.817E+01 -.489E-04   -.620E-04 0.178E-03 0.331E-04
   0.339E+03 -.196E+03 0.941E-04   -.354E+03 0.204E+03 -.641E-08   0.142E+02 -.817E+01 -.514E-04   -.145E-03 -.155E-03 0.781E-05
   0.339E+03 -.196E+03 0.281E-04   -.354E+03 0.204E+03 -.641E-08   0.142E+02 -.818E+01 -.420E-04   0.182E-03 -.137E-03 0.164E-04
   0.339E+03 -.196E+03 0.826E-04   -.354E+03 0.204E+03 -.641E-08   0.142E+02 -.817E+01 -.121E-03   0.210E-03 -.873E-04 0.323E-04
   0.339E+03 -.196E+03 -.949E-04   -.354E+03 0.204E+03 -.641E-08   0.142E+02 -.817E+01 0.428E-04   0.928E-04 0.161E-03 0.666E-06
   -.465E-10 0.972E-09 -.322E-08   0.265E-09 -.724E-08 0.206E-07   0.000E+00 0.000E+00 0.000E+00   0.971E-12 0.212E-09 0.304E-11
   -.448E-10 0.972E-09 -.322E-08   0.265E-09 -.724E-08 0.206E-07   0.165E-23 0.000E+00 0.000E+00   0.711E-12 0.212E-09 0.314E-11
   -.159E-08 0.665E-08 -.224E-08   0.874E-08 0.171E-08 0.100E-07   0.258E-24 0.000E+00 0.000E+00   0.328E-11 -.192E-09 -.485E-11
   -.158E-08 0.666E-08 -.221E-08   0.874E-08 0.171E-08 0.100E-07   0.000E+00 0.000E+00 0.000E+00   0.284E-11 -.192E-09 -.474E-11
   -.469E-10 0.972E-09 -.368E-08   0.267E-09 -.724E-08 0.181E-07   0.000E+00 0.000E+00 0.000E+00   0.849E-12 0.212E-09 -.330E-11
   -.453E-10 0.972E-09 -.368E-08   0.267E-09 -.724E-08 0.181E-07   0.000E+00 0.000E+00 0.000E+00   0.621E-12 0.212E-09 -.345E-11
   -.159E-08 0.665E-08 -.469E-08   0.874E-08 0.171E-08 0.287E-07   0.000E+00 0.000E+00 0.000E+00   0.314E-11 -.192E-09 0.457E-11
   -.159E-08 0.666E-08 -.468E-08   0.874E-08 0.171E-08 0.287E-07   0.124E-23 0.000E+00 0.000E+00   0.276E-11 -.192E-09 0.443E-11
   -.763E-02 0.703E-02 -.255E-05   0.754E-02 -.538E-02 -.113E-09   0.121E-03 -.472E-03 -.157E-05   0.659E-05 -.359E-03 0.363E-05
   -.766E-02 0.548E-02 -.322E-05   0.754E-02 -.538E-02 -.113E-09   0.122E-03 -.969E-04 0.548E-06   -.717E-05 -.424E-04 0.341E-05
   -.631E-02 0.467E-02 -.135E-05   0.754E-02 -.538E-02 -.113E-09   -.202E-03 0.751E-04 -.146E-05   -.267E-03 0.215E-03 0.268E-05
   -.898E-02 0.465E-02 -.428E-04   0.754E-02 -.538E-02 -.113E-09   0.444E-03 0.753E-04 0.124E-03   0.263E-03 0.205E-03 0.395E-05
   0.898E-02 -.465E-02 0.427E-04   -.754E-02 0.538E-02 -.113E-09   -.444E-03 -.753E-04 -.124E-03   -.263E-03 -.205E-03 -.395E-05
   0.631E-02 -.467E-02 0.129E-05   -.754E-02 0.538E-02 -.113E-09   0.202E-03 -.751E-04 0.146E-05   0.267E-03 -.215E-03 -.268E-05
   0.766E-02 -.548E-02 0.316E-05   -.754E-02 0.538E-02 -.113E-09   -.122E-03 0.969E-04 -.548E-06   0.717E-05 0.424E-04 -.341E-05
   0.763E-02 -.703E-02 0.249E-05   -.754E-02 0.538E-02 -.113E-09   -.121E-03 0.472E-03 0.157E-05   -.659E-05 0.359E-03 -.363E-05
 -----------------------------------------------------------------------------------------------
   0.289E-07 0.200E-05 -.239E-05   0.541E-12 0.107E-12 -.791E-14   0.000E+00 -.533E-14 0.000E+00   0.212E-10 0.976E-10 0.251E-10
 
 
 POSITION                                       TOTAL-FORCE (eV/Angst)
 -----------------------------------------------------------------------------------
      3.19377      7.08259      1.33103         0.000008      0.012673     -0.000026
     -3.19385      7.08259      1.33103         0.000136      0.001865     -0.000016
      6.38758      1.55073      1.33103         0.000086      0.001788      0.000029
     -0.00004      1.55073      1.33103         0.000059      0.001717     -0.000075
      5.04463     10.28838      1.33103        -0.001650     -0.000863     -0.000030
     -1.34299     10.28838      1.33103        -0.001711     -0.000987      0.000016
      8.23844      4.75653      1.33103        -0.001572     -0.001003     -0.000029
      1.85082      4.75653      1.33103        -0.011005     -0.006358     -0.000198
      1.34300     10.28833      1.33103         0.001464     -0.000746      0.000051
     -5.04462     10.28833      1.33103         0.001549     -0.000736      0.000006
      4.53681      4.75647      1.33103         0.010839     -0.006252     -0.000003
     -1.85081      4.75647      1.33103         0.001393     -0.000740     -0.000051
      6.38767      9.51298      3.99310        -0.000059     -0.001717      0.000075
      0.00004      9.51298      3.99310        -0.000086     -0.001788     -0.000029
      9.58148      3.98112      3.99310        -0.000136     -0.001865      0.000016
      3.19385      3.98112      3.99310        -0.000008     -0.012673      0.000026
      4.53680      6.30718      3.99310         0.011005      0.006358      0.000198
     -1.85082      6.30718      3.99310         0.001572      0.001003      0.000029
      7.73061      0.77533      3.99310         0.001711      0.000987     -0.000016
      1.34299      0.77533      3.99310         0.001650      0.000863      0.000030
      8.23843      6.30724      3.99310        -0.001393      0.000740      0.000051
      1.85081      6.30724      3.99310        -0.010839      0.006252      0.000003
     11.43224      0.77538      3.99310        -0.001549      0.000736     -0.000006
      5.04462      0.77538      3.99310        -0.001464      0.000746     -0.000051
      0.00000      0.00000      0.00000        -0.000000     -0.000000      0.000000
      6.38762      0.00000      0.00000        -0.000000     -0.000000      0.000000
      9.58143      5.53186      0.00000        -0.000000     -0.000000      0.000000
      3.19381      5.53186      0.00000        -0.000000     -0.000000      0.000000
      0.00000      0.00000      2.66206        -0.000000     -0.000000      0.000000
      6.38762      0.00000      2.66206        -0.000000     -0.000000      0.000000
      9.58143      5.53186      2.66206        -0.000000     -0.000000      0.000000
      3.19381      5.53186      2.66206        -0.000000     -0.000000      0.000000
      3.19382      9.21975      3.99310         0.000038      0.000819     -0.000000
     -3.19380      9.21975      3.99310        -0.000005     -0.000034      0.000001
      6.38763      3.68790      3.99310         0.000762     -0.000421     -0.000000
      0.00001      3.68790      3.99310        -0.000730     -0.000446      0.000085
      6.38761      7.37581      1.33103         0.000730      0.000446     -0.000085
     -0.00001      7.37581      1.33103        -0.000762      0.000421      0.000000
      9.58143      1.84396      1.33103         0.000005      0.000034     -0.000001
      3.19380      1.84396      1.33103        -0.000038     -0.000819      0.000000
 -----------------------------------------------------------------------------------
    total drift:                                0.000000      0.000002     -0.000002


--------------------------------------------------------------------------------------------------------



  FREE ENERGIE OF THE ION-ELECTRON SYSTEM (eV)
  ---------------------------------------------------
  free  energy   TOTEN  =      -183.02049494 eV

  energy  without entropy=     -183.02048867  energy(sigma->0) =     -183.02049180
 


--------------------------------------------------------------------------------------------------------


    POTLOK:  cpu time    0.0961: real time    0.0961


--------------------------------------------------------------------------------------------------------


     LOOP+:  cpu time  208.3427: real time  209.4476
    4ORBIT:  cpu time    0.0000: real time    0.0000
 


 total charge     
 
# of ion       s       p       d       tot
------------------------------------------
    1        1.736   4.329   0.000   6.065
    2        1.736   4.329   0.000   6.064
    3        1.736   4.329   0.000   6.064
    4        1.736   4.329   0.000   6.064
    5        1.736   4.329   0.000   6.064
    6        1.736   4.329   0.000   6.064
    7        1.736   4.329   0.000   6.064
    8        1.736   4.329   0.000   6.065
    9        1.736   4.329   0.000   6.064
   10        1.736   4.329   0.000   6.064
   11        1.736   4.329   0.000   6.065
   12        1.736   4.329   0.000   6.064
   13        1.736   4.329   0.000   6.064
   14        1.736   4.329   0.000   6.064
   15        1.736   4.329   0.000   6.064
   16        1.736   4.329   0.000   6.065
   17        1.736   4.329   0.000   6.065
   18        1.736   4.329   0.000   6.064
   19        1.736   4.329   0.000   6.064
   20        1.736   4.329   0.000   6.064
   21        1.736   4.329   0.000   6.064
   22        1.736   4.329   0.000   6.065
   23        1.736   4.329   0.000   6.064
   24        1.736   4.329   0.000   6.064
   25        0.296   0.367   8.176   8.839
   26        0.296   0.367   8.176   8.839
   27        0.296   0.367   8.176   8.839
   28        0.296   0.368   8.172   8.837
   29        0.296   0.367   8.176   8.839
   30        0.296   0.367   8.176   8.839
   31        0.296   0.367   8.176   8.839
   32        0.296   0.368   8.172   8.837
   33        1.838   4.719   0.017   6.574
   34        1.838   4.719   0.017   6.574
   35        1.838   4.719   0.017   6.574
   36        1.838   4.719   0.017   6.574
   37        1.838   4.719   0.017   6.574
   38        1.838   4.719   0.017   6.574
   39        1.838   4.719   0.017   6.574
   40        1.838   4.719   0.017   6.574
--------------------------------------------------
tot         58.728 144.580  65.541 268.850
 


 magnetization (x)
 
# of ion       s       p       d       tot
------------------------------------------
    1        0.000   0.000   0.000   0.000
    2        0.004   0.101   0.000   0.105
    3       -0.004  -0.101   0.000  -0.105
    4        0.004   0.101   0.000   0.105
    5        0.004   0.101   0.000   0.105
    6       -0.004  -0.100   0.000  -0.104
    7        0.004   0.101   0.000   0.105
    8        0.000   0.000   0.000   0.000
    9       -0.004  -0.101   0.000  -0.105
   10        0.004   0.101   0.000   0.105
   11        0.000   0.000   0.000   0.000
   12        0.004   0.101   0.000   0.105
   13        0.004   0.101   0.000   0.105
   14       -0.004  -0.101   0.000  -0.105
   15        0.004   0.101   0.000   0.105
   16        0.000   0.000   0.000   0.000
   17        0.000   0.000   0.000   0.000
   18        0.004   0.101   0.000   0.105
   19       -0.004  -0.100   0.000  -0.104
   20        0.004   0.101   0.000   0.105
   21        0.004   0.101   0.000   0.105
   22        0.000   0.000   0.000   0.000
   23        0.004   0.101   0.000   0.105
   24       -0.004  -0.101   0.000  -0.105
   25        0.000  -0.001   1.644   1.642
   26       -0.000   0.001  -1.644  -1.642
   27        0.000  -0.001   1.644   1.642
   28       -0.002  -0.002  -1.646  -1.650
   29        0.000  -0.001   1.644   1.642
   30       -0.000   0.001  -1.644  -1.642
   31        0.000  -0.001   1.644   1.642
   32        0.002   0.002   1.647   1.651
   33        0.000   0.000   0.000   0.000
   34        0.000   0.000   0.000   0.001
   35        0.000   0.000   0.000   0.000
   36        0.000   0.001   0.000   0.001
   37        0.000   0.001   0.000   0.001
   38        0.000   0.000   0.000   0.000
   39        0.000   0.000   0.000   0.001
   40        0.000   0.000   0.000   0.000
--------------------------------------------------
tot          0.025   0.604   3.288   3.917
 

 total amount of memory used by VASP MPI-rank0    57743. kBytes
=======================================================================

   base      :      30000. kBytes
   nonlr-proj:       7318. kBytes
   fftplans  :       1046. kBytes
   grid      :       2759. kBytes
   one-center:         62. kBytes
   wavefun   :      16558. kBytes
 
  
  
 General timing and accounting informations for this job:
 ========================================================
  
                  Total CPU time used (sec):      221.984
                            User time (sec):      217.088
                          System time (sec):        4.896
                         Elapsed time (sec):      227.292
  
                   Maximum memory used (kb):      141308.
                   Average memory used (kb):           0.
  
                          Minor page faults:        58423
                          Major page faults:           14
                 Voluntary context switches:         3557
