 vasp.5.4.4.18Apr17-6-g9f103f2a35 (build Dec 20 2018 12:05:58) complex          
  
 executed on             LinuxIFC date 2019.06.20  22:22:55
 running on   32 total cores
 distrk:  each k-point on    8 cores,    4 groups
 distr:  one band on NCORES_PER_BAND=   4 cores,    2 groups


--------------------------------------------------------------------------------------------------------


 INCAR:
 POTCAR:    PAW_PBE Al 04Jan2001                  
 POTCAR:    PAW_PBE Mn 06Sep2000                  

 ----------------------------------------------------------------------------- 
|                                                                             |
|           W    W    AA    RRRRR   N    N  II  N    N   GGGG   !!!           |
|           W    W   A  A   R    R  NN   N  II  NN   N  G    G  !!!           |
|           W    W  A    A  R    R  N N  N  II  N N  N  G       !!!           |
|           W WW W  AAAAAA  RRRRR   N  N N  II  N  N N  G  GGG   !            |
|           WW  WW  A    A  R   R   N   NN  II  N   NN  G    G                |
|           W    W  A    A  R    R  N    N  II  N    N   GGGG   !!!           |
|                                                                             |
|      You have enabled k-point parallelism (KPAR>1).                         |
|      This developmental code was originally  written by Paul Kent at ORNL,  |
|      and carefully double checked in Vienna.                                |
|      GW as well as linear response parallelism added by Martijn Marsman     |
|      and Georg Kresse.                                                      |
|      Carefully verify results versus KPAR=1.                                |
|      Report problems to Paul Kent and Vienna.                               |
|                                                                             |
 ----------------------------------------------------------------------------- 

 POTCAR:    PAW_PBE Al 04Jan2001                  
   VRHFIN =Al: s2p1                                                             
   LEXCH  = PE                                                                  
   EATOM  =    53.5387 eV,    3.9350 Ry                                         
                                                                                
   TITEL  = PAW_PBE Al 04Jan2001                                                
   LULTRA =        F    use ultrasoft PP ?                                      
   IUNSCR =        1    unscreen: 0-lin 1-nonlin 2-no                           
   RPACOR =    1.500    partial core radius                                     
   POMASS =   26.981; ZVAL   =    3.000    mass and valenz                      
   RCORE  =    1.900    outmost cutoff radius                                   
   RWIGS  =    2.650; RWIGS  =    1.402    wigner-seitz radius (au A)           
   ENMAX  =  240.300; ENMIN  =  180.225 eV                                      
   ICORE  =        2    local potential                                         
   LCOR   =        T    correct aug charges                                     
   LPAW   =        T    paw PP                                                  
   EAUG   =  291.052                                                            
   DEXC   =    0.000                                                            
   RMAX   =    1.939    core radius for proj-oper                               
   RAUG   =    1.300    factor for augmentation sphere                          
   RDEP   =    1.966    radius for radial grids                                 
   RDEPT  =    1.856    core radius for aug-charge                              
                                                                                
   Atomic configuration                                                         
    6 entries                                                                   
     n  l   j            E        occ.                                          
     1  0  0.50     -1511.1048   2.0000                                         
     2  0  0.50      -108.1629   2.0000                                         
     2  1  1.50       -69.6402   6.0000                                         
     3  0  0.50        -7.7528   2.0000                                         
     3  1  1.50        -2.7121   1.0000                                         
     3  2  2.50        -2.7212   0.0000                                         
   Description                                                                  
     l       E           TYP  RCUT    TYP  RCUT                                 
     0     -7.7528455     23  1.900                                             
     0     -3.3096929     23  1.900                                             
     1     -2.7120682     23  1.900                                             
     1     13.6058260     23  1.900                                             
     2     -2.7211652      7  1.900                                             
  local pseudopotential read in
  partial core-charges read in
  partial kinetic energy density read in
  atomic valenz-charges read in
  non local Contribution for L=           0  read in
    real space projection operators read in
  non local Contribution for L=           0  read in
    real space projection operators read in
  non local Contribution for L=           1  read in
    real space projection operators read in
  non local Contribution for L=           1  read in
    real space projection operators read in
    PAW grid and wavefunctions read in
 
   number of l-projection  operators is LMAX  =           4
   number of lm-projection operators is LMMAX =           8
 
 POTCAR:    PAW_PBE Mn 06Sep2000                  
   VRHFIN =Mn: d6 s1                                                            
   LEXCH  = PE                                                                  
   EATOM  =   416.7541 eV,   30.6306 Ry                                         
                                                                                
   TITEL  = PAW_PBE Mn 06Sep2000                                                
   LULTRA =        F    use ultrasoft PP ?                                      
   IUNSCR =        1    unscreen: 0-lin 1-nonlin 2-no                           
   RPACOR =    2.000    partial core radius                                     
   POMASS =   54.938; ZVAL   =    7.000    mass and valenz                      
   RCORE  =    2.300    outmost cutoff radius                                   
   RWIGS  =    2.500; RWIGS  =    1.323    wigner-seitz radius (au A)           
   ENMAX  =  269.864; ENMIN  =  202.398 eV                                      
   RCLOC  =    1.725    cutoff for local pot                                    
   LCOR   =        T    correct aug charges                                     
   LPAW   =        T    paw PP                                                  
   EAUG   =  500.711                                                            
   DEXC   =    0.000                                                            
   RMAX   =    2.343    core radius for proj-oper                               
   RAUG   =    1.300    factor for augmentation sphere                          
   RDEP   =    2.338    radius for radial grids                                 
   RDEPT  =    1.911    core radius for aug-charge                              
                                                                                
   Atomic configuration                                                         
    9 entries                                                                   
     n  l   j            E        occ.                                          
     1  0  0.50     -6424.8288   2.0000                                         
     2  0  0.50      -739.1154   2.0000                                         
     2  1  1.50      -625.3949   6.0000                                         
     3  0  0.50       -81.6100   2.0000                                         
     3  1  1.50       -50.4667   6.0000                                         
     3  2  2.50        -3.3745   6.0000                                         
     4  0  0.50        -4.1331   1.0000                                         
     4  1  0.50        -4.0817   0.0000                                         
     4  3  2.50        -1.3606   0.0000                                         
   Description                                                                  
     l       E           TYP  RCUT    TYP  RCUT                                 
     2     -3.3744664     23  2.300                                             
     2     -4.7350490     23  2.300                                             
     0     -4.1331408     23  2.300                                             
     0      7.6656614     23  2.300                                             
     1     -2.7211652     23  2.300                                             
     1     20.4087390     23  2.300                                             
  local pseudopotential read in
  partial core-charges read in
  partial kinetic energy density read in
  atomic valenz-charges read in
  non local Contribution for L=           2  read in
    real space projection operators read in
  non local Contribution for L=           2  read in
    real space projection operators read in
  non local Contribution for L=           0  read in
    real space projection operators read in
  non local Contribution for L=           0  read in
    real space projection operators read in
  non local Contribution for L=           1  read in
    real space projection operators read in
  non local Contribution for L=           1  read in
    real space projection operators read in
    PAW grid and wavefunctions read in
 
   number of l-projection  operators is LMAX  =           6
   number of lm-projection operators is LMMAX =          18
 

 ----------------------------------------------------------------------------- 
|                                                                             |
|  ADVICE TO THIS USER RUNNING 'VASP/VAMP'   (HEAR YOUR MASTER'S VOICE ...):  |
|                                                                             |
|      You have a (more or less) 'large supercell' and for larger cells       |
|      it might be more efficient to use real space projection opertators     |
|      So try LREAL= Auto  in the INCAR   file.                               |
|      Mind:          For very  accurate calculation you might also keep the  |
|      reciprocal projection scheme          (i.e. LREAL=.FALSE.)             |
|                                                                             |
 ----------------------------------------------------------------------------- 

  PAW_PBE Al 04Jan2001                  :
 energy of atom  1       EATOM=  -53.5387
 kinetic energy error for atom=    0.0005 (will be added to EATOM!!)
  PAW_PBE Mn 06Sep2000                  :
 energy of atom  2       EATOM= -416.7541
 kinetic energy error for atom=    0.0080 (will be added to EATOM!!)
 
 
 POSCAR: NewRef: 27, @ ['Mn', array([1.37502469, 
  positions in cartesian coordinates
  velocities in cartesian coordinates
  No initial velocities read in
 exchange correlation table for  LEXCH =        8
   RHO(1)=    0.500       N(1)  =     2000
   RHO(2)=  100.500       N(2)  =     4000
 


--------------------------------------------------------------------------------------------------------


 ion  position               nearest neighbor table
   1  0.000  0.000  0.000-  28 2.61  30 2.61  34 2.61  36 2.61  46 2.61  48 2.61  52 2.61  54 2.61
                             4 2.75  10 2.75   7 2.75  19 2.75
   2  0.000  0.000  0.333-  28 2.61  34 2.61  46 2.61  52 2.61  29 2.61  47 2.61  35 2.61  53 2.61
                             5 2.75  11 2.75   8 2.75  20 2.75
   3  0.000  0.000  0.667-  29 2.61  35 2.61  47 2.61  53 2.61  30 2.61  48 2.61  36 2.61  54 2.61
                             6 2.75  12 2.75   9 2.75  21 2.75
   4  0.000  0.333  0.000-  28 2.61  30 2.61  46 2.61  48 2.61  31 2.61  33 2.61  49 2.61  51 2.61
                            13 2.75   1 2.75   7 2.75  22 2.75
   5  0.000  0.333  0.333-  28 2.61  46 2.61  31 2.61  49 2.61  47 2.61  29 2.61  32 2.61  50 2.61
                            14 2.75   2 2.75   8 2.75  23 2.75
   6  0.000  0.333  0.667-  29 2.61  47 2.61  32 2.61  50 2.61  48 2.61  30 2.61  33 2.61  51 2.61
                            15 2.75   3 2.75   9 2.75  24 2.75
   7  0.000  0.667  0.000-  31 2.61  33 2.61  49 2.61  51 2.61  34 2.61  36 2.61  52 2.61  54 2.61
                             4 2.75  16 2.75   1 2.75  25 2.75
   8  0.000  0.667  0.333-  31 2.61  49 2.61  34 2.61  52 2.61  50 2.61  32 2.61  35 2.61  53 2.61
                             5 2.75  17 2.75   2 2.75  26 2.75
   9  0.000  0.667  0.667-  32 2.61  50 2.61  35 2.61  53 2.61  51 2.61  33 2.61  36 2.61  54 2.61
                             6 2.75  18 2.75   3 2.75  27 2.75
  10  0.333  0.000  0.000-  28 2.61  30 2.61  34 2.61  36 2.61  37 2.61  39 2.61  43 2.61  45 2.61
                            19 2.75   1 2.75  13 2.75  16 2.75
  11  0.333  0.000  0.333-  28 2.61  34 2.61  37 2.61  43 2.61  29 2.61  35 2.61  38 2.61  44 2.61
                            20 2.75   2 2.75  14 2.75  17 2.75
  12  0.333  0.000  0.667-  29 2.61  35 2.61  38 2.61  44 2.61  30 2.61  36 2.61  39 2.61  45 2.61
                            21 2.75   3 2.75  15 2.75  18 2.75
  13  0.333  0.333  0.000-  28 2.61  30 2.61  31 2.61  33 2.61  37 2.61  39 2.61  40 2.61  42 2.61
                             4 2.75  10 2.75  16 2.75  22 2.75
  14  0.333  0.333  0.333-  28 2.61  31 2.61  37 2.61  29 2.61  40 2.61  38 2.61  32 2.61  41 2.61
                             5 2.75  11 2.75  17 2.75  23 2.75
  15  0.333  0.333  0.667-  29 2.61  32 2.61  38 2.61  30 2.61  41 2.61  39 2.61  33 2.61  42 2.61
                             6 2.75  12 2.75  18 2.75  24 2.75
  16  0.333  0.667  0.000-  31 2.61  33 2.61  34 2.61  36 2.61  40 2.61  42 2.61  43 2.61  45 2.61
                            25 2.75   7 2.75  13 2.75  10 2.75
  17  0.333  0.667  0.333-  31 2.61  34 2.61  40 2.61  32 2.61  43 2.61  41 2.61  35 2.61  44 2.61
                            26 2.75   8 2.75  14 2.75  11 2.75
  18  0.333  0.667  0.667-  32 2.61  35 2.61  41 2.61  33 2.61  44 2.61  42 2.61  36 2.61  45 2.61
                            27 2.75   9 2.75  15 2.75  12 2.75
  19  0.667  0.000  0.000-  37 2.61  39 2.61  43 2.61  45 2.61  46 2.61  48 2.61  52 2.61  54 2.61
                            10 2.75  22 2.75   1 2.75  25 2.75
  20  0.667  0.000  0.333-  37 2.61  43 2.61  46 2.61  52 2.61  38 2.61  44 2.61  47 2.61  53 2.61
                            11 2.75  23 2.75   2 2.75  26 2.75
  21  0.667  0.000  0.667-  38 2.61  44 2.61  47 2.61  53 2.61  39 2.61  45 2.61  48 2.61  54 2.61
                            12 2.75  24 2.75   3 2.75  27 2.75
  22  0.667  0.333  0.000-  37 2.61  39 2.61  40 2.61  42 2.61  46 2.61  48 2.61  49 2.61  51 2.61
                            25 2.75  13 2.75  19 2.75   4 2.75
  23  0.667  0.333  0.333-  37 2.61  40 2.61  46 2.61  38 2.61  49 2.61  47 2.61  41 2.61  50 2.61
                            26 2.75  14 2.75  20 2.75   5 2.75
  24  0.667  0.333  0.667-  38 2.61  41 2.61  47 2.61  39 2.61  50 2.61  48 2.61  42 2.61  51 2.61
                            27 2.75  15 2.75  21 2.75   6 2.75
  25  0.667  0.667  0.000-  40 2.61  42 2.61  43 2.61  45 2.61  49 2.61  51 2.61  52 2.61  54 2.61
                            16 2.75  22 2.75  19 2.75   7 2.75
  26  0.667  0.667  0.333-  40 2.61  43 2.61  49 2.61  41 2.61  52 2.61  50 2.61  44 2.61  53 2.61
                            17 2.75  23 2.75  20 2.75   8 2.75
  27  0.667  0.667  0.667-  41 2.61  44 2.61  50 2.61  42 2.61  53 2.61  51 2.61  45 2.61  54 2.61
                            18 2.75  24 2.75  21 2.75   9 2.75
  28  0.167  0.167  0.167-  14 2.61  11 2.61   5 2.61  13 2.61   2 2.61  10 2.61   4 2.61   1 2.61
                            31 2.75  37 2.75  34 2.75  46 2.75
  29  0.167  0.167  0.500-  15 2.61  12 2.61   6 2.61  14 2.61   3 2.61  11 2.61   5 2.61   2 2.61
                            32 2.75  38 2.75  35 2.75  47 2.75
  30  0.167  0.167  0.833-  13 2.61  15 2.61  10 2.61  12 2.61   4 2.61   6 2.61   1 2.61   3 2.61
                            33 2.75  39 2.75  36 2.75  48 2.75
  31  0.167  0.500  0.167-  17 2.61  14 2.61   8 2.61  16 2.61   5 2.61  13 2.61   7 2.61   4 2.61
                            28 2.75  34 2.75  40 2.75  49 2.75
  32  0.167  0.500  0.500-  18 2.61  15 2.61   9 2.61  17 2.61   6 2.61  14 2.61   8 2.61   5 2.61
                            29 2.75  35 2.75  41 2.75  50 2.75
  33  0.167  0.500  0.833-  16 2.61  18 2.61  13 2.61  15 2.61   7 2.61   9 2.61   4 2.61   6 2.61
                            30 2.75  36 2.75  42 2.75  51 2.75
  34  0.167  0.833  0.167-  11 2.61  17 2.61   2 2.61   8 2.61  16 2.61  10 2.61   7 2.61   1 2.61
                            31 2.75  43 2.75  28 2.75  52 2.75
  35  0.167  0.833  0.500-  12 2.61  18 2.61   3 2.61   9 2.61  17 2.61  11 2.61   8 2.61   2 2.61
                            32 2.75  44 2.75  29 2.75  53 2.75
  36  0.167  0.833  0.833-  10 2.61  12 2.61  16 2.61  18 2.61   1 2.61   3 2.61   7 2.61   9 2.61
                            33 2.75  45 2.75  30 2.75  54 2.75
  37  0.500  0.167  0.167-  23 2.61  20 2.61  14 2.61  22 2.61  11 2.61  19 2.61  13 2.61  10 2.61
                            28 2.75  40 2.75  46 2.75  43 2.75
  38  0.500  0.167  0.500-  24 2.61  21 2.61  15 2.61  23 2.61  12 2.61  20 2.61  14 2.61  11 2.61
                            29 2.75  41 2.75  47 2.75  44 2.75
  39  0.500  0.167  0.833-  22 2.61  24 2.61  19 2.61  21 2.61  13 2.61  15 2.61  10 2.61  12 2.61
                            30 2.75  42 2.75  48 2.75  45 2.75
  40  0.500  0.500  0.167-  26 2.61  23 2.61  17 2.61  25 2.61  14 2.61  22 2.61  16 2.61  13 2.61
                            31 2.75  37 2.75  43 2.75  49 2.75
  41  0.500  0.500  0.500-  27 2.61  24 2.61  18 2.61  26 2.61  15 2.61  23 2.61  17 2.61  14 2.61
                            32 2.75  38 2.75  44 2.75  50 2.75
  42  0.500  0.500  0.833-  25 2.61  27 2.61  22 2.61  24 2.61  16 2.61  18 2.61  13 2.61  15 2.61
                            33 2.75  39 2.75  45 2.75  51 2.75
  43  0.500  0.833  0.167-  20 2.61  26 2.61  11 2.61  17 2.61  25 2.61  19 2.61  16 2.61  10 2.61
                            34 2.75  40 2.75  52 2.75  37 2.75
  44  0.500  0.833  0.500-  21 2.61  27 2.61  12 2.61  18 2.61  26 2.61  20 2.61  17 2.61  11 2.61
                            35 2.75  41 2.75  53 2.75  38 2.75
  45  0.500  0.833  0.833-  19 2.61  21 2.61  25 2.61  27 2.61  10 2.61  12 2.61  16 2.61  18 2.61
                            36 2.75  42 2.75  54 2.75  39 2.75
  46  0.833  0.167  0.167-   5 2.61  23 2.61  20 2.61   2 2.61  22 2.61   4 2.61  19 2.61   1 2.61
                            37 2.75  49 2.75  28 2.75  52 2.75
  47  0.833  0.167  0.500-   6 2.61  24 2.61  21 2.61   3 2.61  23 2.61   5 2.61  20 2.61   2 2.61
                            38 2.75  50 2.75  29 2.75  53 2.75
  48  0.833  0.167  0.833-   4 2.61   6 2.61  22 2.61  24 2.61  19 2.61  21 2.61   1 2.61   3 2.61
                            39 2.75  51 2.75  30 2.75  54 2.75
  49  0.833  0.500  0.167-   8 2.61  26 2.61  23 2.61   5 2.61  25 2.61   7 2.61  22 2.61   4 2.61
                            40 2.75  46 2.75  52 2.75  31 2.75
  50  0.833  0.500  0.500-   9 2.61  27 2.61  24 2.61   6 2.61  26 2.61   8 2.61  23 2.61   5 2.61
                            41 2.75  47 2.75  53 2.75  32 2.75
  51  0.833  0.500  0.833-   7 2.61   9 2.61  25 2.61  27 2.61  22 2.61  24 2.61   4 2.61   6 2.61
                            42 2.75  48 2.75  54 2.75  33 2.75
  52  0.833  0.833  0.167-   2 2.61   8 2.61  20 2.61  26 2.61  19 2.61   7 2.61  25 2.61   1 2.61
                            43 2.75  49 2.75  46 2.75  34 2.75
  53  0.833  0.833  0.500-   3 2.61   9 2.61  21 2.61  27 2.61  20 2.61   8 2.61  26 2.61   2 2.61
                            44 2.75  50 2.75  47 2.75  35 2.75
  54  0.833  0.833  0.833-   1 2.61   3 2.61   7 2.61   9 2.61  19 2.61  21 2.61  25 2.61  27 2.61
                            45 2.75  51 2.75  48 2.75  36 2.75
 
  LATTYP: Found a simple tetragonal cell.
 ALAT       =     8.2501481662
 C/A-ratio  =     1.2642089792
  
  Lattice vectors:
  
 A1 = (   8.2501481662,   0.0000000000,   0.0000000000)
 A2 = (   0.0000000000,   8.2501481662,   0.0000000000)
 A3 = (   0.0000000000,   0.0000000000,  10.4299113916)


Analysis of symmetry for initial positions (statically):
=====================================================================
 Subroutine PRICEL returns following result:
 
  LATTYP: Found a simple tetragonal cell.
 ALAT       =     2.7500493888
 C/A-ratio  =     1.2642089792
  
  Lattice vectors:
  
 A1 = (   2.7500493888,   0.0000000000,   0.0000000000)
 A2 = (   0.0000000000,   2.7500493888,   0.0000000000)
 A3 = (   0.0000000000,   0.0000000000,   3.4766371306)
 
  27 primitive cells build up your supercell.
 

 Routine SETGRP: Setting up the symmetry group for a 
 simple tetragonal supercell.


 Subroutine GETGRP returns: Found 16 space group operations
 (whereof 16 operations were pure point group operations)
 out of a pool of 16 trial point group operations.


The static configuration has the point symmetry D_4h.


Analysis of symmetry for dynamics (positions and initial velocities):
=====================================================================
 Subroutine PRICEL returns following result:
 
  LATTYP: Found a simple tetragonal cell.
 ALAT       =     2.7500493888
 C/A-ratio  =     1.2642089792
  
  Lattice vectors:
  
 A1 = (   2.7500493888,   0.0000000000,   0.0000000000)
 A2 = (   0.0000000000,   2.7500493888,   0.0000000000)
 A3 = (   0.0000000000,   0.0000000000,   3.4766371306)
 
  27 primitive cells build up your supercell.
 

 Routine SETGRP: Setting up the symmetry group for a 
 simple tetragonal supercell.


 Subroutine GETGRP returns: Found 16 space group operations
 (whereof 16 operations were pure point group operations)
 out of a pool of 16 trial point group operations.


The dynamic configuration has the point symmetry D_4h.


Analysis of structural, dynamic, and magnetic symmetry:
=====================================================================
 Subroutine PRICEL returns:
 Original cell was already a primitive cell.
 

 Routine SETGRP: Setting up the symmetry group for a 
 simple tetragonal supercell.


 Subroutine GETGRP returns: Found  4 space group operations
 (whereof  1 operations were pure point group operations)
 out of a pool of 16 trial point group operations.


The magnetic configuration has the point symmetry C_1 .
 The point group associated with its full space group is C_2v.


 Subroutine INISYM returns: Found  4 space group operations
 (whereof  1 operations are pure point group operations),
 and found     1 'primitive' translations

 
 
 KPOINTS: automatic KPOINTS                       

Automatic generation of k-mesh.
 generate k-points for:    5    5    4
Space group operators:
 irot       det(A)        alpha          n_x          n_y          n_z        tau_x        tau_y        tau_z
    1     1.000000     0.000001     1.000000     0.000000     0.000000     0.000000     0.000000     0.000000
    2     1.000000   180.000000     0.000000     0.000000     1.000000     0.666667     0.333333     0.000000
    3    -1.000000   180.000000     0.000000     1.000000     0.000000     0.000000     0.333333     0.000000
    4    -1.000000   180.000000     1.000000     0.000000     0.000000     0.666667     0.000000     0.000000
 
 Subroutine IBZKPT returns following result:
 ===========================================
 
 Found     27 irreducible k-points:
 
 Following reciprocal coordinates:
            Coordinates               Weight
  0.000000  0.000000  0.000000      1.000000
  0.200000  0.000000  0.000000      2.000000
  0.400000  0.000000  0.000000      2.000000
  0.000000  0.200000  0.000000      2.000000
  0.200000  0.200000  0.000000      4.000000
  0.400000  0.200000  0.000000      4.000000
  0.000000  0.400000  0.000000      2.000000
  0.200000  0.400000  0.000000      4.000000
  0.400000  0.400000  0.000000      4.000000
  0.000000  0.000000  0.250000      2.000000
  0.200000  0.000000  0.250000      4.000000
  0.400000  0.000000  0.250000      4.000000
  0.000000  0.200000  0.250000      4.000000
  0.200000  0.200000  0.250000      8.000000
  0.400000  0.200000  0.250000      8.000000
  0.000000  0.400000  0.250000      4.000000
  0.200000  0.400000  0.250000      8.000000
  0.400000  0.400000  0.250000      8.000000
  0.000000  0.000000  0.500000      1.000000
  0.200000  0.000000  0.500000      2.000000
  0.400000  0.000000  0.500000      2.000000
  0.000000  0.200000  0.500000      2.000000
  0.200000  0.200000  0.500000      4.000000
  0.400000  0.200000  0.500000      4.000000
  0.000000  0.400000  0.500000      2.000000
  0.200000  0.400000  0.500000      4.000000
  0.400000  0.400000  0.500000      4.000000
 
 Following cartesian coordinates:
            Coordinates               Weight
  0.000000  0.000000  0.000000      1.000000
  0.024242  0.000000  0.000000      2.000000
  0.048484  0.000000  0.000000      2.000000
  0.000000  0.024242  0.000000      2.000000
  0.024242  0.024242  0.000000      4.000000
  0.048484  0.024242  0.000000      4.000000
  0.000000  0.048484  0.000000      2.000000
  0.024242  0.048484  0.000000      4.000000
  0.048484  0.048484  0.000000      4.000000
  0.000000  0.000000  0.023970      2.000000
  0.024242  0.000000  0.023970      4.000000
  0.048484  0.000000  0.023970      4.000000
  0.000000  0.024242  0.023970      4.000000
  0.024242  0.024242  0.023970      8.000000
  0.048484  0.024242  0.023970      8.000000
  0.000000  0.048484  0.023970      4.000000
  0.024242  0.048484  0.023970      8.000000
  0.048484  0.048484  0.023970      8.000000
  0.000000  0.000000  0.047939      1.000000
  0.024242  0.000000  0.047939      2.000000
  0.048484  0.000000  0.047939      2.000000
  0.000000  0.024242  0.047939      2.000000
  0.024242  0.024242  0.047939      4.000000
  0.048484  0.024242  0.047939      4.000000
  0.000000  0.048484  0.047939      2.000000
  0.024242  0.048484  0.047939      4.000000
  0.048484  0.048484  0.047939      4.000000
 


--------------------------------------------------------------------------------------------------------




 Dimension of arrays:
   k-points           NKPTS =     27   k-points in BZ     NKDIM =     27   number of bands    NBANDS=    172
   number of dos      NEDOS =    301   number of ions     NIONS =     54
   non local maximal  LDIM  =      6   non local SUM 2l+1 LMDIM =     18
   total plane-waves  NPLWV = 204120
   max r-space proj   IRMAX =      1   max aug-charges    IRDMAX=  89713
   dimension x,y,z NGX =    54 NGY =   54 NGZ =   70
   dimension x,y,z NGXF=   108 NGYF=  108 NGZF=  140
   support grid    NGXF=   216 NGYF=  216 NGZF=  280
   ions per type =              27  27
   NGX,Y,Z   is equivalent  to a cutoff of  10.88, 10.88, 11.16 a.u.
   NGXF,Y,Z  is equivalent  to a cutoff of  21.76, 21.76, 22.32 a.u.

 SYSTEM =  AlMn_pv                                 
 POSCAR =  NewRef: 27, @ ['Mn', array([1.37502469, 

 Startparameter for this run:
   NWRITE =      2    write-flag & timer
   PREC   = accura    normal or accurate (medium, high low for compatibility)
   ISTART =      0    job   : 0-new  1-cont  2-samecut
   ICHARG =      2    charge: 1-file 2-atom 10-const
   ISPIN  =      2    spin polarized calculation?
   LNONCOLLINEAR =      F non collinear calculations
   LSORBIT =      F    spin-orbit coupling
   INIWAV =      1    electr: 0-lowe 1-rand  2-diag
   LASPH  =      F    aspherical Exc in radial PAW
   METAGGA=      F    non-selfconsistent MetaGGA calc.

 Electronic Relaxation 1
   ENCUT  =  404.8 eV  29.75 Ry    5.45 a.u.  13.53 13.53 17.11*2*pi/ulx,y,z
   ENINI  =  404.8     initial cutoff
   ENAUG  =  500.7 eV  augmentation charge cutoff
   NELM   =    100;   NELMIN=  4; NELMDL= -8     # of ELM steps 
   EDIFF  = 0.1E-06   stopping-criterion for ELM
   LREAL  =      F    real-space projection
   NLSPLINE    = F    spline interpolate recip. space projectors
   LCOMPAT=      F    compatible to vasp.4.4
   GGA_COMPAT  = T    GGA compatible to vasp.4.4-vasp.4.6
   LMAXPAW     = -100 max onsite density
   LMAXMIX     =    2 max onsite mixed and CHGCAR
   VOSKOWN=      0    Vosko Wilk Nusair interpolation
   ROPT   =    0.00000   0.00000
 Ionic relaxation
   EDIFFG = 0.1E-05   stopping-criterion for IOM
   NSW    =      0    number of steps for IOM
   NBLOCK =      1;   KBLOCK =      1    inner block; outer block 
   IBRION =     -1    ionic relax: 0-MD 1-quasi-New 2-CG
   NFREE  =      0    steps in history (QN), initial steepest desc. (CG)
   ISIF   =      2    stress and relaxation
   IWAVPR =     10    prediction:  0-non 1-charg 2-wave 3-comb
   ISYM   =      2    0-nonsym 1-usesym 2-fastsym
   LCORR  =      T    Harris-Foulkes like correction to forces

   POTIM  = 0.2000    time-step for ionic-motion
   TEIN   =    0.0    initial temperature
   TEBEG  =    0.0;   TEEND  =   0.0 temperature during run
   SMASS  =  -3.00    Nose mass-parameter (am)
   estimated Nose-frequenzy (Omega)   =  0.10E-29 period in steps =****** mass=  -0.156E-26a.u.
   SCALEE = 1.0000    scale energy and forces
   NPACO  =    256;   APACO  = 16.0  distance and # of slots for P.C.
   PSTRESS=    0.0 pullay stress

  Mass of Ions in am
   POMASS =  26.98 54.94
  Ionic Valenz
   ZVAL   =   3.00  7.00
  Atomic Wigner-Seitz radii
   RWIGS  =  -1.00 -1.00
  virtual crystal weights 
   VCA    =   1.00  1.00
   NELECT =     270.0000    total number of electrons
   NUPDOWN=      -1.0000    fix difference up-down

 DOS related values:
   EMIN   =  10.00;   EMAX   =-10.00  energy-range for DOS
   EFERMI =   0.00
   ISMEAR =     1;   SIGMA  =   0.20  broadening in eV -4-tet -1-fermi 0-gaus

 Electronic relaxation 2 (details)
   IALGO  =     58    algorithm
   LDIAG  =      T    sub-space diagonalisation (order eigenvalues)
   LSUBROT=      F    optimize rotation matrix (better conditioning)
   TURBO    =      0    0=normal 1=particle mesh
   IRESTART =      0    0=no restart 2=restart with 2 vectors
   NREBOOT  =      0    no. of reboots
   NMIN     =      0    reboot dimension
   EREF     =   0.00    reference energy to select bands
   IMIX   =      4    mixing-type and parameters
     AMIX     =   0.40;   BMIX     =  1.00
     AMIX_MAG =   1.60;   BMIX_MAG =  1.00
     AMIN     =   0.10
     WC   =   100.;   INIMIX=   1;  MIXPRE=   1;  MAXMIX= -45

 Intra band minimization:
   WEIMIN = 0.0000     energy-eigenvalue tresh-hold
   EBREAK =  0.15E-09  absolut break condition
   DEPER  =   0.30     relativ break condition  

   TIME   =   0.40     timestep for ELM

  volume/ion in A,a.u.               =      13.15        88.72
  Fermi-wavevector in a.u.,A,eV,Ry     =   1.186118  2.241439 19.141722  1.406877
  Thomas-Fermi vector in A             =   2.322298
 
 Write flags
   LWAVE        =      F    write WAVECAR
   LDOWNSAMPLE  =      F    k-point downsampling of WAVECAR
   LCHARG       =      F    write CHGCAR
   LVTOT        =      F    write LOCPOT, total local potential
   LVHAR        =      F    write LOCPOT, Hartree potential only
   LELF         =      F    write electronic localiz. function (ELF)
   LORBIT       =     10    0 simple, 1 ext, 2 COOP (PROOUT), +10 PAW based schemes


 Dipole corrections
   LMONO  =      F    monopole corrections only (constant potential shift)
   LDIPOL =      F    correct potential (dipole corrections)
   IDIPOL =      0    1-x, 2-y, 3-z, 4-all directions 
   EPSILON=  1.0000000 bulk dielectric constant

 Exchange correlation treatment:
   GGA     =    --    GGA type
   LEXCH   =     8    internal setting for exchange type
   VOSKOWN=      0    Vosko Wilk Nusair interpolation
   LHFCALC =     F    Hartree Fock is set to
   LHFONE  =     F    Hartree Fock one center treatment
   AEXX    =    0.0000 exact exchange contribution

 Linear response parameters
   LEPSILON=     F    determine dielectric tensor
   LRPA    =     F    only Hartree local field effects (RPA)
   LNABLA  =     F    use nabla operator in PAW spheres
   LVEL    =     F    velocity operator in full k-point grid
   LINTERFAST=   F  fast interpolation
   KINTER  =     0    interpolate to denser k-point grid
   CSHIFT  =0.1000    complex shift for real part using Kramers Kronig
   OMEGAMAX=  -1.0    maximum frequency
   DEG_THRESHOLD= 0.2000000E-02 threshold for treating states as degnerate
   RTIME   =   -0.100 relaxation time in fs
  (WPLASMAI=    0.000 imaginary part of plasma frequency in eV, 0.658/RTIME)
   DFIELD  = 0.0000000 0.0000000 0.0000000 field for delta impulse in time
 
 Orbital magnetization related:
   ORBITALMAG=     F  switch on orbital magnetization
   LCHIMAG   =     F  perturbation theory with respect to B field
   DQ        =  0.001000  dq finite difference perturbation B field
   LLRAUG    =     F  two centre corrections for induced B field



--------------------------------------------------------------------------------------------------------


 Static calculation
 charge density and potential will be updated during run
 spin polarized calculation
 Conjugate gradient for all bands (Freysoldt, et al. PRB 79, 241103 (2009))
 preconditioned conjugated gradient                                        
 perform sub-space diagonalisation
    before iterative eigenvector-optimisation
 modified Broyden-mixing scheme, WC =      100.0
 initial mixing is a Kerker type mixing with AMIX =  0.4000 and BMIX =      1.0000
 Hartree-type preconditioning will be used
 using additional bands           37
 reciprocal scheme for non local part
 use partial core corrections
 no Harris-corrections to forces 
 use gradient corrections 
 use of overlap-Matrix (Vanderbilt PP)
 Methfessel and Paxton  Order N= 1 SIGMA  =   0.20


--------------------------------------------------------------------------------------------------------


  energy-cutoff  :      404.80
  volume of cell :      709.91
      direct lattice vectors                 reciprocal lattice vectors
     8.250148166  0.000000000  0.000000000     0.121209944  0.000000000  0.000000000
     0.000000000  8.250148166  0.000000000     0.000000000  0.121209944  0.000000000
     0.000000000  0.000000000 10.429911392     0.000000000  0.000000000  0.095878092

  length of vectors
     8.250148166  8.250148166 10.429911392     0.121209944  0.121209944  0.095878092


 
 k-points in units of 2pi/SCALE and weight: automatic KPOINTS                       
   0.00000000  0.00000000  0.00000000       0.010
   0.02424199  0.00000000  0.00000000       0.020
   0.04848398  0.00000000  0.00000000       0.020
   0.00000000  0.02424199  0.00000000       0.020
   0.02424199  0.02424199  0.00000000       0.040
   0.04848398  0.02424199  0.00000000       0.040
   0.00000000  0.04848398  0.00000000       0.020
   0.02424199  0.04848398  0.00000000       0.040
   0.04848398  0.04848398  0.00000000       0.040
   0.00000000  0.00000000  0.02396952       0.020
   0.02424199  0.00000000  0.02396952       0.040
   0.04848398  0.00000000  0.02396952       0.040
   0.00000000  0.02424199  0.02396952       0.040
   0.02424199  0.02424199  0.02396952       0.080
   0.04848398  0.02424199  0.02396952       0.080
   0.00000000  0.04848398  0.02396952       0.040
   0.02424199  0.04848398  0.02396952       0.080
   0.04848398  0.04848398  0.02396952       0.080
   0.00000000  0.00000000  0.04793905       0.010
   0.02424199  0.00000000  0.04793905       0.020
   0.04848398  0.00000000  0.04793905       0.020
   0.00000000  0.02424199  0.04793905       0.020
   0.02424199  0.02424199  0.04793905       0.040
   0.04848398  0.02424199  0.04793905       0.040
   0.00000000  0.04848398  0.04793905       0.020
   0.02424199  0.04848398  0.04793905       0.040
   0.04848398  0.04848398  0.04793905       0.040
 
 k-points in reciprocal lattice and weights: automatic KPOINTS                       
   0.00000000  0.00000000  0.00000000       0.010
   0.20000000  0.00000000  0.00000000       0.020
   0.40000000  0.00000000  0.00000000       0.020
   0.00000000  0.20000000  0.00000000       0.020
   0.20000000  0.20000000  0.00000000       0.040
   0.40000000  0.20000000  0.00000000       0.040
   0.00000000  0.40000000  0.00000000       0.020
   0.20000000  0.40000000  0.00000000       0.040
   0.40000000  0.40000000  0.00000000       0.040
   0.00000000  0.00000000  0.25000000       0.020
   0.20000000  0.00000000  0.25000000       0.040
   0.40000000  0.00000000  0.25000000       0.040
   0.00000000  0.20000000  0.25000000       0.040
   0.20000000  0.20000000  0.25000000       0.080
   0.40000000  0.20000000  0.25000000       0.080
   0.00000000  0.40000000  0.25000000       0.040
   0.20000000  0.40000000  0.25000000       0.080
   0.40000000  0.40000000  0.25000000       0.080
   0.00000000  0.00000000  0.50000000       0.010
   0.20000000  0.00000000  0.50000000       0.020
   0.40000000  0.00000000  0.50000000       0.020
   0.00000000  0.20000000  0.50000000       0.020
   0.20000000  0.20000000  0.50000000       0.040
   0.40000000  0.20000000  0.50000000       0.040
   0.00000000  0.40000000  0.50000000       0.020
   0.20000000  0.40000000  0.50000000       0.040
   0.40000000  0.40000000  0.50000000       0.040
 
 position of ions in fractional coordinates (direct lattice) 
   0.00000000  0.00000000  0.00000000
   0.00000000  0.00000000  0.33333333
   0.00000000  0.00000000  0.66666667
   0.00000000  0.33333333  0.00000000
   0.00000000  0.33333333  0.33333333
   0.00000000  0.33333333  0.66666667
   0.00000000  0.66666667  0.00000000
   0.00000000  0.66666667  0.33333333
   0.00000000  0.66666667  0.66666667
   0.33333333  0.00000000  0.00000000
   0.33333333  0.00000000  0.33333333
   0.33333333  0.00000000  0.66666667
   0.33333333  0.33333333  0.00000000
   0.33333333  0.33333333  0.33333333
   0.33333333  0.33333333  0.66666667
   0.33333333  0.66666667  0.00000000
   0.33333333  0.66666667  0.33333333
   0.33333333  0.66666667  0.66666667
   0.66666667  0.00000000  0.00000000
   0.66666667  0.00000000  0.33333333
   0.66666667  0.00000000  0.66666667
   0.66666667  0.33333333  0.00000000
   0.66666667  0.33333333  0.33333333
   0.66666667  0.33333333  0.66666667
   0.66666667  0.66666667  0.00000000
   0.66666667  0.66666667  0.33333333
   0.66666667  0.66666667  0.66666667
   0.16666667  0.16666667  0.16666667
   0.16666667  0.16666667  0.50000000
   0.16666667  0.16666667  0.83333333
   0.16666667  0.50000000  0.16666667
   0.16666667  0.50000000  0.50000000
   0.16666667  0.50000000  0.83333333
   0.16666667  0.83333333  0.16666667
   0.16666667  0.83333333  0.50000000
   0.16666667  0.83333333  0.83333333
   0.50000000  0.16666667  0.16666667
   0.50000000  0.16666667  0.50000000
   0.50000000  0.16666667  0.83333333
   0.50000000  0.50000000  0.16666667
   0.50000000  0.50000000  0.50000000
   0.50000000  0.50000000  0.83333333
   0.50000000  0.83333333  0.16666667
   0.50000000  0.83333333  0.50000000
   0.50000000  0.83333333  0.83333333
   0.83333333  0.16666667  0.16666667
   0.83333333  0.16666667  0.50000000
   0.83333333  0.16666667  0.83333333
   0.83333333  0.50000000  0.16666667
   0.83333333  0.50000000  0.50000000
   0.83333333  0.50000000  0.83333333
   0.83333333  0.83333333  0.16666667
   0.83333333  0.83333333  0.50000000
   0.83333333  0.83333333  0.83333333
 
 position of ions in cartesian coordinates  (Angst):
   0.00000000  0.00000000  0.00000000
   0.00000000  0.00000000  3.47663713
   0.00000000  0.00000000  6.95327426
   0.00000000  2.75004939  0.00000000
   0.00000000  2.75004939  3.47663713
   0.00000000  2.75004939  6.95327426
   0.00000000  5.50009878  0.00000000
   0.00000000  5.50009878  3.47663713
   0.00000000  5.50009878  6.95327426
   2.75004939  0.00000000  0.00000000
   2.75004939  0.00000000  3.47663713
   2.75004939  0.00000000  6.95327426
   2.75004939  2.75004939  0.00000000
   2.75004939  2.75004939  3.47663713
   2.75004939  2.75004939  6.95327426
   2.75004939  5.50009878  0.00000000
   2.75004939  5.50009878  3.47663713
   2.75004939  5.50009878  6.95327426
   5.50009878  0.00000000  0.00000000
   5.50009878  0.00000000  3.47663713
   5.50009878  0.00000000  6.95327426
   5.50009878  2.75004939  0.00000000
   5.50009878  2.75004939  3.47663713
   5.50009878  2.75004939  6.95327426
   5.50009878  5.50009878  0.00000000
   5.50009878  5.50009878  3.47663713
   5.50009878  5.50009878  6.95327426
   1.37502469  1.37502469  1.73831857
   1.37502469  1.37502469  5.21495570
   1.37502469  1.37502469  8.69159283
   1.37502469  4.12507408  1.73831857
   1.37502469  4.12507408  5.21495570
   1.37502469  4.12507408  8.69159283
   1.37502469  6.87512347  1.73831857
   1.37502469  6.87512347  5.21495570
   1.37502469  6.87512347  8.69159283
   4.12507408  1.37502469  1.73831857
   4.12507408  1.37502469  5.21495570
   4.12507408  1.37502469  8.69159283
   4.12507408  4.12507408  1.73831857
   4.12507408  4.12507408  5.21495570
   4.12507408  4.12507408  8.69159283
   4.12507408  6.87512347  1.73831857
   4.12507408  6.87512347  5.21495570
   4.12507408  6.87512347  8.69159283
   6.87512347  1.37502469  1.73831857
   6.87512347  1.37502469  5.21495570
   6.87512347  1.37502469  8.69159283
   6.87512347  4.12507408  1.73831857
   6.87512347  4.12507408  5.21495570
   6.87512347  4.12507408  8.69159283
   6.87512347  6.87512347  1.73831857
   6.87512347  6.87512347  5.21495570
   6.87512347  6.87512347  8.69159283
 


--------------------------------------------------------------------------------------------------------


 k-point  1 :   0.0000 0.0000 0.0000  plane waves:   13099
 k-point  2 :   0.2000 0.0000 0.0000  plane waves:   13101
 k-point  3 :   0.4000 0.0000 0.0000  plane waves:   13111
 k-point  4 :   0.0000 0.2000 0.0000  plane waves:   13101
 k-point  5 :   0.2000 0.2000 0.0000  plane waves:   13137
 k-point  6 :   0.4000 0.2000 0.0000  plane waves:   13119
 k-point  7 :   0.0000 0.4000 0.0000  plane waves:   13111
 k-point  8 :   0.2000 0.4000 0.0000  plane waves:   13119
 k-point  9 :   0.4000 0.4000 0.0000  plane waves:   13129
 k-point 10 :   0.0000 0.0000 0.2500  plane waves:   13134
 k-point 11 :   0.2000 0.0000 0.2500  plane waves:   13149
 k-point 12 :   0.4000 0.0000 0.2500  plane waves:   13119
 k-point 13 :   0.0000 0.2000 0.2500  plane waves:   13149
 k-point 14 :   0.2000 0.2000 0.2500  plane waves:   13145
 k-point 15 :   0.4000 0.2000 0.2500  plane waves:   13134
 k-point 16 :   0.0000 0.4000 0.2500  plane waves:   13119
 k-point 17 :   0.2000 0.4000 0.2500  plane waves:   13134
 k-point 18 :   0.4000 0.4000 0.2500  plane waves:   13108
 k-point 19 :   0.0000 0.0000 0.5000  plane waves:   13186
 k-point 20 :   0.2000 0.0000 0.5000  plane waves:   13124
 k-point 21 :   0.4000 0.0000 0.5000  plane waves:   13152
 k-point 22 :   0.0000 0.2000 0.5000  plane waves:   13124
 k-point 23 :   0.2000 0.2000 0.5000  plane waves:   13136
 k-point 24 :   0.4000 0.2000 0.5000  plane waves:   13128
 k-point 25 :   0.0000 0.4000 0.5000  plane waves:   13152
 k-point 26 :   0.2000 0.4000 0.5000  plane waves:   13128
 k-point 27 :   0.4000 0.4000 0.5000  plane waves:   13112

 maximum and minimum number of plane-waves per node :      3304     3246

 maximum number of plane-waves:     13186
 maximum index in each direction: 
   IXMAX=   13   IYMAX=   13   IZMAX=   17
   IXMIN=  -13   IYMIN=  -13   IZMIN=  -17


 parallel 3D FFT for wavefunctions:
    minimum data exchange during FFTs selected (reduces bandwidth)
 parallel 3D FFT for charge:
    minimum data exchange during FFTs selected (reduces bandwidth)


 total amount of memory used by VASP MPI-rank0   887625. kBytes
=======================================================================

   base      :      30000. kBytes
   nonl-proj :      28494. kBytes
   fftplans  :      31580. kBytes
   grid      :      21385. kBytes
   one-center:        435. kBytes
   wavefun   :     775731. kBytes
 
     INWAV:  cpu time    0.0001: real time    0.0000
 Broyden mixing: mesh for mixing (old mesh)
   NGX = 27   NGY = 27   NGZ = 35
  (NGX  =108   NGY  =108   NGZ  =140)
  gives a total of  25515 points

 initial charge density was supplied:
 charge density of overlapping atoms calculated
 number of electron     270.0000000 magnetization      15.0000000
 keeping initial charge density in first step


--------------------------------------------------------------------------------------------------------


 Maximum index for augmentation-charges        10967 (set IRDMAX)


--------------------------------------------------------------------------------------------------------


 First call to EWALD:  gamma=   0.199
 Maximum number of real-space cells 3x 3x 2
 Maximum number of reciprocal cells 3x 3x 3

    FEWALD:  cpu time    0.0024: real time    0.0024


--------------------------------------- Iteration      1(   1)  ---------------------------------------


    POTLOK:  cpu time    0.3973: real time    0.3980
    SETDIJ:  cpu time    0.5253: real time    0.5272
    TRIAL :  cpu time   31.2417: real time   31.4742
    CORREC:  cpu time    0.0052: real time    0.0053
    --------------------------------------------
      LOOP:  cpu time   32.4340: real time   32.6761

 eigenvalue-minimisations  : 18576
 total energy-change (2. order) : 0.2039198E+04  (-0.8838949E+04)
 number of electron     270.0000000 magnetization      15.0000000
 augmentation part      270.0000000 magnetization      15.0000000

 Free energy of the ion-electron system (eV)
  ---------------------------------------------------
  alpha Z        PSCENC =       798.38614055
  Ewald energy   TEWEN  =    -12901.57693327
  -Hartree energ DENC   =     -2855.60785864
  -exchange      EXHF   =         0.00000000
  -V(xc)+E(xc)   XCENC  =      -996.06378164
  PAW double counting   =     12741.82587617   -11476.22345381
  entropy T*S    EENTRO =         0.00991274
  eigenvalues    EBANDS =      4030.77401771
  atomic energy  EATOM  =     12697.67401269
  ---------------------------------------------------
  free energy    TOTEN  =      2039.19793250 eV

  energy without entropy =     2039.18801975  energy(sigma->0) =     2039.19462825


--------------------------------------------------------------------------------------------------------




--------------------------------------- Iteration      1(   2)  ---------------------------------------


    TRIAL :  cpu time   30.8405: real time   31.2212
    CORREC:  cpu time    0.0065: real time    0.0074
    --------------------------------------------
      LOOP:  cpu time   30.8480: real time   31.2320

 eigenvalue-minimisations  : 18576
 total energy-change (2. order) :-0.2129704E+04  (-0.2074916E+04)
 number of electron     270.0000000 magnetization      15.0000000
 augmentation part      270.0000000 magnetization      15.0000000

 Free energy of the ion-electron system (eV)
  ---------------------------------------------------
  alpha Z        PSCENC =       798.38614055
  Ewald energy   TEWEN  =    -12901.57693327
  -Hartree energ DENC   =     -2855.60785864
  -exchange      EXHF   =         0.00000000
  -V(xc)+E(xc)   XCENC  =      -996.06378164
  PAW double counting   =     12741.82587617   -11476.22345381
  entropy T*S    EENTRO =        -0.00386255
  eigenvalues    EBANDS =      1901.08428589
  atomic energy  EATOM  =     12697.67401269
  ---------------------------------------------------
  free energy    TOTEN  =       -90.50557462 eV

  energy without entropy =      -90.50171207  energy(sigma->0) =      -90.50428710


--------------------------------------------------------------------------------------------------------




--------------------------------------- Iteration      1(   3)  ---------------------------------------


    TRIAL :  cpu time   42.5008: real time   43.5159
    CORREC:  cpu time    0.0077: real time    0.0079
    --------------------------------------------
      LOOP:  cpu time   42.5093: real time   43.5272

 eigenvalue-minimisations  : 27936
 total energy-change (2. order) :-0.2645750E+03  (-0.2342431E+03)
 number of electron     270.0000000 magnetization      15.0000000
 augmentation part      270.0000000 magnetization      15.0000000

 Free energy of the ion-electron system (eV)
  ---------------------------------------------------
  alpha Z        PSCENC =       798.38614055
  Ewald energy   TEWEN  =    -12901.57693327
  -Hartree energ DENC   =     -2855.60785864
  -exchange      EXHF   =         0.00000000
  -V(xc)+E(xc)   XCENC  =      -996.06378164
  PAW double counting   =     12741.82587617   -11476.22345381
  entropy T*S    EENTRO =         0.01039110
  eigenvalues    EBANDS =      1636.49502463
  atomic energy  EATOM  =     12697.67401269
  ---------------------------------------------------
  free energy    TOTEN  =      -355.08058223 eV

  energy without entropy =     -355.09097333  energy(sigma->0) =     -355.08404593


--------------------------------------------------------------------------------------------------------




--------------------------------------- Iteration      1(   4)  ---------------------------------------


    TRIAL :  cpu time   45.4905: real time   46.4666
    CORREC:  cpu time    0.0082: real time    0.0091
    --------------------------------------------
      LOOP:  cpu time   45.5024: real time   46.4798

 eigenvalue-minimisations  : 30216
 total energy-change (2. order) :-0.4404892E+02  (-0.3882226E+02)
 number of electron     270.0000000 magnetization      15.0000000
 augmentation part      270.0000000 magnetization      15.0000000

 Free energy of the ion-electron system (eV)
  ---------------------------------------------------
  alpha Z        PSCENC =       798.38614055
  Ewald energy   TEWEN  =    -12901.57693327
  -Hartree energ DENC   =     -2855.60785864
  -exchange      EXHF   =         0.00000000
  -V(xc)+E(xc)   XCENC  =      -996.06378164
  PAW double counting   =     12741.82587617   -11476.22345381
  entropy T*S    EENTRO =         0.04189687
  eigenvalues    EBANDS =      1592.41460084
  atomic energy  EATOM  =     12697.67401269
  ---------------------------------------------------
  free energy    TOTEN  =      -399.12950025 eV

  energy without entropy =     -399.17139712  energy(sigma->0) =     -399.14346588


--------------------------------------------------------------------------------------------------------




--------------------------------------- Iteration      1(   5)  ---------------------------------------


    TRIAL :  cpu time   46.1185: real time   46.5102
    CORREC:  cpu time    0.0082: real time    0.0091
    --------------------------------------------
      LOOP:  cpu time   46.1488: real time   46.5435

 eigenvalue-minimisations  : 30824
 total energy-change (2. order) :-0.4644757E+01  (-0.4445904E+01)
 number of electron     270.0000000 magnetization      15.0000000
 augmentation part      270.0000000 magnetization      15.0000000

 Free energy of the ion-electron system (eV)
  ---------------------------------------------------
  alpha Z        PSCENC =       798.38614055
  Ewald energy   TEWEN  =    -12901.57693327
  -Hartree energ DENC   =     -2855.60785864
  -exchange      EXHF   =         0.00000000
  -V(xc)+E(xc)   XCENC  =      -996.06378164
  PAW double counting   =     12741.82587617   -11476.22345381
  entropy T*S    EENTRO =         0.04518025
  eigenvalues    EBANDS =      1587.76656067
  atomic energy  EATOM  =     12697.67401269
  ---------------------------------------------------
  free energy    TOTEN  =      -403.77425704 eV

  energy without entropy =     -403.81943730  energy(sigma->0) =     -403.78931713


--------------------------------------------------------------------------------------------------------




--------------------------------------- Iteration      1(   6)  ---------------------------------------


    TRIAL :  cpu time   45.9893: real time   47.0985
    CORREC:  cpu time    0.0084: real time    0.0093
    --------------------------------------------
      LOOP:  cpu time   45.9986: real time   47.1118

 eigenvalue-minimisations  : 30656
 total energy-change (2. order) :-0.3723953E+00  (-0.3649987E+00)
 number of electron     270.0000000 magnetization      15.0000000
 augmentation part      270.0000000 magnetization      15.0000000

 Free energy of the ion-electron system (eV)
  ---------------------------------------------------
  alpha Z        PSCENC =       798.38614055
  Ewald energy   TEWEN  =    -12901.57693327
  -Hartree energ DENC   =     -2855.60785864
  -exchange      EXHF   =         0.00000000
  -V(xc)+E(xc)   XCENC  =      -996.06378164
  PAW double counting   =     12741.82587617   -11476.22345381
  entropy T*S    EENTRO =         0.04603941
  eigenvalues    EBANDS =      1587.39330617
  atomic energy  EATOM  =     12697.67401269
  ---------------------------------------------------
  free energy    TOTEN  =      -404.14665239 eV

  energy without entropy =     -404.19269179  energy(sigma->0) =     -404.16199886


--------------------------------------------------------------------------------------------------------




--------------------------------------- Iteration      1(   7)  ---------------------------------------


    TRIAL :  cpu time   46.4762: real time   47.6480
    CORREC:  cpu time    0.0083: real time    0.0090
    --------------------------------------------
      LOOP:  cpu time   46.4855: real time   47.6608

 eigenvalue-minimisations  : 31216
 total energy-change (2. order) :-0.3989687E-01  (-0.3951682E-01)
 number of electron     270.0000000 magnetization      15.0000000
 augmentation part      270.0000000 magnetization      15.0000000

 Free energy of the ion-electron system (eV)
  ---------------------------------------------------
  alpha Z        PSCENC =       798.38614055
  Ewald energy   TEWEN  =    -12901.57693327
  -Hartree energ DENC   =     -2855.60785864
  -exchange      EXHF   =         0.00000000
  -V(xc)+E(xc)   XCENC  =      -996.06378164
  PAW double counting   =     12741.82587617   -11476.22345381
  entropy T*S    EENTRO =         0.04632735
  eigenvalues    EBANDS =      1587.35312135
  atomic energy  EATOM  =     12697.67401269
  ---------------------------------------------------
  free energy    TOTEN  =      -404.18654926 eV

  energy without entropy =     -404.23287661  energy(sigma->0) =     -404.20199171


--------------------------------------------------------------------------------------------------------




--------------------------------------- Iteration      1(   8)  ---------------------------------------


    TRIAL :  cpu time   45.4478: real time   46.3806
    CORREC:  cpu time    0.0086: real time    0.0096
    CHARGE:  cpu time    1.5740: real time    1.5866
    --------------------------------------------
      LOOP:  cpu time   47.0317: real time   47.9808

 eigenvalue-minimisations  : 30144
 total energy-change (2. order) :-0.3229164E-02  (-0.3208988E-02)
 number of electron     269.9999995 magnetization      10.3572799
 augmentation part       64.2102986 magnetization       6.0141372

 Free energy of the ion-electron system (eV)
  ---------------------------------------------------
  alpha Z        PSCENC =       798.38614055
  Ewald energy   TEWEN  =    -12901.57693327
  -Hartree energ DENC   =     -2855.60785864
  -exchange      EXHF   =         0.00000000
  -V(xc)+E(xc)   XCENC  =      -996.06378164
  PAW double counting   =     12741.82587617   -11476.22345381
  entropy T*S    EENTRO =         0.04641404
  eigenvalues    EBANDS =      1587.34980550
  atomic energy  EATOM  =     12697.67401269
  ---------------------------------------------------
  free energy    TOTEN  =      -404.18977842 eV

  energy without entropy =     -404.23619246  energy(sigma->0) =     -404.20524977


--------------------------------------------------------------------------------------------------------




--------------------------------------- Iteration      1(   9)  ---------------------------------------


    POTLOK:  cpu time    0.3988: real time    0.3987
    SETDIJ:  cpu time    0.4938: real time    0.5030
    TRIAL :  cpu time   15.6749: real time   15.8510
    CORREC:  cpu time    4.9840: real time    5.0377
    CHARGE:  cpu time    1.5610: real time    1.5610
    --------------------------------------------
      LOOP:  cpu time   23.1172: real time   23.3570

 eigenvalue-minimisations  :     0
 total energy-change (2. order) : 0.2994930E+03  (-0.2176102E+03)
 number of electron     269.9999993 magnetization      10.8973855
 augmentation part       82.5972047 magnetization       7.2534103

 Free energy of the ion-electron system (eV)
  ---------------------------------------------------
  alpha Z        PSCENC =       798.38614055
  Ewald energy   TEWEN  =    -12901.57693327
  -Hartree energ DENC   =     -1273.04015597
  -exchange      EXHF   =         0.00000000
  -V(xc)+E(xc)   XCENC  =     -1041.62392442
  PAW double counting   =     19169.86098580   -17750.33709158
  entropy T*S    EENTRO =         0.03086275
  eigenvalues    EBANDS =       195.91380203
  atomic energy  EATOM  =     12697.67401269
  ---------------------------------------------------
  free energy    TOTEN  =      -104.69675013 eV

  energy without entropy =     -104.72761288  energy(sigma->0) =     -104.70703771


--------------------------------------------------------------------------------------------------------




--------------------------------------- Iteration      1(  10)  ---------------------------------------


    POTLOK:  cpu time    0.3924: real time    0.3926
    SETDIJ:  cpu time    0.4781: real time    0.4781
    TRIAL :  cpu time   15.6518: real time   15.7203
    CORREC:  cpu time    5.0162: real time    5.0173
    CHARGE:  cpu time    1.5483: real time    1.5483
    --------------------------------------------
      LOOP:  cpu time   23.0947: real time   23.1662

 eigenvalue-minimisations  :     0
 total energy-change (2. order) :-0.2135947E+03  (-0.1198203E+02)
 number of electron     269.9999993 magnetization      11.1622238
 augmentation part       86.3120721 magnetization       7.5170248

 Free energy of the ion-electron system (eV)
  ---------------------------------------------------
  alpha Z        PSCENC =       798.38614055
  Ewald energy   TEWEN  =    -12901.57693327
  -Hartree energ DENC   =     -2112.84460008
  -exchange      EXHF   =         0.00000000
  -V(xc)+E(xc)   XCENC  =     -1012.28934577
  PAW double counting   =     20669.77645980   -19432.32858576
  entropy T*S    EENTRO =         0.02313005
  eigenvalues    EBANDS =       974.88056531
  atomic energy  EATOM  =     12697.67401269
  ---------------------------------------------------
  free energy    TOTEN  =      -318.29142379 eV

  energy without entropy =     -318.31455384  energy(sigma->0) =     -318.29913380


--------------------------------------------------------------------------------------------------------




--------------------------------------- Iteration      1(  11)  ---------------------------------------


    POTLOK:  cpu time    0.3879: real time    0.4066
    SETDIJ:  cpu time    0.4543: real time    0.4542
    TRIAL :  cpu time   15.5746: real time   16.4255
    CORREC:  cpu time    4.9654: real time    5.0940
    CHARGE:  cpu time    1.5395: real time    1.5398
    --------------------------------------------
      LOOP:  cpu time   22.9275: real time   23.9272

 eigenvalue-minimisations  :     0
 total energy-change (2. order) :-0.1141406E+02  (-0.1106547E+02)
 number of electron     269.9999992 magnetization      11.2179033
 augmentation part       88.9683201 magnetization       7.7906951

 Free energy of the ion-electron system (eV)
  ---------------------------------------------------
  alpha Z        PSCENC =       798.38614055
  Ewald energy   TEWEN  =    -12901.57693327
  -Hartree energ DENC   =     -2333.18619992
  -exchange      EXHF   =         0.00000000
  -V(xc)+E(xc)   XCENC  =     -1004.13811300
  PAW double counting   =     21527.33155043   -20326.68354002
  entropy T*S    EENTRO =         0.02520095
  eigenvalues    EBANDS =      1212.46446880
  atomic energy  EATOM  =     12697.67401269
  ---------------------------------------------------
  free energy    TOTEN  =      -329.70548368 eV

  energy without entropy =     -329.73068463  energy(sigma->0) =     -329.71388399


--------------------------------------------------------------------------------------------------------




--------------------------------------- Iteration      1(  12)  ---------------------------------------


    POTLOK:  cpu time    0.4196: real time    0.4196
    SETDIJ:  cpu time    0.5016: real time    0.5019
    TRIAL :  cpu time   15.6390: real time   15.8236
    CORREC:  cpu time    5.0835: real time    5.1092
    CHARGE:  cpu time    1.5375: real time    1.5376
    --------------------------------------------
      LOOP:  cpu time   23.1898: real time   23.4011

 eigenvalue-minimisations  :     0
 total energy-change (2. order) :-0.1122475E+02  (-0.1228208E+02)
 number of electron     269.9999993 magnetization      11.5293354
 augmentation part       86.7669083 magnetization       7.9826464

 Free energy of the ion-electron system (eV)
  ---------------------------------------------------
  alpha Z        PSCENC =       798.38614055
  Ewald energy   TEWEN  =    -12901.57693327
  -Hartree energ DENC   =     -2543.24554908
  -exchange      EXHF   =         0.00000000
  -V(xc)+E(xc)   XCENC  =      -996.93197691
  PAW double counting   =     21845.23132651   -20658.72603551
  entropy T*S    EENTRO =         0.00164810
  eigenvalues    EBANDS =      1418.23357964
  atomic energy  EATOM  =     12697.67401269
  ---------------------------------------------------
  free energy    TOTEN  =      -340.93023443 eV

  energy without entropy =     -340.93188253  energy(sigma->0) =     -340.93078379


--------------------------------------------------------------------------------------------------------




--------------------------------------- Iteration      1(  13)  ---------------------------------------


    POTLOK:  cpu time    0.3975: real time    0.3977
    SETDIJ:  cpu time    0.4549: real time    0.4549
    TRIAL :  cpu time   15.6084: real time   16.3319
    CORREC:  cpu time    5.8367: real time    5.8472
    CHARGE:  cpu time    1.5166: real time    1.5941
    --------------------------------------------
      LOOP:  cpu time   23.8249: real time   24.6390

 eigenvalue-minimisations  :     0
 total energy-change (2. order) :-0.1220385E+02  (-0.8602586E+00)
 number of electron     269.9999993 magnetization      11.7276519
 augmentation part       86.1902734 magnetization       7.9890949

 Free energy of the ion-electron system (eV)
  ---------------------------------------------------
  alpha Z        PSCENC =       798.38614055
  Ewald energy   TEWEN  =    -12901.57693327
  -Hartree energ DENC   =     -2518.88191679
  -exchange      EXHF   =         0.00000000
  -V(xc)+E(xc)   XCENC  =      -998.73866349
  PAW double counting   =     21233.99144261   -19995.64209478
  entropy T*S    EENTRO =        -0.00404590
  eigenvalues    EBANDS =      1331.65227747
  atomic energy  EATOM  =     12697.67401269
  ---------------------------------------------------
  free energy    TOTEN  =      -353.13408691 eV

  energy without entropy =     -353.13004101  energy(sigma->0) =     -353.13273828


--------------------------------------------------------------------------------------------------------




--------------------------------------- Iteration      1(  14)  ---------------------------------------


    POTLOK:  cpu time    0.3930: real time    0.4092
    SETDIJ:  cpu time    0.4507: real time    0.4509
    TRIAL :  cpu time   15.5990: real time   15.8099
    CORREC:  cpu time    5.0099: real time    5.0678
    CHARGE:  cpu time    1.5667: real time    1.5670
    --------------------------------------------
      LOOP:  cpu time   23.0260: real time   23.3124

 eigenvalue-minimisations  :     0
 total energy-change (2. order) :-0.8578426E+00  (-0.1121824E+01)
 number of electron     269.9999993 magnetization      11.6723253
 augmentation part       85.9257234 magnetization       7.9136129

 Free energy of the ion-electron system (eV)
  ---------------------------------------------------
  alpha Z        PSCENC =       798.38614055
  Ewald energy   TEWEN  =    -12901.57693327
  -Hartree energ DENC   =     -2486.25107457
  -exchange      EXHF   =         0.00000000
  -V(xc)+E(xc)   XCENC  =      -999.92564443
  PAW double counting   =     20834.54111174   -19586.50341379
  entropy T*S    EENTRO =        -0.00612505
  eigenvalues    EBANDS =      1289.66791748
  atomic energy  EATOM  =     12697.67401269
  ---------------------------------------------------
  free energy    TOTEN  =      -353.99192950 eV

  energy without entropy =     -353.98580445  energy(sigma->0) =     -353.98988782


--------------------------------------------------------------------------------------------------------




--------------------------------------- Iteration      1(  15)  ---------------------------------------


    POTLOK:  cpu time    0.3913: real time    0.3913
    SETDIJ:  cpu time    0.4777: real time    0.4778
    TRIAL :  cpu time   15.6980: real time   15.7737
    CORREC:  cpu time    5.0456: real time    5.0695
    CHARGE:  cpu time    1.5458: real time    1.5458
    --------------------------------------------
      LOOP:  cpu time   23.1611: real time   23.2626

 eigenvalue-minimisations  :     0
 total energy-change (2. order) :-0.1116415E+01  (-0.6197388E+00)
 number of electron     269.9999992 magnetization      11.6584153
 augmentation part       86.6754386 magnetization       7.9447581

 Free energy of the ion-electron system (eV)
  ---------------------------------------------------
  alpha Z        PSCENC =       798.38614055
  Ewald energy   TEWEN  =    -12901.57693327
  -Hartree energ DENC   =     -2459.86180501
  -exchange      EXHF   =         0.00000000
  -V(xc)+E(xc)   XCENC  =     -1000.85444999
  PAW double counting   =     20101.36389839   -18845.10084322
  entropy T*S    EENTRO =        -0.01077823
  eigenvalues    EBANDS =      1254.86776046
  atomic energy  EATOM  =     12697.67401269
  ---------------------------------------------------
  free energy    TOTEN  =      -355.10834444 eV

  energy without entropy =     -355.09756621  energy(sigma->0) =     -355.10475170


--------------------------------------------------------------------------------------------------------




--------------------------------------- Iteration      1(  16)  ---------------------------------------


    POTLOK:  cpu time    0.4187: real time    0.4187
    SETDIJ:  cpu time    0.4540: real time    0.4540
    TRIAL :  cpu time   15.5643: real time   16.4206
    CORREC:  cpu time    4.9743: real time    5.0263
    CHARGE:  cpu time    1.5292: real time    1.5814
    --------------------------------------------
      LOOP:  cpu time   22.9440: real time   23.9069

 eigenvalue-minimisations  :     0
 total energy-change (2. order) :-0.6231346E+00  (-0.2248170E+00)
 number of electron     269.9999992 magnetization      11.7742940
 augmentation part       87.1484314 magnetization       8.0142844

 Free energy of the ion-electron system (eV)
  ---------------------------------------------------
  alpha Z        PSCENC =       798.38614055
  Ewald energy   TEWEN  =    -12901.57693327
  -Hartree energ DENC   =     -2489.04937054
  -exchange      EXHF   =         0.00000000
  -V(xc)+E(xc)   XCENC  =      -999.68738422
  PAW double counting   =     19741.17066277   -18490.50833151
  entropy T*S    EENTRO =        -0.01154635
  eigenvalues    EBANDS =      1287.87050271
  atomic energy  EATOM  =     12697.67401269
  ---------------------------------------------------
  free energy    TOTEN  =      -355.73147904 eV

  energy without entropy =     -355.71993270  energy(sigma->0) =     -355.72763026


--------------------------------------------------------------------------------------------------------




--------------------------------------- Iteration      1(  17)  ---------------------------------------


    POTLOK:  cpu time    0.3914: real time    0.3914
    SETDIJ:  cpu time    0.4789: real time    0.4791
    TRIAL :  cpu time   15.6731: real time   15.8521
    CORREC:  cpu time    5.0474: real time    5.0974
    CHARGE:  cpu time    1.5879: real time    1.5964
    --------------------------------------------
      LOOP:  cpu time   23.1878: real time   23.4283

 eigenvalue-minimisations  :     0
 total energy-change (2. order) :-0.2255423E+00  (-0.2974948E+00)
 number of electron     269.9999992 magnetization      11.7478204
 augmentation part       87.2564743 magnetization       8.1079770

 Free energy of the ion-electron system (eV)
  ---------------------------------------------------
  alpha Z        PSCENC =       798.38614055
  Ewald energy   TEWEN  =    -12901.57693327
  -Hartree energ DENC   =     -2509.99441717
  -exchange      EXHF   =         0.00000000
  -V(xc)+E(xc)   XCENC  =      -998.79135527
  PAW double counting   =     19640.58127697   -18394.41585142
  entropy T*S    EENTRO =        -0.01422302
  eigenvalues    EBANDS =      1312.19165191
  atomic energy  EATOM  =     12697.67401269
  ---------------------------------------------------
  free energy    TOTEN  =      -355.95702135 eV

  energy without entropy =     -355.94279833  energy(sigma->0) =     -355.95228034


--------------------------------------------------------------------------------------------------------




--------------------------------------- Iteration      1(  18)  ---------------------------------------


    POTLOK:  cpu time    0.3928: real time    0.3929
    SETDIJ:  cpu time    0.4586: real time    0.4586
    TRIAL :  cpu time   15.6332: real time   15.6894
    CORREC:  cpu time    5.8978: real time    6.5433
    CHARGE:  cpu time    1.5444: real time    1.5537
    --------------------------------------------
      LOOP:  cpu time   23.9313: real time   24.6444

 eigenvalue-minimisations  :     0
 total energy-change (2. order) :-0.2976140E+00  (-0.9383849E-01)
 number of electron     269.9999992 magnetization      11.8056197
 augmentation part       87.0704039 magnetization       8.1595982

 Free energy of the ion-electron system (eV)
  ---------------------------------------------------
  alpha Z        PSCENC =       798.38614055
  Ewald energy   TEWEN  =    -12901.57693327
  -Hartree energ DENC   =     -2511.69349290
  -exchange      EXHF   =         0.00000000
  -V(xc)+E(xc)   XCENC  =      -998.32066785
  PAW double counting   =     19532.07229770   -18286.80239293
  entropy T*S    EENTRO =        -0.01511530
  eigenvalues    EBANDS =      1314.02062372
  atomic energy  EATOM  =     12697.67401269
  ---------------------------------------------------
  free energy    TOTEN  =      -356.25463532 eV

  energy without entropy =     -356.23952002  energy(sigma->0) =     -356.24959688


--------------------------------------------------------------------------------------------------------




--------------------------------------- Iteration      1(  19)  ---------------------------------------


    POTLOK:  cpu time    0.3906: real time    0.3908
    SETDIJ:  cpu time    0.4099: real time    0.5139
    TRIAL :  cpu time   15.6135: real time   15.8039
    CORREC:  cpu time    5.0015: real time    5.0535
    CHARGE:  cpu time    1.5407: real time    1.5408
    --------------------------------------------
      LOOP:  cpu time   22.9588: real time   23.3080

 eigenvalue-minimisations  :     0
 total energy-change (2. order) :-0.9359413E-01  (-0.4885464E-01)
 number of electron     269.9999992 magnetization      11.8123013
 augmentation part       86.8958080 magnetization       8.1765305

 Free energy of the ion-electron system (eV)
  ---------------------------------------------------
  alpha Z        PSCENC =       798.38614055
  Ewald energy   TEWEN  =    -12901.57693327
  -Hartree energ DENC   =     -2501.48568299
  -exchange      EXHF   =         0.00000000
  -V(xc)+E(xc)   XCENC  =      -998.52804993
  PAW double counting   =     19496.89902920   -18249.63648728
  entropy T*S    EENTRO =        -0.01535377
  eigenvalues    EBANDS =      1301.93485688
  atomic energy  EATOM  =     12697.67401269
  ---------------------------------------------------
  free energy    TOTEN  =      -356.34822945 eV

  energy without entropy =     -356.33287568  energy(sigma->0) =     -356.34311153


--------------------------------------------------------------------------------------------------------




--------------------------------------- Iteration      1(  20)  ---------------------------------------


    POTLOK:  cpu time    0.3979: real time    0.3981
    SETDIJ:  cpu time    0.4739: real time    0.4739
    TRIAL :  cpu time   15.7394: real time   15.8316
    CORREC:  cpu time    5.0212: real time    5.0466
    CHARGE:  cpu time    1.5537: real time    1.5541
    --------------------------------------------
      LOOP:  cpu time   23.1969: real time   23.3162

 eigenvalue-minimisations  :     0
 total energy-change (2. order) :-0.4871273E-01  (-0.6905049E-01)
 number of electron     269.9999992 magnetization      11.8219137
 augmentation part       86.7792126 magnetization       8.2098066

 Free energy of the ion-electron system (eV)
  ---------------------------------------------------
  alpha Z        PSCENC =       798.38614055
  Ewald energy   TEWEN  =    -12901.57693327
  -Hartree energ DENC   =     -2493.42291129
  -exchange      EXHF   =         0.00000000
  -V(xc)+E(xc)   XCENC  =      -998.72884802
  PAW double counting   =     19480.45324095   -18231.46728784
  entropy T*S    EENTRO =        -0.01681699
  eigenvalues    EBANDS =      1292.30099783
  atomic energy  EATOM  =     12697.67401269
  ---------------------------------------------------
  free energy    TOTEN  =      -356.39694218 eV

  energy without entropy =     -356.38012519  energy(sigma->0) =     -356.39133651


--------------------------------------------------------------------------------------------------------




--------------------------------------- Iteration      1(  21)  ---------------------------------------


    POTLOK:  cpu time    0.3915: real time    0.3915
    SETDIJ:  cpu time    0.4630: real time    0.4630
    TRIAL :  cpu time   15.5770: real time   16.4389
    CORREC:  cpu time    5.0164: real time    5.0313
    CHARGE:  cpu time    1.5447: real time    1.5602
    --------------------------------------------
      LOOP:  cpu time   22.9979: real time   23.8920

 eigenvalue-minimisations  :     0
 total energy-change (2. order) :-0.6898938E-01  (-0.4901241E-01)
 number of electron     269.9999992 magnetization      11.8831756
 augmentation part       86.9379051 magnetization       8.2643070

 Free energy of the ion-electron system (eV)
  ---------------------------------------------------
  alpha Z        PSCENC =       798.38614055
  Ewald energy   TEWEN  =    -12901.57693327
  -Hartree energ DENC   =     -2490.20550530
  -exchange      EXHF   =         0.00000000
  -V(xc)+E(xc)   XCENC  =      -998.70359459
  PAW double counting   =     19478.24850406   -18228.53305990
  entropy T*S    EENTRO =        -0.01739331
  eigenvalues    EBANDS =      1288.26132119
  atomic energy  EATOM  =     12697.67401269
  ---------------------------------------------------
  free energy    TOTEN  =      -356.46593156 eV

  energy without entropy =     -356.44853825  energy(sigma->0) =     -356.46013379


--------------------------------------------------------------------------------------------------------




--------------------------------------- Iteration      1(  22)  ---------------------------------------


    POTLOK:  cpu time    0.3895: real time    0.4372
    SETDIJ:  cpu time    0.4506: real time    0.4506
    TRIAL :  cpu time   15.6343: real time   15.7621
    CORREC:  cpu time    5.0006: real time    5.0937
    CHARGE:  cpu time    1.5556: real time    1.5869
    --------------------------------------------
      LOOP:  cpu time   23.0320: real time   23.3364

 eigenvalue-minimisations  :     0
 total energy-change (2. order) :-0.4906507E-01  (-0.1207141E-01)
 number of electron     269.9999992 magnetization      11.8798551
 augmentation part       86.9831112 magnetization       8.2773311

 Free energy of the ion-electron system (eV)
  ---------------------------------------------------
  alpha Z        PSCENC =       798.38614055
  Ewald energy   TEWEN  =    -12901.57693327
  -Hartree energ DENC   =     -2501.07310728
  -exchange      EXHF   =         0.00000000
  -V(xc)+E(xc)   XCENC  =      -998.20635799
  PAW double counting   =     19502.45751531   -18254.98472771
  entropy T*S    EENTRO =        -0.01747137
  eigenvalues    EBANDS =      1300.82585439
  atomic energy  EATOM  =     12697.67401269
  ---------------------------------------------------
  free energy    TOTEN  =      -356.51499663 eV

  energy without entropy =     -356.49752526  energy(sigma->0) =     -356.50917284


--------------------------------------------------------------------------------------------------------




--------------------------------------- Iteration      1(  23)  ---------------------------------------


    POTLOK:  cpu time    0.3913: real time    0.3913
    SETDIJ:  cpu time    0.5219: real time    0.5307
    TRIAL :  cpu time   15.6455: real time   15.7075
    CORREC:  cpu time    6.2249: real time    6.8729
    CHARGE:  cpu time    1.5197: real time    1.5197
    --------------------------------------------
      LOOP:  cpu time   24.3084: real time   25.0283

 eigenvalue-minimisations  :     0
 total energy-change (2. order) :-0.1207658E-01  (-0.1585449E-01)
 number of electron     269.9999992 magnetization      11.9385824
 augmentation part       86.9730888 magnetization       8.3112472

 Free energy of the ion-electron system (eV)
  ---------------------------------------------------
  alpha Z        PSCENC =       798.38614055
  Ewald energy   TEWEN  =    -12901.57693327
  -Hartree energ DENC   =     -2503.83954193
  -exchange      EXHF   =         0.00000000
  -V(xc)+E(xc)   XCENC  =      -998.06916888
  PAW double counting   =     19506.88927063   -18259.98946238
  entropy T*S    EENTRO =        -0.01741535
  eigenvalues    EBANDS =      1304.01608076
  atomic energy  EATOM  =     12697.67401269
  ---------------------------------------------------
  free energy    TOTEN  =      -356.52707320 eV

  energy without entropy =     -356.50965785  energy(sigma->0) =     -356.52126809


--------------------------------------------------------------------------------------------------------




--------------------------------------- Iteration      1(  24)  ---------------------------------------


    POTLOK:  cpu time    0.3893: real time    0.3985
    SETDIJ:  cpu time    0.4666: real time    0.4667
    TRIAL :  cpu time   15.6190: real time   15.8846
    CORREC:  cpu time    4.9885: real time    4.9987
    CHARGE:  cpu time    1.5406: real time    1.5620
    --------------------------------------------
      LOOP:  cpu time   23.0108: real time   23.3183

 eigenvalue-minimisations  :     0
 total energy-change (2. order) :-0.1585439E-01  (-0.1184736E-01)
[...]
   45        0.021   0.020   2.383   2.424
   46        0.020   0.015   2.401   2.437
   47       -0.013  -0.023  -2.266  -2.301
   48        0.030   0.032   2.236   2.297
   49        0.016   0.023   2.370   2.409
   50       -0.016  -0.015  -2.306  -2.337
   51        0.010   0.009   2.327   2.346
   52        0.016   0.023   2.362   2.401
   53       -0.016  -0.015  -2.296  -2.327
   54        0.010   0.009   2.328   2.347
--------------------------------------------------
tot         -0.016  -0.064  11.972  11.893
 
    FORLOC:  cpu time    0.0589: real time    0.0589
    FORNL :  cpu time   23.4599: real time   24.2829
    STRESS:  cpu time   34.0333: real time   34.3527
    FORCOR:  cpu time    0.4423: real time    0.4422
    OFIELD:  cpu time    0.0019: real time    0.0019

  FORCE on cell =-STRESS in cart. coord.  units (eV):
  Direction    XX          YY          ZZ          XY          YZ          ZX
  --------------------------------------------------------------------------------------
  Alpha Z   798.38614   798.38614   798.38614
  Ewald   -4053.61603 -4053.61603 -4794.40593    -0.00000    -0.00000    -0.00000
  Hartree  1085.33238  1084.01671   332.00892    -0.00000    -0.00000    -0.00000
  E(xc)   -1141.86451 -1141.61704 -1139.72309    -0.00000    -0.00000    -0.00000
  Local     366.34212   369.49224  1906.88995     0.00000    -0.00000    -0.00000
  n-local  -170.64266  -170.17784  -175.50461     0.38224    -0.28036    -0.26039
  augment   785.48496   784.47332   767.04358     0.00000     0.00001     0.00001
  Kinetic  2337.30294  2334.89109  2307.52793    -2.53607    -1.36537    -1.53432
  Fock        0.00000     0.00000     0.00000     0.00000     0.00000     0.00000
  -------------------------------------------------------------------------------------
  Total       6.72534     5.84859     2.22289     0.00000     0.00000     0.00000
  in kB      15.17821    13.19951     5.01677     0.00000     0.00000     0.00000
  external pressure =       11.13 kB  Pullay stress =        0.00 kB


 VOLUME and BASIS-vectors are now :
 -----------------------------------------------------------------------------
  energy-cutoff  :      404.80
  volume of cell :      709.91
      direct lattice vectors                 reciprocal lattice vectors
     8.250148166  0.000000000  0.000000000     0.121209944  0.000000000  0.000000000
     0.000000000  8.250148166  0.000000000     0.000000000  0.121209944  0.000000000
     0.000000000  0.000000000 10.429911392     0.000000000  0.000000000  0.095878092

  length of vectors
     8.250148166  8.250148166 10.429911392     0.121209944  0.121209944  0.095878092


 FORCES acting on ions:
    Electron-Ion                     Ewald-Force                    Non-Local-Force
 -----------------------------------------------------------------------------------------------
   -.593E-01 -.226E-01 0.301E-01   -.239E-08 -.239E-08 -.210E-08   -.234E-01 -.166E-01 0.155E-02
   -.109E-01 -.476E-04 0.575E-01   -.239E-08 -.239E-08 0.171E-08   0.921E-02 0.973E-02 -.198E-01
   -.134E+00 -.101E+00 -.125E+00   -.239E-08 -.239E-08 0.861E-08   0.643E-01 0.817E-01 0.415E-01
   -.593E-01 0.226E-01 0.301E-01   -.239E-08 -.802E-09 -.210E-08   -.234E-01 0.166E-01 0.155E-02
   -.109E-01 0.476E-04 0.575E-01   -.239E-08 -.802E-09 0.171E-08   0.921E-02 -.973E-02 -.198E-01
   -.134E+00 0.101E+00 -.125E+00   -.239E-08 -.802E-09 0.861E-08   0.643E-01 -.817E-01 0.415E-01
   0.197E-01 -.328E-08 0.169E-01   -.239E-08 0.631E-08 -.210E-08   0.805E-02 0.000E+00 -.634E-01
   -.542E-02 -.329E-08 0.114E+00   -.239E-08 0.631E-08 0.171E-08   0.595E-02 -.678E-19 -.647E-01
   0.264E-01 -.329E-08 -.618E-01   -.239E-08 0.631E-08 0.861E-08   -.149E-01 0.000E+00 0.658E-01
   0.372E-09 0.826E-01 0.148E-01   -.802E-09 -.239E-08 -.210E-08   0.000E+00 -.556E-01 0.522E-01
   0.373E-09 -.900E-02 -.394E-01   -.802E-09 -.239E-08 0.171E-08   0.000E+00 0.998E-02 0.213E-01
   0.372E-09 -.721E-01 -.509E-01   -.803E-09 -.239E-08 0.861E-08   0.000E+00 0.166E+00 -.995E-02
   0.372E-09 -.826E-01 0.148E-01   -.802E-09 -.802E-09 -.210E-08   -.434E-18 0.556E-01 0.522E-01
   0.373E-09 0.900E-02 -.394E-01   -.802E-09 -.802E-09 0.171E-08   0.000E+00 -.998E-02 0.213E-01
   0.372E-09 0.721E-01 -.509E-01   -.803E-09 -.802E-09 0.861E-08   0.217E-18 -.166E+00 -.995E-02
   0.373E-09 -.327E-08 0.646E-02   -.802E-09 0.631E-08 -.210E-08   0.000E+00 0.000E+00 -.404E-01
   0.373E-09 -.329E-08 0.182E+00   -.802E-09 0.631E-08 0.171E-08   0.000E+00 0.000E+00 -.753E-01
   0.373E-09 -.328E-08 -.415E-01   -.803E-09 0.631E-08 0.861E-08   0.000E+00 0.000E+00 0.178E-01
   0.593E-01 -.226E-01 0.301E-01   0.631E-08 -.239E-08 -.210E-08   0.234E-01 -.166E-01 0.155E-02
   0.109E-01 -.476E-04 0.575E-01   0.631E-08 -.239E-08 0.171E-08   -.921E-02 0.973E-02 -.198E-01
   0.134E+00 -.101E+00 -.125E+00   0.631E-08 -.239E-08 0.861E-08   -.643E-01 0.817E-01 0.415E-01
   0.593E-01 0.226E-01 0.301E-01   0.631E-08 -.802E-09 -.210E-08   0.234E-01 0.166E-01 0.155E-02
   0.109E-01 0.476E-04 0.575E-01   0.631E-08 -.802E-09 0.171E-08   -.921E-02 -.973E-02 -.198E-01
   0.134E+00 0.101E+00 -.125E+00   0.631E-08 -.802E-09 0.861E-08   -.643E-01 -.817E-01 0.415E-01
   -.197E-01 -.328E-08 0.169E-01   0.631E-08 0.631E-08 -.210E-08   -.805E-02 -.407E-19 -.634E-01
   0.542E-02 -.329E-08 0.114E+00   0.631E-08 0.631E-08 0.171E-08   -.595E-02 0.000E+00 -.647E-01
   -.264E-01 -.329E-08 -.618E-01   0.631E-08 0.631E-08 0.861E-08   0.149E-01 0.000E+00 0.658E-01
   0.100E+00 0.485E-08 0.167E+00   -.169E-07 -.169E-07 -.180E-07   -.225E-01 0.000E+00 -.127E+00
   -.973E-02 0.483E-08 0.209E+00   -.169E-07 -.169E-07 -.170E-08   -.356E-01 0.000E+00 -.345E+00
   0.553E+00 0.478E-08 -.238E+00   -.169E-07 -.169E-07 0.115E-07   -.237E+00 -.434E-18 0.214E+00
   0.137E-01 -.426E-01 -.347E-01   -.169E-07 0.802E-09 -.180E-07   -.351E-01 0.262E-01 0.100E+00
   0.304E-01 0.497E-01 -.119E+00   -.169E-07 0.802E-09 -.170E-08   0.519E-03 -.104E-01 0.122E+00
   -.272E-01 0.272E+00 0.625E-01   -.169E-07 0.802E-09 0.115E-07   0.605E-02 -.970E-01 -.969E-01
   0.137E-01 0.426E-01 -.347E-01   -.169E-07 0.130E-07 -.180E-07   -.351E-01 -.262E-01 0.100E+00
   0.304E-01 -.497E-01 -.119E+00   -.169E-07 0.130E-07 -.170E-08   0.519E-03 0.104E-01 0.122E+00
   -.272E-01 -.272E+00 0.625E-01   -.169E-07 0.130E-07 0.115E-07   0.605E-02 0.970E-01 -.969E-01
   -.100E+00 0.485E-08 0.167E+00   0.802E-09 -.169E-07 -.180E-07   0.225E-01 0.000E+00 -.127E+00
   0.973E-02 0.483E-08 0.209E+00   0.802E-09 -.169E-07 -.170E-08   0.356E-01 0.000E+00 -.345E+00
   -.553E+00 0.478E-08 -.238E+00   0.802E-09 -.169E-07 0.115E-07   0.237E+00 0.000E+00 0.214E+00
   -.137E-01 -.426E-01 -.347E-01   0.802E-09 0.802E-09 -.180E-07   0.351E-01 0.262E-01 0.100E+00
   -.304E-01 0.497E-01 -.119E+00   0.802E-09 0.802E-09 -.170E-08   -.519E-03 -.104E-01 0.122E+00
   0.272E-01 0.272E+00 0.625E-01   0.802E-09 0.802E-09 0.115E-07   -.605E-02 -.970E-01 -.969E-01
   -.137E-01 0.426E-01 -.347E-01   0.802E-09 0.130E-07 -.180E-07   0.351E-01 -.262E-01 0.100E+00
   -.304E-01 -.497E-01 -.119E+00   0.802E-09 0.130E-07 -.170E-08   -.519E-03 0.104E-01 0.122E+00
   0.272E-01 -.272E+00 0.625E-01   0.802E-09 0.130E-07 0.115E-07   -.605E-02 0.970E-01 -.969E-01
   -.605E-08 0.483E-08 -.805E-01   0.130E-07 -.169E-07 -.180E-07   0.000E+00 0.000E+00 0.114E+00
   -.605E-08 0.488E-08 -.294E+00   0.130E-07 -.169E-07 -.170E-08   0.000E+00 0.000E+00 0.356E+00
   -.605E-08 0.488E-08 0.157E+00   0.130E-07 -.169E-07 0.115E-07   0.000E+00 0.000E+00 -.110E+00
   -.605E-08 -.746E-01 0.454E-01   0.130E-07 0.802E-09 -.180E-07   -.434E-18 0.126E+00 0.271E-01
   -.605E-08 -.602E-01 0.330E-01   0.130E-07 0.802E-09 -.170E-08   0.217E-18 0.212E-01 -.318E-01
   -.605E-08 -.214E+00 -.175E-01   0.130E-07 0.802E-09 0.115E-07   0.000E+00 0.218E+00 -.602E-01
   -.605E-08 0.746E-01 0.454E-01   0.130E-07 0.130E-07 -.180E-07   0.434E-18 -.126E+00 0.271E-01
   -.605E-08 0.602E-01 0.330E-01   0.130E-07 0.130E-07 -.170E-08   0.000E+00 -.212E-01 -.318E-01
   -.605E-08 0.214E+00 -.175E-01   0.130E-07 0.130E-07 0.115E-07   0.000E+00 -.218E+00 -.602E-01
 -----------------------------------------------------------------------------------------------
   -.358E-07 -.405E-07 -.212E+00   -.614E-13 -.142E-13 0.128E-13   0.129E-15 0.000E+00 0.212E+00
 
 
 POSITION                                       TOTAL-FORCE (eV/Angst)
 -----------------------------------------------------------------------------------
      0.00000      0.00000      0.00000        -0.080428     -0.037339      0.030226
      0.00000      0.00000      3.47664        -0.002565      0.008956      0.039748
      0.00000      0.00000      6.95327        -0.075102     -0.026324     -0.086069
      0.00000      2.75005      0.00000        -0.080428      0.037339      0.030226
      0.00000      2.75005      3.47664        -0.002565     -0.008956      0.039748
      0.00000      2.75005      6.95327        -0.075102      0.026324     -0.086069
      0.00000      5.50010      0.00000         0.027484      0.000000     -0.041444
      0.00000      5.50010      3.47664         0.000117      0.000000      0.055190
      0.00000      5.50010      6.95327         0.013215      0.000000     -0.001449
      2.75005      0.00000      0.00000         0.000000      0.032422      0.061009
      2.75005      0.00000      3.47664         0.000000      0.000178     -0.020670
      2.75005      0.00000      6.95327         0.000000      0.079663     -0.058680
      2.75005      2.75005      0.00000         0.000000     -0.032422      0.061009
      2.75005      2.75005      3.47664         0.000000     -0.000178     -0.020670
      2.75005      2.75005      6.95327         0.000000     -0.079663     -0.058680
      2.75005      5.50010      0.00000         0.000000      0.000000     -0.031098
      2.75005      5.50010      3.47664         0.000000      0.000000      0.114874
      2.75005      5.50010      6.95327         0.000000      0.000000     -0.024598
      5.50010      0.00000      0.00000         0.080428     -0.037339      0.030226
      5.50010      0.00000      3.47664         0.002565      0.008956      0.039748
      5.50010      0.00000      6.95327         0.075102     -0.026324     -0.086069
      5.50010      2.75005      0.00000         0.080428      0.037339      0.030226
      5.50010      2.75005      3.47664         0.002565     -0.008956      0.039748
      5.50010      2.75005      6.95327         0.075102      0.026324     -0.086069
      5.50010      5.50010      0.00000        -0.027484      0.000000     -0.041444
      5.50010      5.50010      3.47664        -0.000117      0.000000      0.055190
      5.50010      5.50010      6.95327        -0.013215      0.000000     -0.001449
      1.37502      1.37502      1.73832         0.077193      0.000000      0.041609
      1.37502      1.37502      5.21496        -0.043373      0.000000     -0.127528
      1.37502      1.37502      8.69159         0.324310      0.000000     -0.029797
      1.37502      4.12507      1.73832        -0.021130     -0.014272      0.056947
      1.37502      4.12507      5.21496         0.031115      0.038884      0.001228
      1.37502      4.12507      8.69159        -0.021724      0.178076     -0.028563
      1.37502      6.87512      1.73832        -0.021130      0.014272      0.056947
      1.37502      6.87512      5.21496         0.031115     -0.038884      0.001228
      1.37502      6.87512      8.69159        -0.021724     -0.178076     -0.028563
      4.12507      1.37502      1.73832        -0.077193      0.000000      0.041609
      4.12507      1.37502      5.21496         0.043373      0.000000     -0.127528
      4.12507      1.37502      8.69159        -0.324310      0.000000     -0.029797
      4.12507      4.12507      1.73832         0.021130     -0.014272      0.056947
      4.12507      4.12507      5.21496        -0.031115      0.038884      0.001228
      4.12507      4.12507      8.69159         0.021724      0.178076     -0.028563
      4.12507      6.87512      1.73832         0.021130      0.014272      0.056947
      4.12507      6.87512      5.21496        -0.031115     -0.038884      0.001228
      4.12507      6.87512      8.69159         0.021724     -0.178076     -0.028563
      6.87512      1.37502      1.73832         0.000000      0.000000      0.026402
      6.87512      1.37502      5.21496         0.000000      0.000000      0.055176
      6.87512      1.37502      8.69159         0.000000      0.000000      0.050440
      6.87512      4.12507      1.73832         0.000000      0.050231      0.064779
      6.87512      4.12507      5.21496         0.000000     -0.039570      0.004407
      6.87512      4.12507      8.69159         0.000000      0.001097     -0.070057
      6.87512      6.87512      1.73832         0.000000     -0.050231      0.064779
      6.87512      6.87512      5.21496         0.000000      0.039570      0.004407
      6.87512      6.87512      8.69159         0.000000     -0.001097     -0.070057
 -----------------------------------------------------------------------------------
    total drift:                               -0.000000     -0.000000      0.000020


--------------------------------------------------------------------------------------------------------



  FREE ENERGIE OF THE ION-ELECTRON SYSTEM (eV)
  ---------------------------------------------------
  free  energy   TOTEN  =      -356.58703838 eV

  energy  without entropy=     -356.57139629  energy(sigma->0) =     -356.58182435
 


--------------------------------------------------------------------------------------------------------


    POTLOK:  cpu time    0.8671: real time    0.8671


--------------------------------------------------------------------------------------------------------


     LOOP+:  cpu time 1673.5595: real time 1706.3651
    4ORBIT:  cpu time    0.0000: real time    0.0000
 


 total charge     
 
# of ion       s       p       d       tot
------------------------------------------
    1        0.404   0.430   0.000   0.834
    2        0.405   0.427   0.000   0.832
    3        0.405   0.428   0.000   0.833
    4        0.404   0.430   0.000   0.834
    5        0.405   0.427   0.000   0.832
    6        0.405   0.428   0.000   0.833
    7        0.404   0.428   0.000   0.832
    8        0.405   0.428   0.000   0.833
    9        0.405   0.426   0.000   0.831
   10        0.405   0.429   0.000   0.834
   11        0.405   0.427   0.000   0.833
   12        0.405   0.428   0.000   0.834
   13        0.405   0.429   0.000   0.834
   14        0.405   0.427   0.000   0.832
   15        0.405   0.429   0.000   0.834
   16        0.404   0.427   0.000   0.832
   17        0.405   0.427   0.000   0.832
   18        0.405   0.426   0.000   0.831
   19        0.404   0.429   0.000   0.834
   20        0.405   0.427   0.000   0.832
   21        0.405   0.428   0.000   0.834
   22        0.405   0.430   0.000   0.834
   23        0.405   0.427   0.000   0.832
   24        0.405   0.428   0.000   0.834
   25        0.404   0.428   0.000   0.832
   26        0.405   0.428   0.000   0.833
   27        0.405   0.426   0.000   0.831
   28        0.331   0.352   5.143   5.826
   29        0.335   0.349   5.139   5.823
   30        0.334   0.355   5.128   5.817
   31        0.333   0.351   5.130   5.815
   32        0.334   0.352   5.128   5.813
   33        0.333   0.355   5.127   5.815
   34        0.333   0.350   5.145   5.828
   35        0.334   0.352   5.142   5.827
   36        0.334   0.355   5.133   5.822
   37        0.331   0.353   5.129   5.813
   38        0.335   0.350   5.136   5.820
   39        0.334   0.355   5.128   5.817
   40        0.333   0.351   5.130   5.815
   41        0.333   0.352   5.127   5.813
   42        0.333   0.355   5.133   5.822
   43        0.333   0.350   5.141   5.825
   44        0.334   0.352   5.141   5.826
   45        0.333   0.354   5.126   5.814
   46        0.334   0.349   5.138   5.821
   47        0.334   0.353   5.131   5.819
   48        0.331   0.358   5.131   5.821
   49        0.334   0.352   5.131   5.818
   50        0.335   0.350   5.132   5.817
   51        0.331   0.353   5.139   5.823
   52        0.334   0.352   5.137   5.823
   53        0.335   0.350   5.141   5.826
   54        0.331   0.353   5.137   5.821
--------------------------------------------------
tot         19.936  21.064 138.625 179.625
 


 magnetization (x)
 
# of ion       s       p       d       tot
------------------------------------------
    1       -0.016  -0.030   0.000  -0.046
    2       -0.000   0.000   0.000   0.000
    3        0.005   0.011   0.000   0.016
    4       -0.017  -0.029   0.000  -0.046
    5        0.000   0.000   0.000   0.000
    6        0.005   0.010   0.000   0.015
    7       -0.022  -0.037   0.000  -0.059
    8       -0.000   0.001   0.000   0.001
    9        0.000   0.002   0.000   0.002
   10       -0.012  -0.021   0.000  -0.033
   11       -0.000   0.002   0.000   0.002
   12        0.009   0.020   0.000   0.029
   13       -0.012  -0.020   0.000  -0.032
   14       -0.000   0.002   0.000   0.002
   15        0.010   0.019   0.000   0.028
   16       -0.021  -0.035   0.000  -0.056
   17        0.000  -0.002   0.000  -0.002
   18        0.002   0.005   0.000   0.006
   19       -0.017  -0.029   0.000  -0.046
   20       -0.000   0.000   0.000   0.000
   21        0.005   0.010   0.000   0.015
   22       -0.017  -0.029   0.000  -0.045
   23        0.000   0.000   0.000   0.000
   24        0.005   0.009   0.000   0.014
   25       -0.022  -0.037   0.000  -0.059
   26       -0.000   0.001   0.000   0.000
   27        0.000   0.002   0.000   0.002
   28        0.013   0.020   2.222   2.255
   29       -0.019  -0.017  -2.357  -2.392
   30       -0.024  -0.018  -2.406  -2.448
   31        0.018   0.018   2.380   2.417
   32       -0.014  -0.019  -2.288  -2.321
   33        0.021   0.021   2.379   2.420
   34        0.018   0.019   2.363   2.400
   35       -0.014  -0.019  -2.271  -2.304
   36        0.021   0.021   2.384   2.426
   37        0.013   0.020   2.239   2.272
   38       -0.019  -0.017  -2.366  -2.401
   39       -0.024  -0.018  -2.406  -2.448
   40        0.018   0.019   2.383   2.420
   41       -0.015  -0.019  -2.295  -2.329
   42        0.021   0.021   2.384   2.426
   43        0.018   0.019   2.365   2.402
   44       -0.014  -0.019  -2.274  -2.307
   45        0.021   0.020   2.383   2.424
   46        0.020   0.015   2.401   2.437
   47       -0.013  -0.023  -2.266  -2.301
   48        0.030   0.032   2.236   2.297
   49        0.016   0.023   2.370   2.409
   50       -0.016  -0.015  -2.306  -2.337
   51        0.010   0.009   2.327   2.346
   52        0.016   0.023   2.362   2.401
   53       -0.016  -0.015  -2.296  -2.327
   54        0.010   0.009   2.328   2.347
--------------------------------------------------
tot         -0.016  -0.064  11.972  11.893
 

 total amount of memory used by VASP MPI-rank0   887625. kBytes
=======================================================================

   base      :      30000. kBytes
   nonl-proj :      28494. kBytes
   fftplans  :      31580. kBytes
   grid      :      21385. kBytes
   one-center:        435. kBytes
   wavefun   :     775731. kBytes
 
  
  
 General timing and accounting informations for this job:
 ========================================================
  
                  Total CPU time used (sec):     1705.447
                            User time (sec):     1680.992
                          System time (sec):       24.455
                         Elapsed time (sec):     1740.780
  
                   Maximum memory used (kb):     1057316.
                   Average memory used (kb):           0.
  
                          Minor page faults:       567842
                          Major page faults:           16
                 Voluntary context switches:         3067
