  36  36   1   0
  0.1314651E+02  0.8250148E-09  0.8250148E-09  0.6953274E-09  0.2000000E-15
  1.000000000000000E-004
  CAR 
 AlMn_pv                                 
     10.98732417     -4.53055300  301      7.76242694      1.00000000
     -4.531  0.0000E+00  0.0000E+00  0.0000E+00  0.0000E+00
     -4.479  0.0000E+00  0.0000E+00  0.0000E+00  0.0000E+00
     -4.427  0.0000E+00  0.0000E+00  0.0000E+00  0.0000E+00
     -4.375  0.0000E+00  0.0000E+00  0.0000E+00  0.0000E+00
     -4.324  0.0000E+00  0.0000E+00  0.0000E+00  0.0000E+00
     -4.272  0.0000E+00  0.0000E+00  0.0000E+00  0.0000E+00
     -4.220  0.0000E+00  0.0000E+00  0.0000E+00  0.0000E+00
     -4.168  0.0000E+00 -0.2218E-29  0.0000E+00 -0.1148E-30
     -4.117 -0.1971E-28 -0.1367E-27 -0.1020E-29 -0.7187E-29
     -4.065 -0.1136E-26 -0.7505E-26 -0.5979E-28 -0.3954E-27
     -4.013 -0.5786E-25 -0.3584E-24 -0.3053E-26 -0.1893E-25
     -3.962 -0.2575E-23 -0.1495E-22 -0.1362E-24 -0.7924E-24
     -3.910 -0.1001E-21 -0.5451E-21 -0.5313E-23 -0.2899E-22
     -3.858 -0.3399E-20 -0.1736E-19 -0.1811E-21 -0.9269E-21
     -3.806 -0.1009E-18 -0.4829E-18 -0.5398E-20 -0.2591E-19
     -3.755 -0.2614E-17 -0.1174E-16 -0.1406E-18 -0.6330E-18
     -3.703 -0.5918E-16 -0.2420E-15 -0.3202E-17 -0.1315E-16
     -3.651 -0.1135E-14 -0.4477E-14 -0.6190E-16 -0.2447E-15
     -3.599 -0.1954E-13 -0.7229E-13 -0.1072E-14 -0.3984E-14
     -3.548 -0.2943E-12 -0.1019E-11 -0.1629E-13 -0.5671E-13
     -3.496 -0.3866E-11 -0.1256E-10 -0.2163E-12 -0.7062E-12
     -3.444 -0.4437E-10 -0.1351E-09 -0.2511E-11 -0.7694E-11
     -3.393 -0.4447E-09 -0.1270E-08 -0.2552E-10 -0.7337E-10
     -3.341 -0.3895E-08 -0.1043E-07 -0.2270E-09 -0.6128E-09
     -3.289 -0.2982E-07 -0.7486E-07 -0.1769E-08 -0.4485E-08
     -3.237 -0.1995E-06 -0.4699E-06 -0.1209E-07 -0.2879E-07
     -3.186 -0.1168E-05 -0.2580E-05 -0.7250E-07 -0.1623E-06
     -3.134 -0.5979E-05 -0.1239E-04 -0.3818E-06 -0.8034E-06
     -3.082 -0.2679E-04 -0.5210E-04 -0.1768E-05 -0.3498E-05
     -3.030 -0.1050E-03 -0.1916E-03 -0.7199E-05 -0.1341E-04
     -2.979 -0.3599E-03 -0.6152E-03 -0.2581E-04 -0.4523E-04
     -2.927 -0.1076E-02 -0.1721E-02 -0.8146E-04 -0.1342E-03
     -2.875 -0.2793E-02 -0.4167E-02 -0.2260E-03 -0.3498E-03
     -2.824 -0.6244E-02 -0.8625E-02 -0.5490E-03 -0.7959E-03
     -2.772 -0.1180E-01 -0.1486E-01 -0.1159E-02 -0.1565E-02
     -2.720 -0.1807E-01 -0.1995E-01 -0.2094E-02 -0.2597E-02
     -2.668 -0.1985E-01 -0.1624E-01 -0.3121E-02 -0.3437E-02
     -2.617 -0.6650E-02  0.8931E-02 -0.3465E-02 -0.2975E-02
     -2.565  0.3562E-01  0.6930E-01 -0.1622E-02  0.6100E-03
     -2.513  0.1180E+00  0.1710E+00  0.4480E-02  0.9455E-02
     -2.462  0.2386E+00  0.3037E+00  0.1682E-01  0.2516E-01
     -2.410  0.3776E+00  0.4404E+00  0.3635E-01  0.4794E-01
     -2.358  0.5044E+00  0.5527E+00  0.6244E-01  0.7653E-01
     -2.306  0.5992E+00  0.6336E+00  0.9344E-01  0.1093E+00
     -2.255  0.6730E+00  0.7096E+00  0.1282E+00  0.1460E+00
     -2.203  0.7642E+00  0.8219E+00  0.1678E+00  0.1885E+00
     -2.151  0.9053E+00  0.9850E+00  0.2146E+00  0.2395E+00
     -2.099  0.1081E+01  0.1156E+01  0.2705E+00  0.2993E+00
     -2.048  0.1224E+01  0.1256E+01  0.3339E+00  0.3643E+00
     -1.996  0.1259E+01  0.1232E+01  0.3990E+00  0.4280E+00
     -1.944  0.1176E+01  0.1116E+01  0.4599E+00  0.4857E+00
     -1.893  0.1055E+01  0.1016E+01  0.5144E+00  0.5383E+00
     -1.841  0.1015E+01  0.1044E+01  0.5669E+00  0.5923E+00
     -1.789  0.1130E+01  0.1224E+01  0.6254E+00  0.6556E+00
     -1.737  0.1368E+01  0.1482E+01  0.6961E+00  0.7323E+00
     -1.686  0.1616E+01  0.1695E+01  0.7797E+00  0.8200E+00
     -1.634  0.1762E+01  0.1776E+01  0.8708E+00  0.9119E+00
     -1.582  0.1769E+01  0.1732E+01  0.9623E+00  0.1001E+01
     -1.530  0.1690E+01  0.1647E+01  0.1050E+01  0.1087E+01
     -1.479  0.1629E+01  0.1624E+01  0.1134E+01  0.1171E+01
     -1.427  0.1660E+01  0.1704E+01  0.1220E+01  0.1259E+01
     -1.375  0.1767E+01  0.1825E+01  0.1311E+01  0.1353E+01
     -1.324  0.1852E+01  0.1867E+01  0.1407E+01  0.1450E+01
     -1.272  0.1820E+01  0.1769E+01  0.1501E+01  0.1541E+01
     -1.220  0.1680E+01  0.1602E+01  0.1588E+01  0.1624E+01
     -1.168  0.1558E+01  0.1530E+01  0.1669E+01  0.1703E+01
     -1.117  0.1599E+01  0.1672E+01  0.1751E+01  0.1790E+01
     -1.065  0.1844E+01  0.1999E+01  0.1847E+01  0.1893E+01
     -1.013  0.2189E+01  0.2356E+01  0.1960E+01  0.2015E+01
     -0.961  0.2482E+01  0.2593E+01  0.2088E+01  0.2149E+01
     -0.910  0.2631E+01  0.2667E+01  0.2225E+01  0.2287E+01
     -0.858  0.2650E+01  0.2639E+01  0.2362E+01  0.2424E+01
     -0.806  0.2606E+01  0.2581E+01  0.2496E+01  0.2557E+01
     -0.755  0.2535E+01  0.2503E+01  0.2628E+01  0.2687E+01
     -0.703  0.2420E+01  0.2359E+01  0.2753E+01  0.2809E+01
     -0.651  0.2236E+01  0.2136E+01  0.2868E+01  0.2919E+01
     -0.599  0.2019E+01  0.1909E+01  0.2973E+01  0.3018E+01
     -0.548  0.1876E+01  0.1815E+01  0.3070E+01  0.3112E+01
     -0.496  0.1916E+01  0.1954E+01  0.3169E+01  0.3213E+01
     -0.444  0.2168E+01  0.2310E+01  0.3281E+01  0.3332E+01
     -0.392  0.2556E+01  0.2755E+01  0.3413E+01  0.3475E+01
     -0.341  0.2947E+01  0.3138E+01  0.3566E+01  0.3637E+01
     -0.289  0.3239E+01  0.3368E+01  0.3733E+01  0.3811E+01
     -0.237  0.3391E+01  0.3441E+01  0.3909E+01  0.3989E+01
     -0.186  0.3422E+01  0.3412E+01  0.4086E+01  0.4166E+01
     -0.134  0.3376E+01  0.3341E+01  0.4260E+01  0.4339E+01
     -0.082  0.3297E+01  0.3262E+01  0.4431E+01  0.4507E+01
     -0.030  0.3216E+01  0.3182E+01  0.4597E+01  0.4672E+01
      0.021  0.3148E+01  0.3108E+01  0.4760E+01  0.4833E+01
      0.073  0.3099E+01  0.3061E+01  0.4920E+01  0.4991E+01
      0.125  0.3078E+01  0.3075E+01  0.5080E+01  0.5150E+01
      0.177  0.3101E+01  0.3168E+01  0.5240E+01  0.5314E+01
      0.228  0.3183E+01  0.3318E+01  0.5405E+01  0.5486E+01
      0.280  0.3309E+01  0.3461E+01  0.5576E+01  0.5665E+01
      0.332  0.3421E+01  0.3513E+01  0.5753E+01  0.5846E+01
      0.383  0.3439E+01  0.3421E+01  0.5931E+01  0.6023E+01
      0.435  0.3316E+01  0.3212E+01  0.6102E+01  0.6189E+01
      0.487  0.3093E+01  0.2998E+01  0.6262E+01  0.6345E+01
      0.539  0.2906E+01  0.2919E+01  0.6412E+01  0.6496E+01
      0.590  0.2890E+01  0.3047E+01  0.6562E+01  0.6653E+01
      0.642  0.3083E+01  0.3333E+01  0.6721E+01  0.6826E+01
      0.694  0.3397E+01  0.3654E+01  0.6897E+01  0.7015E+01
      0.746  0.3699E+01  0.3901E+01  0.7088E+01  0.7216E+01
      0.797  0.3905E+01  0.4037E+01  0.7290E+01  0.7425E+01
      0.849  0.4003E+01  0.4066E+01  0.7497E+01  0.7635E+01
      0.901  0.4000E+01  0.3989E+01  0.7704E+01  0.7842E+01
      0.952  0.3892E+01  0.3813E+01  0.7906E+01  0.8039E+01
      1.004  0.3689E+01  0.3589E+01  0.8097E+01  0.8225E+01
      1.056  0.3461E+01  0.3420E+01  0.8276E+01  0.8402E+01
      1.108  0.3318E+01  0.3382E+01  0.8447E+01  0.8577E+01
      1.159  0.3314E+01  0.3453E+01  0.8619E+01  0.8755E+01
      1.211  0.3397E+01  0.3537E+01  0.8794E+01  0.8938E+01
      1.263  0.3459E+01  0.3564E+01  0.8973E+01  0.9123E+01
      1.315  0.3450E+01  0.3557E+01  0.9152E+01  0.9307E+01
      1.366  0.3422E+01  0.3573E+01  0.9329E+01  0.9491E+01
      1.418  0.3444E+01  0.3614E+01  0.9507E+01  0.9678E+01
      1.470  0.3510E+01  0.3619E+01  0.9689E+01  0.9865E+01
      1.521  0.3542E+01  0.3568E+01  0.9872E+01  0.1005E+02
      1.573  0.3505E+01  0.3556E+01  0.1005E+02  0.1023E+02
      1.625  0.3486E+01  0.3739E+01  0.1023E+02  0.1043E+02
      1.677  0.3638E+01  0.4187E+01  0.1042E+02  0.1064E+02
      1.728  0.4041E+01  0.4788E+01  0.1063E+02  0.1089E+02
      1.780  0.4605E+01  0.5303E+01  0.1087E+02  0.1117E+02
      1.832  0.5105E+01  0.5521E+01  0.1113E+02  0.1145E+02
      1.884  0.5332E+01  0.5403E+01  0.1141E+02  0.1173E+02
      1.935  0.5232E+01  0.5083E+01  0.1168E+02  0.1199E+02
      1.987  0.4924E+01  0.4768E+01  0.1193E+02  0.1224E+02
      2.039  0.4601E+01  0.4630E+01  0.1217E+02  0.1248E+02
      2.090  0.4414E+01  0.4746E+01  0.1240E+02  0.1273E+02
      2.142  0.4425E+01  0.5101E+01  0.1263E+02  0.1299E+02
      2.194  0.4625E+01  0.5579E+01  0.1287E+02  0.1328E+02
      2.246  0.4959E+01  0.5983E+01  0.1312E+02  0.1359E+02
      2.297  0.5323E+01  0.6112E+01  0.1340E+02  0.1390E+02
      2.349  0.5575E+01  0.5876E+01  0.1369E+02  0.1421E+02
      2.401  0.5604E+01  0.5367E+01  0.1398E+02  0.1449E+02
      2.452  0.5396E+01  0.4806E+01  0.1426E+02  0.1473E+02
      2.504  0.5055E+01  0.4424E+01  0.1452E+02  0.1496E+02
      2.556  0.4742E+01  0.4351E+01  0.1476E+02  0.1519E+02
      2.608  0.4586E+01  0.4577E+01  0.1500E+02  0.1542E+02
      2.659  0.4623E+01  0.4981E+01  0.1524E+02  0.1568E+02
      2.711  0.4806E+01  0.5403E+01  0.1549E+02  0.1596E+02
      2.763  0.5048E+01  0.5720E+01  0.1575E+02  0.1626E+02
      2.815  0.5281E+01  0.5888E+01  0.1602E+02  0.1656E+02
      2.866  0.5474E+01  0.5930E+01  0.1631E+02  0.1687E+02
      2.918  0.5614E+01  0.5911E+01  0.1660E+02  0.1717E+02
      2.970  0.5679E+01  0.5917E+01  0.1689E+02  0.1748E+02
      3.021  0.5658E+01  0.6010E+01  0.1718E+02  0.1779E+02
      3.073  0.5589E+01  0.6173E+01  0.1747E+02  0.1811E+02
      3.125  0.5553E+01  0.6292E+01  0.1776E+02  0.1844E+02
      3.177  0.5596E+01  0.6244E+01  0.1805E+02  0.1876E+02
      3.228  0.5682E+01  0.6012E+01  0.1834E+02  0.1907E+02
      3.280  0.5718E+01  0.5705E+01  0.1864E+02  0.1937E+02
      3.332  0.5642E+01  0.5454E+01  0.1893E+02  0.1965E+02
      3.384  0.5468E+01  0.5311E+01  0.1921E+02  0.1992E+02
      3.435  0.5261E+01  0.5241E+01  0.1949E+02  0.2019E+02
      3.487  0.5091E+01  0.5214E+01  0.1975E+02  0.2046E+02
      3.539  0.5003E+01  0.5268E+01  0.2001E+02  0.2074E+02
      3.590  0.5039E+01  0.5486E+01  0.2027E+02  0.2102E+02
      3.642  0.5237E+01  0.5906E+01  0.2054E+02  0.2132E+02
      3.694  0.5612E+01  0.6462E+01  0.2083E+02  0.2166E+02
      3.746  0.6106E+01  0.7004E+01  0.2115E+02  0.2202E+02
      3.797  0.6584E+01  0.7392E+01  0.2149E+02  0.2240E+02
      3.849  0.6901E+01  0.7592E+01  0.2184E+02  0.2280E+02
      3.901  0.7003E+01  0.7723E+01  0.2221E+02  0.2320E+02
      3.953  0.6971E+01  0.8023E+01  0.2257E+02  0.2361E+02
      4.004  0.6971E+01  0.8726E+01  0.2293E+02  0.2406E+02
      4.056  0.7146E+01  0.9933E+01  0.2330E+02  0.2458E+02
      4.108  0.7566E+01  0.1152E+02  0.2369E+02  0.2517E+02
      4.159  0.8236E+01  0.1319E+02  0.2411E+02  0.2585E+02
      4.211  0.9098E+01  0.1461E+02  0.2458E+02  0.2661E+02
      4.263  0.1003E+02  0.1556E+02  0.2510E+02  0.2741E+02
      4.315  0.1088E+02  0.1600E+02  0.2567E+02  0.2824E+02
      4.366  0.1155E+02  0.1605E+02  0.2626E+02  0.2907E+02
      4.418  0.1210E+02  0.1591E+02  0.2689E+02  0.2990E+02
      4.470  0.1268E+02  0.1580E+02  0.2755E+02  0.3071E+02
      4.522  0.1342E+02  0.1579E+02  0.2824E+02  0.3153E+02
      4.573  0.1430E+02  0.1584E+02  0.2898E+02  0.3235E+02
      4.625  0.1516E+02  0.1579E+02  0.2976E+02  0.3317E+02
      4.677  0.1580E+02  0.1556E+02  0.3058E+02  0.3397E+02
      4.728  0.1604E+02  0.1520E+02  0.3141E+02  0.3476E+02
      4.780  0.1585E+02  0.1492E+02  0.3223E+02  0.3553E+02
      4.832  0.1534E+02  0.1499E+02  0.3302E+02  0.3630E+02
      4.884  0.1475E+02  0.1548E+02  0.3379E+02  0.3710E+02
      4.935  0.1432E+02  0.1632E+02  0.3453E+02  0.3795E+02
      4.987  0.1412E+02  0.1733E+02  0.3526E+02  0.3885E+02
      5.039  0.1410E+02  0.1849E+02  0.3599E+02  0.3980E+02
      5.091  0.1421E+02  0.1994E+02  0.3672E+02  0.4083E+02
      5.142  0.1455E+02  0.2181E+02  0.3748E+02  0.4196E+02
      5.194  0.1530E+02  0.2399E+02  0.3827E+02  0.4320E+02
      5.246  0.1654E+02  0.2597E+02  0.3912E+02  0.4455E+02
      5.297  0.1817E+02  0.2710E+02  0.4006E+02  0.4595E+02
      5.349  0.1987E+02  0.2696E+02  0.4109E+02  0.4734E+02
      5.401  0.2126E+02  0.2556E+02  0.4219E+02  0.4866E+02
      5.453  0.2205E+02  0.2337E+02  0.4333E+02  0.4987E+02
      5.504  0.2216E+02  0.2107E+02  0.4448E+02  0.5096E+02
      5.556  0.2172E+02  0.1932E+02  0.4560E+02  0.5196E+02
      5.608  0.2097E+02  0.1849E+02  0.4668E+02  0.5292E+02
      5.660  0.2008E+02  0.1857E+02  0.4772E+02  0.5388E+02
      5.711  0.1914E+02  0.1923E+02  0.4871E+02  0.5487E+02
      5.763  0.1814E+02  0.2005E+02  0.4965E+02  0.5591E+02
      5.815  0.1716E+02  0.2070E+02  0.5054E+02  0.5698E+02
      5.866  0.1641E+02  0.2107E+02  0.5139E+02  0.5807E+02
      5.918  0.1607E+02  0.2117E+02  0.5222E+02  0.5917E+02
      5.970  0.1620E+02  0.2104E+02  0.5306E+02  0.6025E+02
      6.022  0.1656E+02  0.2078E+02  0.5391E+02  0.6133E+02
      6.073  0.1684E+02  0.2058E+02  0.5478E+02  0.6239E+02
      6.125  0.1679E+02  0.2072E+02  0.5565E+02  0.6347E+02
      6.177  0.1645E+02  0.2147E+02  0.5650E+02  0.6458E+02
      6.229  0.1613E+02  0.2293E+02  0.5734E+02  0.6576E+02
      6.280  0.1621E+02  0.2491E+02  0.5818E+02  0.6705E+02
      6.332  0.1693E+02  0.2703E+02  0.5905E+02  0.6845E+02
      6.384  0.1819E+02  0.2877E+02  0.5999E+02  0.6994E+02
      6.435  0.1963E+02  0.2964E+02  0.6101E+02  0.7147E+02
      6.487  0.2076E+02  0.2936E+02  0.6208E+02  0.7299E+02
      6.539  0.2124E+02  0.2798E+02  0.6318E+02  0.7444E+02
      6.591  0.2099E+02  0.2584E+02  0.6427E+02  0.7577E+02
      6.642  0.2025E+02  0.2344E+02  0.6531E+02  0.7699E+02
      6.694  0.1937E+02  0.2123E+02  0.6632E+02  0.7808E+02
      6.746  0.1865E+02  0.1946E+02  0.6728E+02  0.7909E+02
      6.797  0.1823E+02  0.1819E+02  0.6822E+02  0.8003E+02
      6.849  0.1807E+02  0.1729E+02  0.6916E+02  0.8093E+02
      6.901  0.1807E+02  0.1662E+02  0.7009E+02  0.8178E+02
      6.953  0.1814E+02  0.1603E+02  0.7103E+02  0.8261E+02
      7.004  0.1817E+02  0.1544E+02  0.7197E+02  0.8341E+02
      7.056  0.1813E+02  0.1480E+02  0.7291E+02  0.8418E+02
      7.108  0.1801E+02  0.1419E+02  0.7384E+02  0.8491E+02
      7.160  0.1783E+02  0.1377E+02  0.7476E+02  0.8562E+02
      7.211  0.1760E+02  0.1374E+02  0.7567E+02  0.8634E+02
      7.263  0.1738E+02  0.1425E+02  0.7657E+02  0.8707E+02
      7.315  0.1722E+02  0.1526E+02  0.7746E+02  0.8786E+02
      7.366  0.1717E+02  0.1655E+02  0.7835E+02  0.8872E+02
      7.418  0.1724E+02  0.1775E+02  0.7924E+02  0.8964E+02
      7.470  0.1734E+02  0.1852E+02  0.8014E+02  0.9059E+02
      7.522  0.1728E+02  0.1865E+02  0.8103E+02  0.9156E+02
      7.573  0.1689E+02  0.1808E+02  0.8191E+02  0.9249E+02
      7.625  0.1607E+02  0.1696E+02  0.8274E+02  0.9337E+02
      7.677  0.1489E+02  0.1557E+02  0.8351E+02  0.9418E+02
      7.729  0.1359E+02  0.1419E+02  0.8421E+02  0.9491E+02
      7.780  0.1248E+02  0.1313E+02  0.8486E+02  0.9559E+02
      7.832  0.1187E+02  0.1258E+02  0.8547E+02  0.9624E+02
      7.884  0.1195E+02  0.1264E+02  0.8609E+02  0.9689E+02
      7.935  0.1275E+02  0.1323E+02  0.8675E+02  0.9758E+02
      7.987  0.1415E+02  0.1407E+02  0.8748E+02  0.9831E+02
      8.039  0.1590E+02  0.1477E+02  0.8830E+02  0.9907E+02
      8.091  0.1774E+02  0.1500E+02  0.8922E+02  0.9985E+02
      8.142  0.1942E+02  0.1462E+02  0.9023E+02  0.1006E+03
      8.194  0.2082E+02  0.1372E+02  0.9130E+02  0.1013E+03
      8.246  0.2189E+02  0.1247E+02  0.9244E+02  0.1020E+03
      8.298  0.2256E+02  0.1098E+02  0.9360E+02  0.1025E+03
      8.349  0.2271E+02  0.9273E+01  0.9478E+02  0.1030E+03
      8.401  0.2228E+02  0.7382E+01  0.9593E+02  0.1034E+03
      8.453  0.2136E+02  0.5412E+01  0.9703E+02  0.1037E+03
      8.504  0.2027E+02  0.3563E+01  0.9808E+02  0.1039E+03
      8.556  0.1938E+02  0.2042E+01  0.9908E+02  0.1040E+03
      8.608  0.1878E+02  0.9641E+00  0.1001E+03  0.1040E+03
      8.660  0.1815E+02  0.3189E+00  0.1010E+03  0.1040E+03
      8.711  0.1692E+02  0.3364E-02  0.1019E+03  0.1040E+03
      8.763  0.1470E+02 -0.1091E+00  0.1026E+03  0.1040E+03
      8.815  0.1156E+02 -0.1205E+00  0.1032E+03  0.1040E+03
      8.867  0.8027E+01 -0.9387E-01  0.1036E+03  0.1040E+03
      8.918  0.4789E+01 -0.6090E-01  0.1039E+03  0.1040E+03
      8.970  0.2330E+01 -0.3428E-01  0.1040E+03  0.1040E+03
      9.022  0.7865E+00 -0.1691E-01  0.1041E+03  0.1040E+03
      9.073  0.1018E-01 -0.7315E-02  0.1041E+03  0.1040E+03
      9.125 -0.2666E+00 -0.2768E-02  0.1040E+03  0.1040E+03
      9.177 -0.2880E+00 -0.9147E-03  0.1040E+03  0.1040E+03
      9.229 -0.2159E+00 -0.2636E-03  0.1040E+03  0.1040E+03
      9.280 -0.1332E+00 -0.6620E-04  0.1040E+03  0.1040E+03
      9.332 -0.7079E-01 -0.1448E-04  0.1040E+03  0.1040E+03
      9.384 -0.3289E-01 -0.2760E-05  0.1040E+03  0.1040E+03
      9.436 -0.1339E-01 -0.4583E-06  0.1040E+03  0.1040E+03
      9.487 -0.4773E-02 -0.6632E-07  0.1040E+03  0.1040E+03
      9.539 -0.1488E-02 -0.8367E-08  0.1040E+03  0.1040E+03
      9.591 -0.4049E-03 -0.9205E-09  0.1040E+03  0.1040E+03
      9.642 -0.9610E-04 -0.8834E-10  0.1040E+03  0.1040E+03
      9.694 -0.1988E-04 -0.7396E-11  0.1040E+03  0.1040E+03
      9.746 -0.3585E-05 -0.5405E-12  0.1040E+03  0.1040E+03
      9.798 -0.5635E-06 -0.3446E-13  0.1040E+03  0.1040E+03
      9.849 -0.7719E-07 -0.1889E-14  0.1040E+03  0.1040E+03
      9.901 -0.9218E-08 -0.1145E-15  0.1040E+03  0.1040E+03
      9.953 -0.9601E-09  0.0000E+00  0.1040E+03  0.1040E+03
     10.005 -0.8723E-10  0.0000E+00  0.1040E+03  0.1040E+03
     10.056 -0.6916E-11  0.0000E+00  0.1040E+03  0.1040E+03
     10.108 -0.4780E-12  0.0000E+00  0.1040E+03  0.1040E+03
     10.160 -0.2902E-13  0.0000E+00  0.1040E+03  0.1040E+03
     10.211 -0.1603E-14  0.0000E+00  0.1040E+03  0.1040E+03
     10.263  0.0000E+00  0.0000E+00  0.1040E+03  0.1040E+03
     10.315  0.0000E+00  0.0000E+00  0.1040E+03  0.1040E+03
     10.367  0.0000E+00  0.0000E+00  0.1040E+03  0.1040E+03
     10.418  0.0000E+00  0.0000E+00  0.1040E+03  0.1040E+03
     10.470  0.0000E+00  0.0000E+00  0.1040E+03  0.1040E+03
     10.522  0.0000E+00  0.0000E+00  0.1040E+03  0.1040E+03
     10.574  0.0000E+00  0.0000E+00  0.1040E+03  0.1040E+03
     10.625  0.0000E+00  0.0000E+00  0.1040E+03  0.1040E+03
     10.677  0.0000E+00  0.0000E+00  0.1040E+03  0.1040E+03
     10.729  0.0000E+00  0.0000E+00  0.1040E+03  0.1040E+03
     10.780  0.0000E+00  0.0000E+00  0.1040E+03  0.1040E+03
     10.832  0.0000E+00  0.0000E+00  0.1040E+03  0.1040E+03
     10.884  0.0000E+00  0.0000E+00  0.1040E+03  0.1040E+03
     10.936  0.0000E+00  0.0000E+00  0.1040E+03  0.1040E+03
     10.987  0.0000E+00  0.0000E+00  0.1040E+03  0.1040E+03
     10.98732417     -4.53055300  301      7.76242694      1.00000000
     -4.531  0.0000E+00  0.0000E+00  0.0000E+00  0.0000E+00  0.0000E+00  0.0000E+00
     -4.479  0.0000E+00  0.0000E+00  0.0000E+00  0.0000E+00  0.0000E+00  0.0000E+00
     -4.427  0.0000E+00  0.0000E+00  0.0000E+00  0.0000E+00  0.0000E+00  0.0000E+00
     -4.375  0.0000E+00  0.0000E+00  0.0000E+00  0.0000E+00  0.0000E+00  0.0000E+00
     -4.324  0.0000E+00  0.0000E+00  0.0000E+00  0.0000E+00  0.0000E+00  0.0000E+00
     -4.272  0.0000E+00  0.0000E+00  0.0000E+00  0.0000E+00  0.0000E+00  0.0000E+00
     -4.220  0.0000E+00  0.0000E+00  0.0000E+00  0.0000E+00  0.0000E+00  0.0000E+00
     -4.168  0.0000E+00 -0.2585E-31  0.0000E+00 -0.4620E-36  0.0000E+00  0.0000E+00
     -4.117 -0.2307E-30 -0.1593E-29 -0.6886E-35 -0.2847E-34  0.0000E+00  0.0000E+00
     -4.065 -0.1330E-28 -0.8744E-28 -0.7668E-33 -0.4271E-32  0.0000E+00  0.0000E+00
     -4.013 -0.6772E-27 -0.4176E-26 -0.4368E-31 -0.2356E-30  0.0000E+00  0.0000E+00
     -3.962 -0.3013E-25 -0.1742E-24 -0.2223E-29 -0.1163E-28  0.0000E+00  0.0000E+00
     -3.910 -0.1171E-23 -0.6351E-23 -0.9997E-28 -0.5060E-27  0.0000E+00  0.0000E+00
     -3.858 -0.3979E-22 -0.2023E-21 -0.3977E-26 -0.1941E-25  0.0000E+00  0.0000E+00
     -3.806 -0.1180E-20 -0.5627E-20 -0.1398E-24 -0.6561E-24  0.0000E+00  0.0000E+00
     -3.755 -0.3059E-19 -0.1367E-18 -0.4338E-23 -0.1951E-22  0.0000E+00  0.0000E+00
     -3.703 -0.6926E-18 -0.2819E-17 -0.1186E-21 -0.5080E-21  0.0000E+00  0.0000E+00
     -3.651 -0.1328E-16 -0.5216E-16 -0.2843E-20 -0.1165E-19  0.0000E+00  0.0000E+00
     -3.599 -0.2287E-15 -0.8422E-15 -0.5725E-19 -0.2284E-18  0.0000E+00  0.0000E+00
     -3.548 -0.3444E-14 -0.1188E-13 -0.1089E-17 -0.4003E-17  0.0000E+00  0.0000E+00
     -3.496 -0.4524E-13 -0.1463E-12 -0.1768E-16 -0.6150E-16  0.0000E+00  0.0000E+00
     -3.444 -0.5192E-12 -0.1574E-11 -0.2517E-15 -0.8266E-15  0.0000E+00  0.0000E+00
     -3.393 -0.5204E-11 -0.1479E-10 -0.3136E-14 -0.9710E-14  0.0000E+00  0.0000E+00
     -3.341 -0.4558E-10 -0.1215E-09 -0.3418E-13 -0.9965E-13  0.0000E+00  0.0000E+00
     -3.289 -0.3488E-09 -0.8718E-09 -0.3256E-12 -0.8930E-12  0.0000E+00  0.0000E+00
     -3.237 -0.2334E-08 -0.5472E-08 -0.2710E-11 -0.6985E-11  0.0000E+00  0.0000E+00
     -3.186 -0.1366E-07 -0.3004E-07 -0.1969E-10 -0.4767E-10  0.0000E+00  0.0000E+00
     -3.134 -0.6992E-07 -0.1443E-06 -0.1249E-09 -0.2837E-09  0.0000E+00  0.0000E+00
     -3.082 -0.3132E-06 -0.6063E-06 -0.6906E-09 -0.1472E-08  0.0000E+00  0.0000E+00
     -3.030 -0.1227E-05 -0.2228E-05 -0.3329E-08 -0.6650E-08  0.0000E+00  0.0000E+00
     -2.979 -0.4205E-05 -0.7154E-05 -0.1397E-07 -0.2614E-07  0.0000E+00  0.0000E+00
     -2.927 -0.1257E-04 -0.2000E-04 -0.5095E-07 -0.8919E-07  0.0000E+00  0.0000E+00
     -2.875 -0.3261E-04 -0.4841E-04 -0.1611E-06 -0.2633E-06  0.0000E+00  0.0000E+00
     -2.824 -0.7286E-04 -0.1001E-03 -0.4393E-06 -0.6682E-06  0.0000E+00  0.0000E+00
     -2.772 -0.1376E-03 -0.1724E-03 -0.1025E-05 -0.1442E-05  0.0000E+00  0.0000E+00
     -2.720 -0.2105E-03 -0.2311E-03 -0.2013E-05 -0.2586E-05  0.0000E+00  0.0000E+00
     -2.668 -0.2308E-03 -0.1873E-03 -0.3217E-05 -0.3666E-05  0.0000E+00  0.0000E+00
     -2.617 -0.7606E-04  0.1058E-03 -0.3829E-05 -0.3494E-05  0.0000E+00  0.0000E+00
     -2.565  0.4176E-03  0.8072E-03 -0.2245E-05 -0.1923E-06  0.0000E+00  0.0000E+00
     -2.513  0.1378E-02  0.1987E-02  0.3504E-05  0.8020E-05  0.0000E+00  0.0000E+00
     -2.462  0.2783E-02  0.3524E-02  0.1463E-04  0.2160E-04  0.0000E+00  0.0000E+00
     -2.410  0.4400E-02  0.5107E-02  0.3060E-04  0.3933E-04  0.0000E+00  0.0000E+00
     -2.358  0.5874E-02  0.6405E-02  0.4993E-04  0.6030E-04  0.0000E+00  0.0000E+00
     -2.306  0.6974E-02  0.7336E-02  0.7340E-04  0.8762E-04  0.0000E+00  0.0000E+00
     -2.255  0.7829E-02  0.8205E-02  0.1072E-03  0.1299E-03  0.0000E+00  0.0000E+00
     -2.203  0.8885E-02  0.9491E-02  0.1611E-03  0.1958E-03  0.0000E+00  0.0000E+00
     -2.151  0.1052E-01  0.1136E-01  0.2393E-03  0.2831E-03  0.0000E+00  0.0000E+00
     -2.099  0.1256E-01  0.1333E-01  0.3297E-03  0.3710E-03  0.0000E+00  0.0000E+00
     -2.048  0.1422E-01  0.1447E-01  0.4046E-03  0.4294E-03  0.0000E+00  0.0000E+00
     -1.996  0.1464E-01  0.1419E-01  0.4383E-03  0.4424E-03  0.0000E+00  0.0000E+00
     -1.944  0.1368E-01  0.1285E-01  0.4327E-03  0.4295E-03  0.0000E+00  0.0000E+00
     -1.893  0.1226E-01  0.1169E-01  0.4266E-03  0.4408E-03  0.0000E+00  0.0000E+00
     -1.841  0.1176E-01  0.1195E-01  0.4739E-03  0.5239E-03  0.0000E+00  0.0000E+00
     -1.789  0.1300E-01  0.1394E-01  0.6040E-03  0.6866E-03  0.0000E+00  0.0000E+00
     -1.737  0.1558E-01  0.1677E-01  0.7966E-03  0.8862E-03  0.0000E+00  0.0000E+00
     -1.686  0.1822E-01  0.1906E-01  0.9919E-03  0.1057E-02  0.0000E+00  0.0000E+00
     -1.634  0.1966E-01  0.1987E-01  0.1130E-02  0.1151E-02  0.0000E+00  0.0000E+00
     -1.582  0.1950E-01  0.1928E-01  0.1192E-02  0.1175E-02  0.0000E+00  0.0000E+00
     -1.530  0.1839E-01  0.1827E-01  0.1214E-02  0.1185E-02  0.0000E+00  0.0000E+00
     -1.479  0.1750E-01  0.1800E-01  0.1261E-02  0.1250E-02  0.0000E+00  0.0000E+00
     -1.427  0.1772E-01  0.1887E-01  0.1376E-02  0.1392E-02  0.0000E+00  0.0000E+00
     -1.375  0.1891E-01  0.2019E-01  0.1530E-02  0.1549E-02  0.0000E+00  0.0000E+00
     -1.324  0.2001E-01  0.2064E-01  0.1633E-02  0.1621E-02  0.0000E+00  0.0000E+00
     -1.272  0.1990E-01  0.1956E-01  0.1613E-02  0.1561E-02  0.0000E+00  0.0000E+00
     -1.220  0.1852E-01  0.1774E-01  0.1503E-02  0.1450E-02  0.0000E+00  0.0000E+00
     -1.168  0.1710E-01  0.1696E-01  0.1445E-02  0.1452E-02  0.0000E+00  0.0000E+00
     -1.117  0.1726E-01  0.1850E-01  0.1581E-02  0.1685E-02  0.0000E+00  0.0000E+00
     -1.065  0.1963E-01  0.2199E-01  0.1933E-02  0.2114E-02  0.0000E+00  0.0000E+00
     -1.013  0.2331E-01  0.2575E-01  0.2377E-02  0.2574E-02  0.0000E+00  0.0000E+00
     -0.961  0.2669E-01  0.2816E-01  0.2746E-02  0.2905E-02  0.0000E+00  0.0000E+00
     -0.910  0.2860E-01  0.2880E-01  0.2957E-02  0.3066E-02  0.0000E+00  0.0000E+00
     -0.858  0.2898E-01  0.2838E-01  0.3048E-02  0.3131E-02  0.0000E+00  0.0000E+00
     -0.806  0.2844E-01  0.2766E-01  0.3104E-02  0.3180E-02  0.0000E+00  0.0000E+00
     -0.755  0.2749E-01  0.2675E-01  0.3151E-02  0.3202E-02  0.0000E+00  0.0000E+00
     -0.703  0.2618E-01  0.2521E-01  0.3125E-02  0.3110E-02  0.0000E+00  0.0000E+00
     -0.651  0.2442E-01  0.2293E-01  0.2950E-02  0.2857E-02  0.0000E+00  0.0000E+00
     -0.599  0.2255E-01  0.2072E-01  0.2654E-02  0.2535E-02  0.0000E+00  0.0000E+00
     -0.548  0.2145E-01  0.2003E-01  0.2401E-02  0.2353E-02  0.0000E+00  0.0000E+00
     -0.496  0.2203E-01  0.2178E-01  0.2394E-02  0.2501E-02  0.0000E+00  0.0000E+00
     -0.444  0.2449E-01  0.2566E-01  0.2738E-02  0.3014E-02  0.0000E+00  0.0000E+00
     -0.392  0.2815E-01  0.3025E-01  0.3365E-02  0.3750E-02  0.0000E+00  0.0000E+00
     -0.341  0.3192E-01  0.3402E-01  0.4082E-02  0.4481E-02  0.0000E+00  0.0000E+00
     -0.289  0.3497E-01  0.3617E-01  0.4684E-02  0.5015E-02  0.0000E+00  0.0000E+00
     -0.237  0.3695E-01  0.3686E-01  0.5050E-02  0.5286E-02  0.0000E+00  0.0000E+00
     -0.186  0.3789E-01  0.3673E-01  0.5180E-02  0.5346E-02  0.0000E+00  0.0000E+00
     -0.134  0.3798E-01  0.3632E-01  0.5162E-02  0.5306E-02  0.0000E+00  0.0000E+00
     -0.082  0.3746E-01  0.3580E-01  0.5099E-02  0.5246E-02  0.0000E+00  0.0000E+00
     -0.030  0.3666E-01  0.3508E-01  0.5044E-02  0.5178E-02  0.0000E+00  0.0000E+00
      0.021  0.3590E-01  0.3422E-01  0.4979E-02  0.5080E-02  0.0000E+00  0.0000E+00
      0.073  0.3543E-01  0.3359E-01  0.4874E-02  0.4971E-02  0.0000E+00  0.0000E+00
      0.125  0.3543E-01  0.3363E-01  0.4766E-02  0.4950E-02  0.0000E+00  0.0000E+00
      0.177  0.3591E-01  0.3453E-01  0.4777E-02  0.5134E-02  0.0000E+00  0.0000E+00
      0.228  0.3679E-01  0.3595E-01  0.5023E-02  0.5545E-02  0.0000E+00  0.0000E+00
      0.280  0.3781E-01  0.3716E-01  0.5494E-02  0.6041E-02  0.0000E+00  0.0000E+00
      0.332  0.3849E-01  0.3739E-01  0.6005E-02  0.6381E-02  0.0000E+00  0.0000E+00
      0.383  0.3817E-01  0.3618E-01  0.6297E-02  0.6392E-02  0.0000E+00  0.0000E+00
      0.435  0.3644E-01  0.3380E-01  0.6226E-02  0.6119E-02  0.0000E+00  0.0000E+00
      0.487  0.3369E-01  0.3130E-01  0.5910E-02  0.5830E-02  0.0000E+00  0.0000E+00
      0.539  0.3123E-01  0.3013E-01  0.5675E-02  0.5838E-02  0.0000E+00  0.0000E+00
      0.590  0.3048E-01  0.3119E-01  0.5834E-02  0.6273E-02  0.0000E+00  0.0000E+00
      0.642  0.3195E-01  0.3421E-01  0.6450E-02  0.7001E-02  0.0000E+00  0.0000E+00
      0.694  0.3488E-01  0.3792E-01  0.7311E-02  0.7752E-02  0.0000E+00  0.0000E+00
      0.746  0.3793E-01  0.4095E-01  0.8127E-02  0.8340E-02  0.0000E+00  0.0000E+00
      0.797  0.4010E-01  0.4255E-01  0.8743E-02  0.8738E-02  0.0000E+00  0.0000E+00
      0.849  0.4104E-01  0.4262E-01  0.9158E-02  0.8969E-02  0.0000E+00  0.0000E+00
      0.901  0.4073E-01  0.4131E-01  0.9383E-02  0.8996E-02  0.0000E+00  0.0000E+00
      0.952  0.3914E-01  0.3893E-01  0.9359E-02  0.8771E-02  0.0000E+00  0.0000E+00
      1.004  0.3654E-01  0.3623E-01  0.9045E-02  0.8373E-02  0.0000E+00  0.0000E+00
      1.056  0.3388E-01  0.3429E-01  0.8572E-02  0.8039E-02  0.0000E+00  0.0000E+00
      1.108  0.3235E-01  0.3383E-01  0.8208E-02  0.7974E-02  0.0000E+00  0.0000E+00
      1.159  0.3251E-01  0.3452E-01  0.8138E-02  0.8159E-02  0.0000E+00  0.0000E+00
      1.211  0.3365E-01  0.3533E-01  0.8295E-02  0.8392E-02  0.0000E+00  0.0000E+00
      1.263  0.3448E-01  0.3556E-01  0.8456E-02  0.8520E-02  0.0000E+00  0.0000E+00
      1.315  0.3433E-01  0.3544E-01  0.8513E-02  0.8591E-02  0.0000E+00  0.0000E+00
      1.366  0.3362E-01  0.3552E-01  0.8586E-02  0.8737E-02  0.0000E+00  0.0000E+00
      1.418  0.3304E-01  0.3571E-01  0.8851E-02  0.8969E-02  0.0000E+00  0.0000E+00
      1.470  0.3259E-01  0.3535E-01  0.9298E-02  0.9167E-02  0.0000E+00  0.0000E+00
      1.521  0.3171E-01  0.3422E-01  0.9742E-02  0.9309E-02  0.0000E+00  0.0000E+00
      1.573  0.3025E-01  0.3326E-01  0.1007E-01  0.9641E-02  0.0000E+00  0.0000E+00
      1.625  0.2919E-01  0.3394E-01  0.1045E-01  0.1054E-01  0.0000E+00  0.0000E+00
      1.677  0.3002E-01  0.3688E-01  0.1120E-01  0.1214E-01  0.0000E+00  0.0000E+00
      1.728  0.3339E-01  0.4104E-01  0.1247E-01  0.1411E-01  0.0000E+00  0.0000E+00
      1.780  0.3840E-01  0.4435E-01  0.1400E-01  0.1576E-01  0.0000E+00  0.0000E+00
      1.832  0.4304E-01  0.4523E-01  0.1523E-01  0.1649E-01  0.0000E+00  0.0000E+00
      1.884  0.4552E-01  0.4361E-01  0.1567E-01  0.1614E-01  0.0000E+00  0.0000E+00
      1.935  0.4534E-01  0.4079E-01  0.1519E-01  0.1509E-01  0.0000E+00  0.0000E+00
      1.987  0.4337E-01  0.3844E-01  0.1414E-01  0.1394E-01  0.0000E+00  0.0000E+00
      2.039  0.4103E-01  0.3766E-01  0.1308E-01  0.1324E-01  0.0000E+00  0.0000E+00
      2.090  0.3935E-01  0.3876E-01  0.1249E-01  0.1325E-01  0.0000E+00  0.0000E+00
      2.142  0.3883E-01  0.4142E-01  0.1254E-01  0.1390E-01  0.0000E+00  0.0000E+00
      2.194  0.3964E-01  0.4484E-01  0.1314E-01  0.1487E-01  0.0000E+00  0.0000E+00
      2.246  0.4179E-01  0.4775E-01  0.1400E-01  0.1560E-01  0.0000E+00  0.0000E+00
      2.297  0.4489E-01  0.4873E-01  0.1468E-01  0.1559E-01  0.0000E+00  0.0000E+00
      2.349  0.4792E-01  0.4697E-01  0.1479E-01  0.1475E-01  0.0000E+00  0.0000E+00
      2.401  0.4959E-01  0.4282E-01  0.1417E-01  0.1343E-01  0.0000E+00  0.0000E+00
      2.452  0.4905E-01  0.3770E-01  0.1304E-01  0.1231E-01  0.0000E+00  0.0000E+00
      2.504  0.4644E-01  0.3339E-01  0.1196E-01  0.1198E-01  0.0000E+00  0.0000E+00
      2.556  0.4282E-01  0.3126E-01  0.1147E-01  0.1265E-01  0.0000E+00  0.0000E+00