   36   36    1    2
  0.1314651E+02  0.8250148E-09  0.8250148E-09  0.6953274E-09  0.2000000E-15
  1.000000000000000E-004
  CAR 
 AlMn_pv                                 
    180     52    104
 
  0.0000000E+00  0.0000000E+00  0.0000000E+00  0.6666667E-02
    1       -2.505929     -2.530553   1.000000   1.000000
    2       -0.389562     -0.365219   1.000000   1.000000
    3       -0.321718     -0.356096   1.000000   1.000000
    4       -0.299151     -0.339362   1.000000   1.000000
    5       -0.274493     -0.335647   1.000000   1.000000
    6       -0.120122     -0.115241   1.000000   1.000000
    7        1.400821      1.318936   1.000000   1.000000
    8        1.417107      1.351057   1.000000   1.000000
    9        1.423465      1.365504   1.000000   1.000000
   10        1.436034      1.393889   1.000000   1.000000
   11        1.443732      1.402258   1.000000   1.000000
   12        1.559634      1.529506   1.000000   1.000000
   13        1.602714      1.534833   1.000000   1.000000
   14        1.648231      1.590897   1.000000   1.000000
   15        1.657309      1.623885   1.000000   1.000000
   16        2.784992      2.668789   1.000000   1.000000
   17        2.789653      2.694546   1.000000   1.000000
   18        2.907684      2.775188   1.000000   1.000000
   19        2.947758      2.780139   1.000000   1.000000
   20        3.469924      3.465777   1.000000   1.000000
   21        3.587959      3.495336   1.000000   1.000000
   22        3.630674      3.524591   1.000000   1.000000
   23        3.678105      3.538385   1.000000   1.000000
   24        4.171887      4.063502   1.000000   1.000000
   25        4.302115      4.115660   1.000000   1.000000
   26        4.478923      4.282836   1.000000   1.000000
   27        4.569331      4.354876   1.000000   1.000000
   28        4.605339      4.515241   1.000000   1.000000
   29        4.642558      4.525794   1.000000   1.000000
   30        4.685428      4.553365   1.000000   1.000000
   31        4.743362      4.563432   1.000000   1.000000
   32        4.816710      4.570484   1.000000   1.000000
   33        4.831534      4.625378   1.000000   1.000000
   34        4.855441      4.636499   1.000000   1.000000
   35        4.871225      4.685243   1.000000   1.000000
   36        5.089690      4.710473   1.000000   1.000000
   37        5.119635      4.758348   1.000000   1.000000
   38        5.197533      4.817901   1.000000   1.000000
   39        5.333486      4.964797   1.000000   1.000000
   40        5.370927      5.020302   1.000000   1.000000
   41        5.429920      5.205873   1.000000   1.000000
   42        5.433278      5.274376   1.000000   1.000000
   43        5.476864      5.290985   1.000000   1.000000
   44        5.549249      5.314252   1.000000   1.000000
   45        5.577069      5.340263   1.000000   1.000000
   46        5.614362      5.358865   1.000000   1.000000
   47        5.678130      5.365712   1.000000   1.000000
   48        5.684997      5.368101   1.000000   1.000000
   49        5.711305      5.425593   1.000000   1.000000
   50        5.762413      5.432238   1.000000   1.000000
   51        5.766682      5.467742   1.000000   1.000000
   52        5.830129      5.488699   1.000000   1.000000
   53        5.923833      5.588061   1.000000   1.000000
   54        6.028991      5.662972   1.000000   1.000000
   55        6.052476      5.692439   1.000000   1.000000
   56        6.153154      5.703714   1.000000   1.000000
   57        6.275280      5.779007   1.000000   1.000000
   58        6.335063      5.806011   1.000000   1.000000
   59        6.378507      5.850874   1.000000   1.000000
   60        6.384834      5.872019   1.000000   1.000000
   61        6.440997      5.892556   1.000000   1.000000
   62        6.510608      5.987657   1.000000   1.000000
   63        6.544471      6.020405   1.000000   1.000000
   64        6.549197      6.131189   1.000000   1.000000
   65        6.561004      6.144859   1.000000   1.000000
   66        6.580765      6.313303   1.000000   1.000000
   67        6.637774      6.339468   1.000000   1.000000
   68        6.652039      6.367091   1.000000   1.000000
   69        6.800929      6.370381   1.000000   1.000000
   70        6.811089      6.391961   1.000000   1.000000
   71        6.851795      6.406691   1.000000   1.000000
   72        6.894967      6.423072   1.000000   1.000000
   73        6.909500      6.430374   1.000000   1.000000
   74        7.064088      6.467697   1.000005   1.000000
   75        7.135955      6.557562   1.000044   1.000000
   76        7.251452      6.565953   1.000892   1.000000
   77        7.297571      6.683993   1.002437   1.000000
   78        7.303056      6.737511   1.002748   1.000000
   79        7.449423      6.785353   1.024488   1.000000
   80        7.570301      6.945312   1.020267   1.000000
   81        7.631412      7.008651   0.943023   1.000001
   82        7.671727      7.033812   0.845476   1.000002
   83        7.687961      7.104834   0.789105   1.000017
   84        7.768012      7.183064   0.477817   1.000164
   85        7.925815      7.259893   0.005689   1.001085
   86        7.989463      7.268538  -0.034035   1.001318
   87        8.067283      7.278634  -0.026575   1.001660
   88        8.096531      7.332656  -0.019910   1.004780
   89        8.150682      7.337258  -0.009605   1.005238
   90        8.174536      7.370216  -0.006620   1.008815
   91        8.239598      7.481927  -0.001941   1.031659
   92        8.284709      7.497620  -0.000708   1.034000
   93        8.287609      7.510044  -0.000653   1.035249
   94        8.337415      7.572864  -0.000186   1.019636
   95        8.417900      7.576239  -0.000018   1.017285
   96        8.443157      7.702862  -0.000008   0.735525
   97        8.447242      7.862027  -0.000007   0.125760
   98        8.499087      7.947747  -0.000001  -0.016113
   99        8.526645      8.041220  -0.000000  -0.032011
  100        8.539693      8.138923  -0.000000  -0.011316
  101        8.583702      8.145230  -0.000000  -0.010462
  102        8.682812      8.200650  -0.000000  -0.004104
  103        8.723906      8.231570  -0.000000  -0.002140
  104        8.848113      8.263226  -0.000000  -0.000386
 
  0.2000000E+00  0.0000000E+00  0.0000000E+00  0.1333333E-01
    1       -2.415449     -2.440044   1.000000   1.000000
    2       -1.089974     -1.114144   1.000000   1.000000
    3       -0.262080     -0.276905   1.000000   1.000000
    4       -0.214714     -0.256668   1.000000   1.000000
    5       -0.053433     -0.050454   1.000000   1.000000
    6        0.585335      0.552238   1.000000   1.000000
    7        0.903586      0.872279   1.000000   1.000000
    8        0.934311      0.907484   1.000000   1.000000
    9        0.972295      0.926955   1.000000   1.000000
   10        1.476136      1.408917   1.000000   1.000000
   11        1.493734      1.448888   1.000000   1.000000
   12        1.524722      1.459371   1.000000   1.000000
   13        1.980462      1.877561   1.000000   1.000000
   14        2.344262      2.269355   1.000000   1.000000
   15        2.360300      2.273033   1.000000   1.000000
   16        2.378022      2.301404   1.000000   1.000000
   17        2.391732      2.307992   1.000000   1.000000
   18        2.861098      2.791147   1.000000   1.000000
   19        3.318475      3.160811   1.000000   1.000000
   20        3.387168      3.188082   1.000000   1.000000
   21        3.625614      3.559164   1.000000   1.000000
   22        3.689056      3.580438   1.000000   1.000000
   23        3.782348      3.704569   1.000000   1.000000
   24        4.149859      4.044454   1.000000   1.000000
   25        4.235358      4.085200   1.000000   1.000000
   26        4.368477      4.227005   1.000000   1.000000
   27        4.436214      4.272908   1.000000   1.000000
   28        4.578249      4.326548   1.000000   1.000000
   29        4.630813      4.443233   1.000000   1.000000
   30        4.655642      4.455277   1.000000   1.000000
   31        4.700735      4.482806   1.000000   1.000000
   32        4.720541      4.509300   1.000000   1.000000
   33        4.759711      4.587110   1.000000   1.000000
   34        4.786541      4.616221   1.000000   1.000000
   35        5.020627      4.711553   1.000000   1.000000
   36        5.033615      4.811529   1.000000   1.000000
   37        5.159183      4.875296   1.000000   1.000000
   38        5.172144      4.908426   1.000000   1.000000
   39        5.235022      4.969428   1.000000   1.000000
   40        5.252217      4.994696   1.000000   1.000000
   41        5.292530      5.032418   1.000000   1.000000
   42        5.427147      5.200967   1.000000   1.000000
   43        5.466429      5.214170   1.000000   1.000000
   44        5.499317      5.287995   1.000000   1.000000
   45        5.568743      5.318318   1.000000   1.000000
   46        5.586490      5.363758   1.000000   1.000000
   47        5.651250      5.377946   1.000000   1.000000
   48        5.739755      5.412779   1.000000   1.000000
   49        5.746004      5.459559   1.000000   1.000000
   50        5.818669      5.469714   1.000000   1.000000
   51        5.874106      5.516099   1.000000   1.000000
   52        5.922892      5.541882   1.000000   1.000000
   53        5.972913      5.632153   1.000000   1.000000
   54        6.064530      5.637734   1.000000   1.000000
   55        6.081105      5.670999   1.000000   1.000000
   56        6.134477      5.694991   1.000000   1.000000
   57        6.264612      5.823209   1.000000   1.000000
   58        6.289689      5.860197   1.000000   1.000000
   59        6.365045      5.919966   1.000000   1.000000
   60        6.404235      5.921430   1.000000   1.000000
   61        6.409061      5.972855   1.000000   1.000000
   62        6.427482      6.001304   1.000000   1.000000
   63        6.465074      6.044431   1.000000   1.000000
   64        6.503667      6.093527   1.000000   1.000000
   65        6.523088      6.170184   1.000000   1.000000
   66        6.566142      6.265897   1.000000   1.000000
   67        6.655762      6.289428   1.000000   1.000000
   68        6.736752      6.314649   1.000000   1.000000
   69        6.741794      6.355980   1.000000   1.000000
   70        6.819850      6.364183   1.000000   1.000000
   71        6.879123      6.386188   1.000000   1.000000
   72        6.926706      6.429071   1.000000   1.000000
   73        6.997693      6.430546   1.000000   1.000000
   74        7.063655      6.478588   1.000005   1.000000
   75        7.266002      6.526189   1.001240   1.000000
   76        7.272508      6.581117   1.001454   1.000000
   77        7.309540      6.592097   1.003119   1.000000
   78        7.320973      6.652469   1.003866   1.000000
   79        7.426617      6.756115   1.019446   1.000000
   80        7.460575      6.834600   1.027068   1.000000
   81        7.519874      6.890036   1.035444   1.000000
   82        7.622426      6.943269   0.959992   1.000000
   83        7.677849      6.958117   0.822523   1.000000
   84        7.773283      7.055868   0.453799   1.000004
   85        7.940026      7.166457  -0.008908   1.000105
   86        8.029891      7.246487  -0.033790   1.000816
   87        8.040945      7.286714  -0.031952   1.001930
   88        8.096342      7.349486  -0.019921   1.006350
   89        8.135322      7.427019  -0.012137   1.019521
   90        8.171517      7.433628  -0.006955   1.021021
   91        8.175855      7.471285  -0.006485   1.029326
   92        8.248266      7.526809  -0.001609   1.035148
   93        8.273699      7.560144  -0.000904   1.026478
   94        8.278905      7.617912  -0.000818   0.967754
   95        8.336012      7.721784  -0.000191   0.666408
   96        8.402216      7.751453  -0.000030   0.547935
   97        8.420842      7.980083  -0.000017  -0.032095
   98        8.443276      8.026198  -0.000008  -0.034250
   99        8.489892      8.062026  -0.000002  -0.027568
  100        8.604929      8.063803  -0.000000  -0.027149
  101        8.611673      8.170767  -0.000000  -0.006863
  102        8.678412      8.182063  -0.000000  -0.005776
  103        8.798330      8.208958  -0.000000  -0.003360
  104        8.987324      8.270787  -0.000000  -0.000880
 
  0.4000000E+00  0.0000000E+00  0.0000000E+00  0.1333333E-01
    1       -2.145789     -2.170368   1.000000   1.000000
    2       -1.700336     -1.724652   1.000000   1.000000
    3       -0.016068     -0.033729   1.000000   1.000000
    4        0.029517     -0.012032   1.000000   1.000000
    5        0.144392      0.140829   1.000000   1.000000
    6        0.388377      0.370777   1.000000   1.000000
    7        0.433363      0.389253   1.000000   1.000000
    8        0.468612      0.456606   1.000000   1.000000
    9        1.605032      1.561624   1.000000   1.000000
   10        1.660403      1.590965   1.000000   1.000000
   11        1.676169      1.634238   1.000000   1.000000
   12        1.804173      1.729158   1.000000   1.000000
   13        1.977696      1.884525   1.000000   1.000000
   14        1.991425      1.938758   1.000000   1.000000
   15        2.258358      2.184636   1.000000   1.000000
   16        2.431141      2.262862   1.000000   1.000000
   17        2.703055      2.660378   1.000000   1.000000
   18        3.005022      2.898991   1.000000   1.000000
   19        3.060768      2.959419   1.000000   1.000000
   20        3.687180      3.476155   1.000000   1.000000
   21        3.809000      3.566800   1.000000   1.000000
   22        3.841594      3.723957   1.000000   1.000000
   23        3.844870      3.736802   1.000000   1.000000
   24        4.061406      3.965148   1.000000   1.000000
   25        4.073515      3.978996   1.000000   1.000000
   26        4.195703      4.083901   1.000000   1.000000
   27        4.272919      4.106453   1.000000   1.000000
   28        4.401465      4.186990   1.000000   1.000000
   29        4.453707      4.240889   1.000000   1.000000
   30        4.566845      4.316141   1.000000   1.000000
   31        4.594255      4.320086   1.000000   1.000000
   32        4.607784      4.533614   1.000000   1.000000
   33        4.685848      4.636141   1.000000   1.000000
   34        4.795068      4.646966   1.000000   1.000000
   35        4.994579      4.757461   1.000000   1.000000
   36        5.090078      4.770127   1.000000   1.000000
   37        5.140828      4.934355   1.000000   1.000000
   38        5.162203      4.960822   1.000000   1.000000
   39        5.200632      4.976311   1.000000   1.000000
   40        5.255825      5.039261   1.000000   1.000000
   41        5.315631      5.077281   1.000000   1.000000
   42        5.453261      5.082070   1.000000   1.000000
   43        5.465768      5.236054   1.000000   1.000000
   44        5.500496      5.248434   1.000000   1.000000
   45        5.556215      5.319701   1.000000   1.000000
   46        5.602919      5.374161   1.000000   1.000000
   47        5.648994      5.411030   1.000000   1.000000
   48        5.722069      5.430968   1.000000   1.000000
   49        5.728685      5.469384   1.000000   1.000000
   50        5.897755      5.505656   1.000000   1.000000
   51        5.924821      5.538863   1.000000   1.000000
   52        5.961420      5.559398   1.000000   1.000000
   53        5.999929      5.624330   1.000000   1.000000
   54        6.024647      5.652535   1.000000   1.000000
   55        6.068568      5.669617   1.000000   1.000000
   56        6.126051      5.680417   1.000000   1.000000
   57        6.174991      5.737806   1.000000   1.000000
   58        6.223610      5.905871   1.000000   1.000000
   59        6.299541      5.958146   1.000000   1.000000
   60        6.310304      5.998150   1.000000   1.000000
   61        6.338693      6.017498   1.000000   1.000000
   62        6.382975      6.033359   1.000000   1.000000
   63        6.431776      6.131145   1.000000   1.000000
   64        6.439001      6.147219   1.000000   1.000000
   65        6.523677      6.188951   1.000000   1.000000
   66        6.577751      6.203370   1.000000   1.000000
   67        6.634600      6.211805   1.000000   1.000000
   68        6.726428      6.249121   1.000000   1.000000
   69        6.918285      6.253683   1.000000   1.000000
   70        6.925353      6.314933   1.000000   1.000000
   71        6.977037      6.368180   1.000000   1.000000
   72        7.018251      6.392773   1.000001   1.000000
   73        7.020100      6.432049   1.000001   1.000000
   74        7.088814      6.437363   1.000010   1.000000
   75        7.159702      6.504560   1.000087   1.000000
   76        7.196694      6.526683   1.000235   1.000000
   77        7.243552      6.541119   1.000747   1.000000
   78        7.381773      6.666592   1.010708   1.000000
   79        7.476696      6.717462   1.030592   1.000000
   80        7.501314      6.770286   1.034641   1.000000
   81        7.573815      6.805219   1.018698   1.000000
   82        7.613608      6.809344   0.975184   1.000000
   83        7.651960      6.859876   0.896802   1.000000
   84        7.796541      6.955677   0.357326   1.000000
   85        7.844051      7.144403   0.183482   1.000056
   86        7.946076      7.167214  -0.014201   1.000110
   87        8.021267      7.212296  -0.034776   1.000350
   88        8.049933      7.340801  -0.030319   1.005470
   89        8.078636      7.376484  -0.024002   1.009874
   90        8.127752      7.420277  -0.013496   1.017998
   91        8.190932      7.527518  -0.004986   1.035112
   92        8.224004      7.582345  -0.002658   1.011848
   93        8.241576      7.596351  -0.001840   0.997624
   94        8.276858      7.704741  -0.000858   0.732885
   95        8.297892      7.739702  -0.000514   0.599493
   96        8.314379      7.816495  -0.000338   0.278604
   97        8.326895      7.947727  -0.000250  -0.017596
   98        8.372603      7.997805  -0.000069  -0.035081
   99        8.451067      8.060384  -0.000006  -0.028449
  100        8.573411      8.067951  -0.000000  -0.026591
  101        8.671356      8.156203  -0.000000  -0.008853
  102        8.685598      8.202765  -0.000000  -0.003955
  103        8.722552      8.291835  -0.000000  -0.000546
  104        8.761055      8.308643  -0.000000  -0.000363
 
  0.0000000E+00  0.2000000E+00  0.0000000E+00  0.1333333E-01
    1       -2.415418     -2.440034   1.000000   1.000000
    2       -1.090388     -1.114371   1.000000   1.000000
    3       -0.248972     -0.278500   1.000000   1.000000
    4       -0.227675     -0.254321   1.000000   1.000000
    5       -0.053549     -0.050201   1.000000   1.000000
    6        0.585862      0.551243   1.000000   1.000000
    7        0.901125      0.873701   1.000000   1.000000
    8        0.943897      0.909343   1.000000   1.000000
    9        0.962136      0.925375   1.000000   1.000000
   10        1.475902      1.416101   1.000000   1.000000
   11        1.502859      1.443776   1.000000   1.000000
   12        1.524642      1.448876   1.000000   1.000000
   13        1.972940      1.885772   1.000000   1.000000
   14        2.343421      2.277018   1.000000   1.000000
   15        2.360928      2.277058   1.000000   1.000000
   16        2.381515      2.294496   1.000000   1.000000
   17        2.392513      2.299827   1.000000   1.000000
   18        2.861598      2.790583   1.000000   1.000000
   19        3.322628      3.163610   1.000000   1.000000
   20        3.372207      3.192872   1.000000   1.000000
   21        3.636914      3.549127   1.000000   1.000000
   22        3.676988      3.592367   1.000000   1.000000
   23        3.779013      3.705603   1.000000   1.000000
   24        4.150103      4.040666   1.000000   1.000000
   25        4.242610      4.083856   1.000000   1.000000
   26        4.363492      4.225610   1.000000   1.000000
   27        4.449185      4.276443   1.000000   1.000000
   28        4.572413      4.321824   1.000000   1.000000
   29        4.610138      4.456091   1.000000   1.000000
   30        4.657242      4.470685   1.000000   1.000000
   31        4.721964      4.474855   1.000000   1.000000
   32        4.736171      4.506301   1.000000   1.000000
   33        4.756495      4.553987   1.000000   1.000000
   34        4.766589      4.601690   1.000000   1.000000
   35        4.974232      4.742458   1.000000   1.000000
   36        5.017067      4.813969   1.000000   1.000000
   37        5.152828      4.884528   1.000000   1.000000
   38        5.243460      4.912160   1.000000   1.000000
   39        5.247593      4.968763   1.000000   1.000000
   40        5.317577      4.986270   1.000000   1.000000
   41        5.322442      5.027428   1.000000   1.000000
   42        5.443854      5.214776   1.000000   1.000000
   43        5.456018      5.218570   1.000000   1.000000
   44        5.480669      5.271209   1.000000   1.000000
   45        5.559504      5.295360   1.000000   1.000000
   46        5.604959      5.363745   1.000000   1.000000
   47        5.656163      5.388695   1.000000   1.000000
   48        5.677514      5.406264   1.000000   1.000000
   49        5.709008      5.461798   1.000000   1.000000
   50        5.792275      5.472035   1.000000   1.000000
   51        5.869642      5.505372   1.000000   1.000000
   52        5.902300      5.549017   1.000000   1.000000
   53        6.004166      5.647922   1.000000   1.000000
   54        6.028701      5.676587   1.000000   1.000000
   55        6.067350      5.706015   1.000000   1.000000
   56        6.144858      5.721437   1.000000   1.000000
   57        6.287914      5.765785   1.000000   1.000000
   58        6.309679      5.829954   1.000000   1.000000
   59        6.379161      5.897035   1.000000   1.000000
   60        6.389705      5.923795   1.000000   1.000000
   61        6.422904      5.945384   1.000000   1.000000
   62        6.433605      5.984750   1.000000   1.000000
   63        6.465962      6.025258   1.000000   1.000000
   64        6.502570      6.076209   1.000000   1.000000
   65        6.553175      6.200754   1.000000   1.000000
   66        6.575520      6.263761   1.000000   1.000000
   67        6.653554      6.291992   1.000000   1.000000
   68        6.705926      6.320190   1.000000   1.000000
   69        6.756990      6.338985   1.000000   1.000000
   70        6.815595      6.365163   1.000000   1.000000
   71        6.821655      6.382883   1.000000   1.000000
   72        6.939708      6.430437   1.000000   1.000000
   73        6.982305      6.471806   1.000000   1.000000
   74        7.085810      6.494845   1.000009   1.000000
   75        7.233372      6.551031   1.000582   1.000000
   76        7.244922      6.576479   1.000785   1.000000
   77        7.366103      6.611794   1.008489   1.000000
   78        7.369932      6.678019   1.009051   1.000000
   79        7.440421      6.745462   1.022504   1.000000
   80        7.449331      6.812719   1.024449   1.000000
   81        7.520931      6.901892   1.035411   1.000000
   82        7.611361      6.956482   0.977033   1.000000
   83        7.657526      6.971734   0.881827   1.000000
   84        7.748354      7.024349   0.559794   1.000001
   85        7.893355      7.120823   0.057171   1.000027
   86        8.004062      7.171203  -0.035397   1.000120
   87        8.049387      7.331816  -0.030440   1.004688
   88        8.075337      7.365984  -0.024699   1.008280
   89        8.179353      7.443532  -0.006105   1.023256
   90        8.217272      7.454701  -0.003026   1.025683
   91        8.227063      7.482562  -0.002522   1.031732
   92        8.255189      7.514747  -0.001365   1.035414
   93        8.289698      7.583170  -0.000634   1.011326
   94        8.318010      7.626397  -0.000305   0.953405
   95        8.363563      7.713940  -0.000091   0.694024
   96        8.378087      7.766932  -0.000061   0.479339
   97        8.408839      7.950921  -0.000024  -0.018404
   98        8.444076      8.034118  -0.000008  -0.032982
   99        8.472728      8.038725  -0.000003  -0.032420
  100        8.533160      8.076549  -0.000000  -0.024095
  101        8.600982      8.137028  -0.000000  -0.011507
  102        8.673042      8.171984  -0.000000  -0.006833
  103        8.696647      8.182772  -0.000000  -0.005580
  104        8.889601      8.283135  -0.000000  -0.000568
 
  0.2000000E+00  0.2000000E+00  0.0000000E+00  0.1333333E-01
    1       -2.325210     -2.349803   1.000000   1.000000
    2       -1.032671     -1.031180   1.000000   1.000000
    3       -0.973182     -1.025963   1.000000   1.000000
    4        0.013021      0.014447   1.000000   1.000000
    5        0.243110      0.211088   1.000000   1.000000
    6        0.637724      0.629450   1.000000   1.000000
    7        0.692021      0.636552   1.000000   1.000000
    8        0.965054      0.910075   1.000000   1.000000
    9        0.969171      0.964734   1.000000   1.000000
   10        1.612570      1.542265   1.000000   1.000000
   11        1.746555      1.687812   1.000000   1.000000
   12        1.803513      1.763990   1.000000   1.000000
   13        1.866986      1.811735   1.000000   1.000000
   14        2.039628      1.942389   1.000000   1.000000
   15        2.068511      1.955880   1.000000   1.000000
   16        2.853507      2.728642   1.000000   1.000000
   17        2.880369      2.813779   1.000000   1.000000
   18        2.933668      2.825723   1.000000   1.000000
   19        2.970058      2.846544   1.000000   1.000000
   20        3.013687      2.893921   1.000000   1.000000
   21        3.777397      3.562661   1.000000   1.000000
   22        3.822488      3.737553   1.000000   1.000000
   23        3.832949      3.747487   1.000000   1.000000
   24        3.902151      3.814326   1.000000   1.000000
   25        4.286260      4.122656   1.000000   1.000000
   26        4.338993      4.137586   1.000000   1.000000
   27        4.380909      4.283293   1.000000   1.000000
   28        4.450972      4.313048   1.000000   1.000000
   29        4.503547      4.331441   1.000000   1.000000
   30        4.542258      4.355410   1.000000   1.000000
   31        4.634080      4.425301   1.000000   1.000000
   32        4.743156      4.504951   1.000000   1.000000
   33        4.760380      4.508553   1.000000   1.000000
   34        4.855413      4.606742   1.000000   1.000000
   35        4.930769      4.702839   1.000000   1.000000
   36        5.049256      4.798485   1.000000   1.000000
   37        5.064934      4.832796   1.000000   1.000000
   38        5.100077      4.865455   1.000000   1.000000
   39        5.212999      4.977740   1.000000   1.000000
   40        5.250295      5.058421   1.000000   1.000000
   41        5.374124      5.134592   1.000000   1.000000
   42        5.418041      5.155960   1.000000   1.000000
   43        5.468111      5.232177   1.000000   1.000000
   44        5.502478      5.258270   1.000000   1.000000
   45        5.558988      5.339738   1.000000   1.000000
   46        5.619983      5.353131   1.000000   1.000000
   47        5.652166      5.370680   1.000000   1.000000
   48        5.721074      5.448480   1.000000   1.000000
   49        5.830478      5.473417   1.000000   1.000000
   50        5.884305      5.514288   1.000000   1.000000
   51        5.894330      5.546083   1.000000   1.000000
   52        5.927895      5.603081   1.000000   1.000000
   53        5.978932      5.654615   1.000000   1.000000
   54        6.069328      5.672704   1.000000   1.000000
   55        6.100049      5.703010   1.000000   1.000000
   56        6.134961      5.719877   1.000000   1.000000
   57        6.239485      5.756754   1.000000   1.000000
   58        6.291472      5.865732   1.000000   1.000000
   59        6.301612      5.926211   1.000000   1.000000
   60        6.414219      5.939591   1.000000   1.000000
   61        6.440149      6.008933   1.000000   1.000000
   62        6.467811      6.015282   1.000000   1.000000
   63        6.501190      6.054994   1.000000   1.000000
   64        6.531434      6.069174   1.000000   1.000000
   65        6.558612      6.213439   1.000000   1.000000
   66        6.582955      6.224847   1.000000   1.000000
   67        6.611894      6.233255   1.000000   1.000000
   68        6.730301      6.293638   1.000000   1.000000
   69        6.829095      6.309348   1.000000   1.000000
   70        6.833729      6.369637   1.000000   1.000000
   71        6.882417      6.402135   1.000000   1.000000
   72        6.963392      6.459020   1.000000   1.000000
   73        7.002105      6.460215   1.000001   1.000000
   74        7.054821      6.487473   1.000003   1.000000
   75        7.157737      6.555633   1.000081   1.000000
   76        7.229885      6.583914   1.000534   1.000000
   77        7.275128      6.616057   1.001540   1.000000
   78        7.376817      6.660112   1.010040   1.000000
   79        7.390182      6.714009   1.012174   1.000000
   80        7.467043      6.763617   1.028532   1.000000
   81        7.475487      6.829127   1.030530   1.000000
   82        7.570536      6.868222   1.020324   1.000000
   83        7.675761      6.887960   0.829693   1.000000
   84        7.683674      7.030136   0.805988   1.000001
   85        7.740694      7.081509   0.592030   1.000008
   86        7.991491      7.127042  -0.034323   1.000033
   87        8.031694      7.259329  -0.033604   1.001068
   88        8.066045      7.325210  -0.026758   1.004161
   89        8.136050      7.378214  -0.012004   1.010235
   90        8.168343      7.420756  -0.007390   1.018047
   91        8.201336      7.480087  -0.004131   1.030924
   92        8.271157      7.497697  -0.000979   1.034074