       N       E                     dE             d eps       ncg     rms          ort
DAV:   1     0.136960409598E+04    0.13696E+04   -0.57693E+04  5408   0.151E+03
DAV:   2    -0.359147772858E+02   -0.14055E+04   -0.13858E+04  5408   0.470E+02
DAV:   3    -0.232750549665E+03   -0.19684E+03   -0.18344E+03  5408   0.187E+02
DAV:   4    -0.264899490494E+03   -0.32149E+02   -0.29633E+02  5408   0.802E+01
DAV:   5    -0.269173735119E+03   -0.42742E+01   -0.40666E+01  5408   0.235E+01
DAV:   6    -0.269769078046E+03   -0.59534E+00   -0.56800E+00  5408   0.667E+00
DAV:   7    -0.269894626786E+03   -0.12555E+00   -0.12016E+00  5408   0.241E+00
DAV:   8    -0.269927679977E+03   -0.33053E-01   -0.31672E-01  5408   0.856E-01
SDA:   9    -0.575469996904E+02    0.21238E+03   -0.31672E-01  5408   0.242E+04 0.000E+00
CGA:  10    -0.203755568486E+03   -0.14621E+03   -0.14616E+03  5408   0.184E+03 0.467E+03
CGA:  11    -0.216161350007E+03   -0.12406E+02   -0.12404E+02  5408   0.535E+02 0.493E+01
CGA:  12    -0.224236043879E+03   -0.80747E+01   -0.80834E+01  5408   0.102E+03-0.334E-01
CGA:  13    -0.231982026550E+03   -0.77460E+01   -0.79230E+01  5408   0.181E+02-0.349E+00
CGA:  14    -0.233227926089E+03   -0.12459E+01   -0.12668E+01  5408   0.602E+01-0.155E+00
CGA:  15    -0.233941669566E+03   -0.71374E+00   -0.71744E+00  5408   0.754E+01 0.596E-02
CGA:  16    -0.234696223327E+03   -0.75455E+00   -0.75789E+00  5408   0.263E+01-0.346E-02
CGA:  17    -0.234918302775E+03   -0.22208E+00   -0.22244E+00  5408   0.156E+01-0.603E-03
CGA:  18    -0.235147857822E+03   -0.22956E+00   -0.22961E+00  5408   0.177E+01 0.368E-03
CGA:  19    -0.235342104631E+03   -0.19425E+00   -0.19477E+00  5408   0.670E+00-0.127E-02
CGA:  20    -0.235414240908E+03   -0.72136E-01   -0.72297E-01  5408   0.638E+00-0.438E-03
CGA:  21    -0.235523104493E+03   -0.10886E+00   -0.10884E+00  5408   0.886E+00 0.815E-03
CGA:  22    -0.235614550934E+03   -0.91446E-01   -0.91610E-01  5408   0.344E+00-0.853E-03
CGA:  23    -0.235657407096E+03   -0.42856E-01   -0.42841E-01  5408   0.304E+00-0.502E-03
CGA:  24    -0.235707300592E+03   -0.49893E-01   -0.49905E-01  5408   0.381E+00-0.113E-02
CGA:  25    -0.235747921319E+03   -0.40621E-01   -0.40664E-01  5408   0.264E+00-0.217E-03
CGA:  26    -0.235789575260E+03   -0.41654E-01   -0.41656E-01  5408   0.253E+00-0.234E-03
CGA:  27    -0.235820093958E+03   -0.30519E-01   -0.30473E-01  5408   0.147E+00 0.506E-03
CGA:  28    -0.235836928195E+03   -0.16834E-01   -0.16841E-01  5408   0.110E+00 0.705E-03
CGA:  29    -0.235853124536E+03   -0.16196E-01   -0.16199E-01  5408   0.104E+00 0.141E-02
CGA:  30    -0.235866681009E+03   -0.13556E-01   -0.13572E-01  5408   0.785E-01 0.845E-03
CGA:  31    -0.235880158581E+03   -0.13478E-01   -0.13445E-01  5408   0.906E-01 0.129E-02
CGA:  32    -0.235892427987E+03   -0.12269E-01   -0.12280E-01  5408   0.553E-01 0.683E-03
CGA:  33    -0.235899397661E+03   -0.69697E-02   -0.69902E-02  5408   0.397E-01 0.627E-03
CGA:  34    -0.235905436815E+03   -0.60392E-02   -0.60381E-02  5408   0.389E-01 0.297E-03
CGA:  35    -0.235910130595E+03   -0.46938E-02   -0.47070E-02  5408   0.209E-01 0.313E-03
CGA:  36    -0.235914231760E+03   -0.41012E-02   -0.40928E-02  5408   0.312E-01 0.127E-03
CGA:  37    -0.235919121646E+03   -0.48899E-02   -0.48876E-02  5408   0.254E-01 0.233E-03
CGA:  38    -0.235921658834E+03   -0.25372E-02   -0.25402E-02  5408   0.103E-01 0.471E-04
CGA:  39    -0.235923109620E+03   -0.14508E-02   -0.14509E-02  5408   0.129E-01 0.348E-04
SDA:  40    -0.235925657990E+03   -0.25484E-02   -0.25476E-02  5408   0.143E-01-0.186E-04
CGA:  41    -0.235926753144E+03   -0.10952E-02   -0.10958E-02  5408   0.841E-02-0.257E-04
CGA:  42    -0.235927742603E+03   -0.98946E-03   -0.98863E-03  5408   0.446E-02-0.290E-04
CGA:  43    -0.235928967466E+03   -0.12249E-02   -0.12263E-02  5408   0.678E-02-0.111E-04
CGA:  44    -0.235929553854E+03   -0.58639E-03   -0.58586E-03  5408   0.319E-02-0.165E-05
CGA:  45    -0.235930405051E+03   -0.85120E-03   -0.85198E-03  5408   0.695E-02-0.742E-05
CGA:  46    -0.235931118617E+03   -0.71357E-03   -0.71250E-03  5408   0.218E-02-0.762E-05
CGA:  47    -0.235931554851E+03   -0.43623E-03   -0.43591E-03  5408   0.421E-02 0.696E-05
CGA:  48    -0.235932139899E+03   -0.58505E-03   -0.58521E-03  5408   0.214E-02 0.111E-04
CGA:  49    -0.235932530268E+03   -0.39037E-03   -0.39028E-03  5408   0.322E-02 0.465E-05
CGA:  50    -0.235932969617E+03   -0.43935E-03   -0.43936E-03  5408   0.145E-02 0.472E-05
CGA:  51    -0.235933112804E+03   -0.14319E-03   -0.14312E-03  5408   0.122E-02-0.348E-06
CGA:  52    -0.235933368612E+03   -0.25581E-03   -0.25597E-03  5408   0.121E-02-0.486E-06
CGA:  53    -0.235933476077E+03   -0.10746E-03   -0.10737E-03  5408   0.697E-03-0.165E-05
CGA:  54    -0.235933663270E+03   -0.18719E-03   -0.18788E-03  5408   0.130E-02-0.433E-05
CGA:  55    -0.235933785027E+03   -0.12176E-03   -0.12163E-03  5408   0.297E-03-0.866E-08
CGA:  56    -0.235933838192E+03   -0.53166E-04   -0.53105E-04  5408   0.554E-03 0.225E-05
CGA:  57    -0.235933911583E+03   -0.73391E-04   -0.73498E-04  5408   0.261E-03 0.262E-05
CGA:  58    -0.235933943967E+03   -0.32384E-04   -0.32339E-04  5408   0.276E-03-0.147E-05
CGA:  59    -0.235933998901E+03   -0.54933E-04   -0.55005E-04  5408   0.238E-03-0.187E-05
CGA:  60    -0.235934040740E+03   -0.41839E-04   -0.41787E-04  5408   0.145E-03 0.168E-05
CGA:  61    -0.235934054143E+03   -0.13403E-04   -0.13425E-04  5408   0.834E-04 0.872E-06
CGA:  62    -0.235934068420E+03   -0.14277E-04   -0.14298E-04  5408   0.139E-03-0.107E-05
CGA:  63    -0.235934083373E+03   -0.14953E-04   -0.14896E-04  5408   0.392E-04-0.164E-05
CGA:  64    -0.235934093557E+03   -0.10184E-04   -0.10404E-04  5408   0.716E-04-0.173E-05
CGA:  65    -0.235934099087E+03   -0.55300E-05   -0.54846E-05  5408   0.203E-04-0.546E-06
CGA:  66    -0.235934102184E+03   -0.30974E-05   -0.30987E-05  5408   0.221E-04-0.124E-06
CGA:  67    -0.235934104227E+03   -0.20424E-05   -0.20444E-05  5408   0.415E-05 0.314E-07
CGA:  68    -0.235934104655E+03   -0.42805E-06   -0.43972E-06  5408   0.322E-05 0.238E-06
CGA:  69    -0.235934104854E+03   -0.19919E-06   -0.22554E-06  5408  -0.783E-06 0.281E-06
CGA:  70    -0.235934104483E+03    0.37048E-06   -0.11843E-06  5408  -0.554E-06-0.136E-05
CGA:  71    -0.235934103741E+03    0.74201E-06   -0.10853E-07  5408   0.417E-05-0.424E-05
CGA:  72    -0.235934103823E+03   -0.81318E-07   -0.92219E-07  5408  -0.142E-05 0.855E-07
CGA:  73    -0.235934103325E+03    0.49798E-06   -0.40133E-06  5408  -0.237E-05-0.184E-05
CGA:  74    -0.235934102274E+03    0.10505E-05   -0.26453E-06  5408   0.200E-05-0.477E-05
CGA:  75    -0.235934102291E+03   -0.16946E-07   -0.20610E-07  5408  -0.144E-05 0.260E-07
CGA:  76    -0.235934101879E+03    0.41198E-06   -0.12140E-05  5408  -0.162E-06-0.154E-05
CGA:  77    -0.235934099163E+03    0.27165E-05   -0.16860E-09  5408   0.465E-04-0.202E-04
CGA:  78    -0.235934100354E+03   -0.11910E-05   -0.12045E-05  5408  -0.597E-05 0.130E-06
CGA:  79    -0.235934098780E+03    0.15734E-05   -0.83488E-05  5408  -0.667E-05-0.617E-05
CGA:  80    -0.235934096508E+03    0.22727E-05   -0.11821E-05  5408   0.232E-05-0.110E-04
CGA:  81    -0.235934096519E+03   -0.11110E-07   -0.12942E-07  5408  -0.316E-05 0.931E-08
   1 F= -.23593410E+03 E0= -.23594904E+03  d E =0.448301E-01  mag=   -10.7150
