 vasp.5.4.4.18Apr17-6-g9f103f2a35 (build Dec 20 2018 12:05:58) complex          
  
 executed on             LinuxIFC date 2019.06.20  16:15:13
 running on   32 total cores
 distrk:  each k-point on    8 cores,    4 groups
 distr:  one band on NCORES_PER_BAND=   4 cores,    2 groups


--------------------------------------------------------------------------------------------------------


 INCAR:
 POTCAR:    PAW_PBE Al 04Jan2001                  
 POTCAR:    PAW_PBE Mn 06Sep2000                  

 ----------------------------------------------------------------------------- 
|                                                                             |
|           W    W    AA    RRRRR   N    N  II  N    N   GGGG   !!!           |
|           W    W   A  A   R    R  NN   N  II  NN   N  G    G  !!!           |
|           W    W  A    A  R    R  N N  N  II  N N  N  G       !!!           |
|           W WW W  AAAAAA  RRRRR   N  N N  II  N  N N  G  GGG   !            |
|           WW  WW  A    A  R   R   N   NN  II  N   NN  G    G                |
|           W    W  A    A  R    R  N    N  II  N    N   GGGG   !!!           |
|                                                                             |
|      You have enabled k-point parallelism (KPAR>1).                         |
|      This developmental code was originally  written by Paul Kent at ORNL,  |
|      and carefully double checked in Vienna.                                |
|      GW as well as linear response parallelism added by Martijn Marsman     |
|      and Georg Kresse.                                                      |
|      Carefully verify results versus KPAR=1.                                |
|      Report problems to Paul Kent and Vienna.                               |
|                                                                             |
 ----------------------------------------------------------------------------- 

 POTCAR:    PAW_PBE Al 04Jan2001                  
   VRHFIN =Al: s2p1                                                             
   LEXCH  = PE                                                                  
   EATOM  =    53.5387 eV,    3.9350 Ry                                         
                                                                                
   TITEL  = PAW_PBE Al 04Jan2001                                                
   LULTRA =        F    use ultrasoft PP ?                                      
   IUNSCR =        1    unscreen: 0-lin 1-nonlin 2-no                           
   RPACOR =    1.500    partial core radius                                     
   POMASS =   26.981; ZVAL   =    3.000    mass and valenz                      
   RCORE  =    1.900    outmost cutoff radius                                   
   RWIGS  =    2.650; RWIGS  =    1.402    wigner-seitz radius (au A)           
   ENMAX  =  240.300; ENMIN  =  180.225 eV                                      
   ICORE  =        2    local potential                                         
   LCOR   =        T    correct aug charges                                     
   LPAW   =        T    paw PP                                                  
   EAUG   =  291.052                                                            
   DEXC   =    0.000                                                            
   RMAX   =    1.939    core radius for proj-oper                               
   RAUG   =    1.300    factor for augmentation sphere                          
   RDEP   =    1.966    radius for radial grids                                 
   RDEPT  =    1.856    core radius for aug-charge                              
                                                                                
   Atomic configuration                                                         
    6 entries                                                                   
     n  l   j            E        occ.                                          
     1  0  0.50     -1511.1048   2.0000                                         
     2  0  0.50      -108.1629   2.0000                                         
     2  1  1.50       -69.6402   6.0000                                         
     3  0  0.50        -7.7528   2.0000                                         
     3  1  1.50        -2.7121   1.0000                                         
     3  2  2.50        -2.7212   0.0000                                         
   Description                                                                  
     l       E           TYP  RCUT    TYP  RCUT                                 
     0     -7.7528455     23  1.900                                             
     0     -3.3096929     23  1.900                                             
     1     -2.7120682     23  1.900                                             
     1     13.6058260     23  1.900                                             
     2     -2.7211652      7  1.900                                             
  local pseudopotential read in
  partial core-charges read in
  partial kinetic energy density read in
  atomic valenz-charges read in
  non local Contribution for L=           0  read in
    real space projection operators read in
  non local Contribution for L=           0  read in
    real space projection operators read in
  non local Contribution for L=           1  read in
    real space projection operators read in
  non local Contribution for L=           1  read in
    real space projection operators read in
    PAW grid and wavefunctions read in
 
   number of l-projection  operators is LMAX  =           4
   number of lm-projection operators is LMMAX =           8
 
 POTCAR:    PAW_PBE Mn 06Sep2000                  
   VRHFIN =Mn: d6 s1                                                            
   LEXCH  = PE                                                                  
   EATOM  =   416.7541 eV,   30.6306 Ry                                         
                                                                                
   TITEL  = PAW_PBE Mn 06Sep2000                                                
   LULTRA =        F    use ultrasoft PP ?                                      
   IUNSCR =        1    unscreen: 0-lin 1-nonlin 2-no                           
   RPACOR =    2.000    partial core radius                                     
   POMASS =   54.938; ZVAL   =    7.000    mass and valenz                      
   RCORE  =    2.300    outmost cutoff radius                                   
   RWIGS  =    2.500; RWIGS  =    1.323    wigner-seitz radius (au A)           
   ENMAX  =  269.864; ENMIN  =  202.398 eV                                      
   RCLOC  =    1.725    cutoff for local pot                                    
   LCOR   =        T    correct aug charges                                     
   LPAW   =        T    paw PP                                                  
   EAUG   =  500.711                                                            
   DEXC   =    0.000                                                            
   RMAX   =    2.343    core radius for proj-oper                               
   RAUG   =    1.300    factor for augmentation sphere                          
   RDEP   =    2.338    radius for radial grids                                 
   RDEPT  =    1.911    core radius for aug-charge                              
                                                                                
   Atomic configuration                                                         
    9 entries                                                                   
     n  l   j            E        occ.                                          
     1  0  0.50     -6424.8288   2.0000                                         
     2  0  0.50      -739.1154   2.0000                                         
     2  1  1.50      -625.3949   6.0000                                         
     3  0  0.50       -81.6100   2.0000                                         
     3  1  1.50       -50.4667   6.0000                                         
     3  2  2.50        -3.3745   6.0000                                         
     4  0  0.50        -4.1331   1.0000                                         
     4  1  0.50        -4.0817   0.0000                                         
     4  3  2.50        -1.3606   0.0000                                         
   Description                                                                  
     l       E           TYP  RCUT    TYP  RCUT                                 
     2     -3.3744664     23  2.300                                             
     2     -4.7350490     23  2.300                                             
     0     -4.1331408     23  2.300                                             
     0      7.6656614     23  2.300                                             
     1     -2.7211652     23  2.300                                             
     1     20.4087390     23  2.300                                             
  local pseudopotential read in
  partial core-charges read in
  partial kinetic energy density read in
  atomic valenz-charges read in
  non local Contribution for L=           2  read in
    real space projection operators read in
  non local Contribution for L=           2  read in
    real space projection operators read in
  non local Contribution for L=           0  read in
    real space projection operators read in
  non local Contribution for L=           0  read in
    real space projection operators read in
  non local Contribution for L=           1  read in
    real space projection operators read in
  non local Contribution for L=           1  read in
    real space projection operators read in
    PAW grid and wavefunctions read in
 
   number of l-projection  operators is LMAX  =           6
   number of lm-projection operators is LMMAX =          18
 

 ----------------------------------------------------------------------------- 
|                                                                             |
|  ADVICE TO THIS USER RUNNING 'VASP/VAMP'   (HEAR YOUR MASTER'S VOICE ...):  |
|                                                                             |
|      You have a (more or less) 'large supercell' and for larger cells       |
|      it might be more efficient to use real space projection opertators     |
|      So try LREAL= Auto  in the INCAR   file.                               |
|      Mind:          For very  accurate calculation you might also keep the  |
|      reciprocal projection scheme          (i.e. LREAL=.FALSE.)             |
|                                                                             |
 ----------------------------------------------------------------------------- 

  PAW_PBE Al 04Jan2001                  :
 energy of atom  1       EATOM=  -53.5387
 kinetic energy error for atom=    0.0005 (will be added to EATOM!!)
  PAW_PBE Mn 06Sep2000                  :
 energy of atom  2       EATOM= -416.7541
 kinetic energy error for atom=    0.0080 (will be added to EATOM!!)
 
 
 POSCAR: NewRef: 18, @ ['Mn', array([1.37502469, 
  positions in cartesian coordinates
  velocities in cartesian coordinates
  No initial velocities read in
 exchange correlation table for  LEXCH =        8
   RHO(1)=    0.500       N(1)  =     2000
   RHO(2)=  100.500       N(2)  =     4000
 


--------------------------------------------------------------------------------------------------------


 ion  position               nearest neighbor table
   1  0.000  0.000  0.000-  20 2.61  24 2.61  32 2.61  36 2.61  31 2.61  23 2.61  35 2.61  19 2.61
                             3 2.75   7 2.75   5 2.75  13 2.75
   2  0.000  0.000  0.500-  19 2.61  23 2.61  31 2.61  35 2.61  20 2.61  32 2.61  24 2.61  36 2.61
                             4 2.75   8 2.75   6 2.75  14 2.75
   3  0.000  0.333  0.000-  20 2.61  32 2.61  22 2.61  34 2.61  19 2.61  31 2.61  33 2.61  21 2.61
                             9 2.75   1 2.75   5 2.75  15 2.75
   4  0.000  0.333  0.500-  19 2.61  31 2.61  21 2.61  33 2.61  32 2.61  20 2.61  22 2.61  34 2.61
                            10 2.75   2 2.75   6 2.75  16 2.75
   5  0.000  0.667  0.000-  22 2.61  34 2.61  24 2.61  36 2.61  21 2.61  33 2.61  35 2.61  23 2.61
                             3 2.75  11 2.75   1 2.75  17 2.75
   6  0.000  0.667  0.500-  21 2.61  33 2.61  23 2.61  35 2.61  34 2.61  22 2.61  24 2.61  36 2.61
                             4 2.75  12 2.75   2 2.75  18 2.75
   7  0.333  0.000  0.000-  20 2.61  24 2.61  26 2.61  30 2.61  23 2.61  19 2.61  29 2.61  25 2.61
                            13 2.75   1 2.75   9 2.75  11 2.75
   8  0.333  0.000  0.500-  19 2.61  23 2.61  25 2.61  29 2.61  20 2.61  24 2.61  26 2.61  30 2.61
                            14 2.75   2 2.75  10 2.75  12 2.75
   9  0.333  0.333  0.000-  20 2.61  22 2.61  26 2.61  19 2.61  28 2.61  21 2.61  25 2.61  27 2.61
                             3 2.75   7 2.75  11 2.75  15 2.75
  10  0.333  0.333  0.500-  19 2.61  21 2.61  25 2.61  20 2.61  27 2.61  26 2.61  22 2.61  28 2.61
                             4 2.75   8 2.75  12 2.75  16 2.75
  11  0.333  0.667  0.000-  22 2.61  24 2.61  28 2.61  21 2.61  30 2.61  23 2.61  27 2.61  29 2.61
                            17 2.75   5 2.75   9 2.75   7 2.75
  12  0.333  0.667  0.500-  21 2.61  23 2.61  27 2.61  22 2.61  29 2.61  28 2.61  24 2.61  30 2.61
                            18 2.75   6 2.75  10 2.75   8 2.75
  13  0.667  0.000  0.000-  26 2.61  30 2.61  32 2.61  36 2.61  29 2.61  25 2.61  35 2.61  31 2.61
                             7 2.75  15 2.75   1 2.75  17 2.75
  14  0.667  0.000  0.500-  25 2.61  29 2.61  31 2.61  35 2.61  26 2.61  30 2.61  32 2.61  36 2.61
                             8 2.75  16 2.75   2 2.75  18 2.75
  15  0.667  0.333  0.000-  26 2.61  28 2.61  32 2.61  25 2.61  34 2.61  27 2.61  31 2.61  33 2.61
                            17 2.75   9 2.75  13 2.75   3 2.75
  16  0.667  0.333  0.500-  25 2.61  27 2.61  31 2.61  26 2.61  33 2.61  32 2.61  28 2.61  34 2.61
                            18 2.75  10 2.75  14 2.75   4 2.75
  17  0.667  0.667  0.000-  28 2.61  30 2.61  34 2.61  27 2.61  36 2.61  29 2.61  33 2.61  35 2.61
                            11 2.75  15 2.75  13 2.75   5 2.75
  18  0.667  0.667  0.500-  27 2.61  29 2.61  33 2.61  28 2.61  35 2.61  34 2.61  30 2.61  36 2.61
                            12 2.75  16 2.75  14 2.75   6 2.75
  19  0.167  0.167  0.250-  10 2.61   8 2.61   4 2.61   9 2.61   2 2.61   7 2.61   3 2.61   1 2.61
                            21 2.75  25 2.75  23 2.75  31 2.75
  20  0.167  0.167  0.750-   9 2.61   7 2.61   3 2.61  10 2.61   1 2.61   4 2.61   8 2.61   2 2.61
                            22 2.75  26 2.75  24 2.75  32 2.75
  21  0.167  0.500  0.250-  12 2.61  10 2.61   6 2.61  11 2.61   4 2.61   9 2.61   5 2.61   3 2.61
                            19 2.75  23 2.75  27 2.75  33 2.75
  22  0.167  0.500  0.750-  11 2.61   9 2.61   5 2.61  12 2.61   3 2.61   6 2.61  10 2.61   4 2.61
                            20 2.75  24 2.75  28 2.75  34 2.75
  23  0.167  0.833  0.250-   8 2.61  12 2.61   2 2.61   6 2.61  11 2.61   7 2.61   5 2.61   1 2.61
                            21 2.75  29 2.75  19 2.75  35 2.75
  24  0.167  0.833  0.750-   7 2.61  11 2.61   1 2.61   5 2.61   8 2.61  12 2.61   2 2.61   6 2.61
                            22 2.75  30 2.75  20 2.75  36 2.75
  25  0.500  0.167  0.250-  16 2.61  14 2.61  10 2.61  15 2.61   8 2.61  13 2.61   9 2.61   7 2.61
                            19 2.75  27 2.75  31 2.75  29 2.75
  26  0.500  0.167  0.750-  15 2.61  13 2.61   9 2.61  16 2.61   7 2.61  10 2.61  14 2.61   8 2.61
                            20 2.75  28 2.75  32 2.75  30 2.75
  27  0.500  0.500  0.250-  18 2.61  16 2.61  12 2.61  17 2.61  10 2.61  15 2.61  11 2.61   9 2.61
                            21 2.75  25 2.75  29 2.75  33 2.75
  28  0.500  0.500  0.750-  17 2.61  15 2.61  11 2.61  18 2.61   9 2.61  12 2.61  16 2.61  10 2.61
                            22 2.75  26 2.75  30 2.75  34 2.75
  29  0.500  0.833  0.250-  14 2.61  18 2.61   8 2.61  12 2.61  17 2.61  13 2.61  11 2.61   7 2.61
                            23 2.75  27 2.75  35 2.75  25 2.75
  30  0.500  0.833  0.750-  13 2.61  17 2.61   7 2.61  11 2.61  14 2.61  18 2.61   8 2.61  12 2.61
                            24 2.75  28 2.75  36 2.75  26 2.75
  31  0.833  0.167  0.250-   4 2.61  16 2.61  14 2.61   2 2.61  15 2.61   3 2.61  13 2.61   1 2.61
                            25 2.75  33 2.75  19 2.75  35 2.75
  32  0.833  0.167  0.750-   3 2.61  15 2.61  13 2.61   1 2.61   4 2.61  16 2.61   2 2.61  14 2.61
                            26 2.75  34 2.75  20 2.75  36 2.75
  33  0.833  0.500  0.250-   6 2.61  18 2.61  16 2.61   4 2.61  17 2.61   5 2.61  15 2.61   3 2.61
                            27 2.75  31 2.75  35 2.75  21 2.75
  34  0.833  0.500  0.750-   5 2.61  17 2.61  15 2.61   3 2.61   6 2.61  18 2.61   4 2.61  16 2.61
                            28 2.75  32 2.75  36 2.75  22 2.75
  35  0.833  0.833  0.250-   2 2.61   6 2.61  14 2.61  18 2.61  13 2.61   5 2.61  17 2.61   1 2.61
                            29 2.75  33 2.75  31 2.75  23 2.75
  36  0.833  0.833  0.750-   1 2.61   5 2.61  13 2.61  17 2.61   2 2.61  14 2.61   6 2.61  18 2.61
                            30 2.75  34 2.75  32 2.75  24 2.75
 
  LATTYP: Found a simple tetragonal cell.
 ALAT       =     8.2501481662
 C/A-ratio  =     0.8428059861
  
  Lattice vectors:
  
 A1 = (   8.2501481662,   0.0000000000,   0.0000000000)
 A2 = (   0.0000000000,   8.2501481662,   0.0000000000)
 A3 = (   0.0000000000,   0.0000000000,   6.9532742610)


Analysis of symmetry for initial positions (statically):
=====================================================================
 Subroutine PRICEL returns following result:
 
  LATTYP: Found a simple tetragonal cell.
 ALAT       =     2.7500493888
 C/A-ratio  =     1.2642089792
  
  Lattice vectors:
  
 A1 = (   2.7500493888,   0.0000000000,   0.0000000000)
 A2 = (   0.0000000000,   2.7500493888,   0.0000000000)
 A3 = (   0.0000000000,   0.0000000000,   3.4766371305)
 
  18 primitive cells build up your supercell.
 

 Routine SETGRP: Setting up the symmetry group for a 
 simple tetragonal supercell.


 Subroutine GETGRP returns: Found 16 space group operations
 (whereof 16 operations were pure point group operations)
 out of a pool of 16 trial point group operations.


The static configuration has the point symmetry D_4h.


Analysis of symmetry for dynamics (positions and initial velocities):
=====================================================================
 Subroutine PRICEL returns following result:
 
  LATTYP: Found a simple tetragonal cell.
 ALAT       =     2.7500493888
 C/A-ratio  =     1.2642089792
  
  Lattice vectors:
  
 A1 = (   2.7500493888,   0.0000000000,   0.0000000000)
 A2 = (   0.0000000000,   2.7500493888,   0.0000000000)
 A3 = (   0.0000000000,   0.0000000000,   3.4766371305)
 
  18 primitive cells build up your supercell.
 

 Routine SETGRP: Setting up the symmetry group for a 
 simple tetragonal supercell.


 Subroutine GETGRP returns: Found 16 space group operations
 (whereof 16 operations were pure point group operations)
 out of a pool of 16 trial point group operations.


The dynamic configuration has the point symmetry D_4h.


Analysis of structural, dynamic, and magnetic symmetry:
=====================================================================
 Subroutine PRICEL returns:
 Original cell was already a primitive cell.
 

 Routine SETGRP: Setting up the symmetry group for a 
 simple tetragonal supercell.


 Subroutine GETGRP returns: Found  2 space group operations
 (whereof  1 operations were pure point group operations)
 out of a pool of 16 trial point group operations.


The magnetic configuration has the point symmetry C_1 .
 The point group associated with its full space group is C_1h.


 Subroutine INISYM returns: Found  2 space group operations
 (whereof  1 operations are pure point group operations),
 and found     1 'primitive' translations

 
 
 KPOINTS: automatic KPOINTS                       

Automatic generation of k-mesh.
 generate k-points for:    5    5    6
Space group operators:
 irot       det(A)        alpha          n_x          n_y          n_z        tau_x        tau_y        tau_z
    1     1.000000     0.000001     1.000000     0.000000     0.000000     0.000000     0.000000     0.000000
    2    -1.000000   179.999999     0.000000     0.000000     1.000000     0.000000     0.000000     0.500000
 
 Subroutine IBZKPT returns following result:
 ===========================================
 
 Found     52 irreducible k-points:
 
 Following reciprocal coordinates:
            Coordinates               Weight
  0.000000  0.000000  0.000000      1.000000
  0.200000  0.000000  0.000000      2.000000
  0.400000  0.000000  0.000000      2.000000
  0.000000  0.200000  0.000000      2.000000
  0.200000  0.200000  0.000000      2.000000
  0.400000  0.200000  0.000000      2.000000
 -0.400000  0.200000  0.000000      2.000000
 -0.200000  0.200000  0.000000      2.000000
  0.000000  0.400000  0.000000      2.000000
  0.200000  0.400000  0.000000      2.000000
  0.400000  0.400000  0.000000      2.000000
 -0.400000  0.400000  0.000000      2.000000
 -0.200000  0.400000  0.000000      2.000000
  0.000000  0.000000  0.166667      2.000000
  0.200000  0.000000  0.166667      4.000000
  0.400000  0.000000  0.166667      4.000000
  0.000000  0.200000  0.166667      4.000000
  0.200000  0.200000  0.166667      4.000000
  0.400000  0.200000  0.166667      4.000000
 -0.400000  0.200000  0.166667      4.000000
 -0.200000  0.200000  0.166667      4.000000
  0.000000  0.400000  0.166667      4.000000
  0.200000  0.400000  0.166667      4.000000
  0.400000  0.400000  0.166667      4.000000
 -0.400000  0.400000  0.166667      4.000000
 -0.200000  0.400000  0.166667      4.000000
  0.000000  0.000000  0.333333      2.000000
  0.200000  0.000000  0.333333      4.000000
  0.400000  0.000000  0.333333      4.000000
  0.000000  0.200000  0.333333      4.000000
  0.200000  0.200000  0.333333      4.000000
  0.400000  0.200000  0.333333      4.000000
 -0.400000  0.200000  0.333333      4.000000
 -0.200000  0.200000  0.333333      4.000000
  0.000000  0.400000  0.333333      4.000000
  0.200000  0.400000  0.333333      4.000000
  0.400000  0.400000  0.333333      4.000000
 -0.400000  0.400000  0.333333      4.000000
 -0.200000  0.400000  0.333333      4.000000
  0.000000  0.000000  0.500000      1.000000
  0.200000  0.000000  0.500000      2.000000
  0.400000  0.000000  0.500000      2.000000
  0.000000  0.200000  0.500000      2.000000
  0.200000  0.200000  0.500000      2.000000
  0.400000  0.200000  0.500000      2.000000
 -0.400000  0.200000  0.500000      2.000000
 -0.200000  0.200000  0.500000      2.000000
  0.000000  0.400000  0.500000      2.000000
  0.200000  0.400000  0.500000      2.000000
  0.400000  0.400000  0.500000      2.000000
 -0.400000  0.400000  0.500000      2.000000
 -0.200000  0.400000  0.500000      2.000000
 
 Following cartesian coordinates:
            Coordinates               Weight
  0.000000  0.000000  0.000000      1.000000
  0.024242  0.000000  0.000000      2.000000
  0.048484  0.000000  0.000000      2.000000
  0.000000  0.024242  0.000000      2.000000
  0.024242  0.024242  0.000000      2.000000
  0.048484  0.024242  0.000000      2.000000
 -0.048484  0.024242  0.000000      2.000000
 -0.024242  0.024242  0.000000      2.000000
  0.000000  0.048484  0.000000      2.000000
  0.024242  0.048484  0.000000      2.000000
  0.048484  0.048484  0.000000      2.000000
 -0.048484  0.048484  0.000000      2.000000
 -0.024242  0.048484  0.000000      2.000000
  0.000000  0.000000  0.023970      2.000000
  0.024242  0.000000  0.023970      4.000000
  0.048484  0.000000  0.023970      4.000000
  0.000000  0.024242  0.023970      4.000000
  0.024242  0.024242  0.023970      4.000000
  0.048484  0.024242  0.023970      4.000000
 -0.048484  0.024242  0.023970      4.000000
 -0.024242  0.024242  0.023970      4.000000
  0.000000  0.048484  0.023970      4.000000
  0.024242  0.048484  0.023970      4.000000
  0.048484  0.048484  0.023970      4.000000
 -0.048484  0.048484  0.023970      4.000000
 -0.024242  0.048484  0.023970      4.000000
  0.000000  0.000000  0.047939      2.000000
  0.024242  0.000000  0.047939      4.000000
  0.048484  0.000000  0.047939      4.000000
  0.000000  0.024242  0.047939      4.000000
  0.024242  0.024242  0.047939      4.000000
  0.048484  0.024242  0.047939      4.000000
 -0.048484  0.024242  0.047939      4.000000
 -0.024242  0.024242  0.047939      4.000000
  0.000000  0.048484  0.047939      4.000000
  0.024242  0.048484  0.047939      4.000000
  0.048484  0.048484  0.047939      4.000000
 -0.048484  0.048484  0.047939      4.000000
 -0.024242  0.048484  0.047939      4.000000
  0.000000  0.000000  0.071909      1.000000
  0.024242  0.000000  0.071909      2.000000
  0.048484  0.000000  0.071909      2.000000
  0.000000  0.024242  0.071909      2.000000
  0.024242  0.024242  0.071909      2.000000
  0.048484  0.024242  0.071909      2.000000
 -0.048484  0.024242  0.071909      2.000000
 -0.024242  0.024242  0.071909      2.000000
  0.000000  0.048484  0.071909      2.000000
  0.024242  0.048484  0.071909      2.000000
  0.048484  0.048484  0.071909      2.000000
 -0.048484  0.048484  0.071909      2.000000
 -0.024242  0.048484  0.071909      2.000000
 


--------------------------------------------------------------------------------------------------------




 Dimension of arrays:
   k-points           NKPTS =     52   k-points in BZ     NKDIM =     52   number of bands    NBANDS=    104
   number of dos      NEDOS =    301   number of ions     NIONS =     36
   non local maximal  LDIM  =      6   non local SUM 2l+1 LMDIM =     18
   total plane-waves  NPLWV = 139968
   max r-space proj   IRMAX =      1   max aug-charges    IRDMAX=  92271
   dimension x,y,z NGX =    54 NGY =   54 NGZ =   48
   dimension x,y,z NGXF=   108 NGYF=  108 NGZF=   96
   support grid    NGXF=   216 NGYF=  216 NGZF=  192
   ions per type =              18  18
   NGX,Y,Z   is equivalent  to a cutoff of  10.88, 10.88, 11.48 a.u.
   NGXF,Y,Z  is equivalent  to a cutoff of  21.76, 21.76, 22.95 a.u.

 SYSTEM =  AlMn_pv                                 
 POSCAR =  NewRef: 18, @ ['Mn', array([1.37502469, 

 Startparameter for this run:
   NWRITE =      2    write-flag & timer
   PREC   = accura    normal or accurate (medium, high low for compatibility)
   ISTART =      0    job   : 0-new  1-cont  2-samecut
   ICHARG =      2    charge: 1-file 2-atom 10-const
   ISPIN  =      2    spin polarized calculation?
   LNONCOLLINEAR =      F non collinear calculations
   LSORBIT =      F    spin-orbit coupling
   INIWAV =      1    electr: 0-lowe 1-rand  2-diag
   LASPH  =      F    aspherical Exc in radial PAW
   METAGGA=      F    non-selfconsistent MetaGGA calc.

 Electronic Relaxation 1
   ENCUT  =  404.8 eV  29.75 Ry    5.45 a.u.  13.53 13.53 11.41*2*pi/ulx,y,z
   ENINI  =  404.8     initial cutoff
   ENAUG  =  500.7 eV  augmentation charge cutoff
   NELM   =    100;   NELMIN=  4; NELMDL= -8     # of ELM steps 
   EDIFF  = 0.1E-06   stopping-criterion for ELM
   LREAL  =      F    real-space projection
   NLSPLINE    = F    spline interpolate recip. space projectors
   LCOMPAT=      F    compatible to vasp.4.4
   GGA_COMPAT  = T    GGA compatible to vasp.4.4-vasp.4.6
   LMAXPAW     = -100 max onsite density
   LMAXMIX     =    2 max onsite mixed and CHGCAR
   VOSKOWN=      0    Vosko Wilk Nusair interpolation
   ROPT   =    0.00000   0.00000
 Ionic relaxation
   EDIFFG = 0.1E-05   stopping-criterion for IOM
   NSW    =      0    number of steps for IOM
   NBLOCK =      1;   KBLOCK =      1    inner block; outer block 
   IBRION =     -1    ionic relax: 0-MD 1-quasi-New 2-CG
   NFREE  =      0    steps in history (QN), initial steepest desc. (CG)
   ISIF   =      2    stress and relaxation
   IWAVPR =     10    prediction:  0-non 1-charg 2-wave 3-comb
   ISYM   =      2    0-nonsym 1-usesym 2-fastsym
   LCORR  =      T    Harris-Foulkes like correction to forces

   POTIM  = 0.2000    time-step for ionic-motion
   TEIN   =    0.0    initial temperature
   TEBEG  =    0.0;   TEEND  =   0.0 temperature during run
   SMASS  =  -3.00    Nose mass-parameter (am)
   estimated Nose-frequenzy (Omega)   =  0.10E-29 period in steps =****** mass=  -0.156E-26a.u.
   SCALEE = 1.0000    scale energy and forces
   NPACO  =    256;   APACO  = 16.0  distance and # of slots for P.C.
   PSTRESS=    0.0 pullay stress

  Mass of Ions in am
   POMASS =  26.98 54.94
  Ionic Valenz
   ZVAL   =   3.00  7.00
  Atomic Wigner-Seitz radii
   RWIGS  =  -1.00 -1.00
  virtual crystal weights 
   VCA    =   1.00  1.00
   NELECT =     180.0000    total number of electrons
   NUPDOWN=      -1.0000    fix difference up-down

 DOS related values:
   EMIN   =  10.00;   EMAX   =-10.00  energy-range for DOS
   EFERMI =   0.00
   ISMEAR =     1;   SIGMA  =   0.20  broadening in eV -4-tet -1-fermi 0-gaus

 Electronic relaxation 2 (details)
   IALGO  =     58    algorithm
   LDIAG  =      T    sub-space diagonalisation (order eigenvalues)
   LSUBROT=      F    optimize rotation matrix (better conditioning)
   TURBO    =      0    0=normal 1=particle mesh
   IRESTART =      0    0=no restart 2=restart with 2 vectors
   NREBOOT  =      0    no. of reboots
   NMIN     =      0    reboot dimension
   EREF     =   0.00    reference energy to select bands
   IMIX   =      4    mixing-type and parameters
     AMIX     =   0.40;   BMIX     =  1.00
     AMIX_MAG =   1.60;   BMIX_MAG =  1.00
     AMIN     =   0.10
     WC   =   100.;   INIMIX=   1;  MIXPRE=   1;  MAXMIX= -45

 Intra band minimization:
   WEIMIN = 0.0000     energy-eigenvalue tresh-hold
   EBREAK =  0.24E-09  absolut break condition
   DEPER  =   0.30     relativ break condition  

   TIME   =   0.40     timestep for ELM

  volume/ion in A,a.u.               =      13.15        88.72
  Fermi-wavevector in a.u.,A,eV,Ry     =   1.186118  2.241439 19.141722  1.406877
  Thomas-Fermi vector in A             =   2.322298
 
 Write flags
   LWAVE        =      F    write WAVECAR
   LDOWNSAMPLE  =      F    k-point downsampling of WAVECAR
   LCHARG       =      F    write CHGCAR
   LVTOT        =      F    write LOCPOT, total local potential
   LVHAR        =      F    write LOCPOT, Hartree potential only
   LELF         =      F    write electronic localiz. function (ELF)
   LORBIT       =     10    0 simple, 1 ext, 2 COOP (PROOUT), +10 PAW based schemes


 Dipole corrections
   LMONO  =      F    monopole corrections only (constant potential shift)
   LDIPOL =      F    correct potential (dipole corrections)
   IDIPOL =      0    1-x, 2-y, 3-z, 4-all directions 
   EPSILON=  1.0000000 bulk dielectric constant

 Exchange correlation treatment:
   GGA     =    --    GGA type
   LEXCH   =     8    internal setting for exchange type
   VOSKOWN=      0    Vosko Wilk Nusair interpolation
   LHFCALC =     F    Hartree Fock is set to
   LHFONE  =     F    Hartree Fock one center treatment
   AEXX    =    0.0000 exact exchange contribution

 Linear response parameters
   LEPSILON=     F    determine dielectric tensor
   LRPA    =     F    only Hartree local field effects (RPA)
   LNABLA  =     F    use nabla operator in PAW spheres
   LVEL    =     F    velocity operator in full k-point grid
   LINTERFAST=   F  fast interpolation
   KINTER  =     0    interpolate to denser k-point grid
   CSHIFT  =0.1000    complex shift for real part using Kramers Kronig
   OMEGAMAX=  -1.0    maximum frequency
   DEG_THRESHOLD= 0.2000000E-02 threshold for treating states as degnerate
   RTIME   =   -0.100 relaxation time in fs
  (WPLASMAI=    0.000 imaginary part of plasma frequency in eV, 0.658/RTIME)
   DFIELD  = 0.0000000 0.0000000 0.0000000 field for delta impulse in time
 
 Orbital magnetization related:
   ORBITALMAG=     F  switch on orbital magnetization
   LCHIMAG   =     F  perturbation theory with respect to B field
   DQ        =  0.001000  dq finite difference perturbation B field
   LLRAUG    =     F  two centre corrections for induced B field



--------------------------------------------------------------------------------------------------------


 Static calculation
 charge density and potential will be updated during run
 spin polarized calculation
 Conjugate gradient for all bands (Freysoldt, et al. PRB 79, 241103 (2009))
 preconditioned conjugated gradient                                        
 perform sub-space diagonalisation
    before iterative eigenvector-optimisation
 modified Broyden-mixing scheme, WC =      100.0
 initial mixing is a Kerker type mixing with AMIX =  0.4000 and BMIX =      1.0000
 Hartree-type preconditioning will be used
 using additional bands           14
 reciprocal scheme for non local part
 use partial core corrections
 no Harris-corrections to forces 
 use gradient corrections 
 use of overlap-Matrix (Vanderbilt PP)
 Methfessel and Paxton  Order N= 1 SIGMA  =   0.20


--------------------------------------------------------------------------------------------------------


  energy-cutoff  :      404.80
  volume of cell :      473.27
      direct lattice vectors                 reciprocal lattice vectors
     8.250148166  0.000000000  0.000000000     0.121209944  0.000000000  0.000000000
     0.000000000  8.250148166  0.000000000     0.000000000  0.121209944  0.000000000
     0.000000000  0.000000000  6.953274261     0.000000000  0.000000000  0.143817137

  length of vectors
     8.250148166  8.250148166  6.953274261     0.121209944  0.121209944  0.143817137


 
 k-points in units of 2pi/SCALE and weight: automatic KPOINTS                       
   0.00000000  0.00000000  0.00000000       0.007
   0.02424199  0.00000000  0.00000000       0.013
   0.04848398  0.00000000  0.00000000       0.013
   0.00000000  0.02424199  0.00000000       0.013
   0.02424199  0.02424199  0.00000000       0.013
   0.04848398  0.02424199  0.00000000       0.013
  -0.04848398  0.02424199  0.00000000       0.013
  -0.02424199  0.02424199  0.00000000       0.013
   0.00000000  0.04848398  0.00000000       0.013
   0.02424199  0.04848398  0.00000000       0.013
   0.04848398  0.04848398  0.00000000       0.013
  -0.04848398  0.04848398  0.00000000       0.013
  -0.02424199  0.04848398  0.00000000       0.013
   0.00000000  0.00000000  0.02396952       0.013
   0.02424199  0.00000000  0.02396952       0.027
   0.04848398  0.00000000  0.02396952       0.027
   0.00000000  0.02424199  0.02396952       0.027
   0.02424199  0.02424199  0.02396952       0.027
   0.04848398  0.02424199  0.02396952       0.027
  -0.04848398  0.02424199  0.02396952       0.027
  -0.02424199  0.02424199  0.02396952       0.027
   0.00000000  0.04848398  0.02396952       0.027
   0.02424199  0.04848398  0.02396952       0.027
   0.04848398  0.04848398  0.02396952       0.027
  -0.04848398  0.04848398  0.02396952       0.027
  -0.02424199  0.04848398  0.02396952       0.027
   0.00000000  0.00000000  0.04793905       0.013
   0.02424199  0.00000000  0.04793905       0.027
   0.04848398  0.00000000  0.04793905       0.027
   0.00000000  0.02424199  0.04793905       0.027
   0.02424199  0.02424199  0.04793905       0.027
   0.04848398  0.02424199  0.04793905       0.027
  -0.04848398  0.02424199  0.04793905       0.027
  -0.02424199  0.02424199  0.04793905       0.027
   0.00000000  0.04848398  0.04793905       0.027
   0.02424199  0.04848398  0.04793905       0.027
   0.04848398  0.04848398  0.04793905       0.027
  -0.04848398  0.04848398  0.04793905       0.027
  -0.02424199  0.04848398  0.04793905       0.027
   0.00000000  0.00000000  0.07190857       0.007
   0.02424199  0.00000000  0.07190857       0.013
   0.04848398  0.00000000  0.07190857       0.013
   0.00000000  0.02424199  0.07190857       0.013
   0.02424199  0.02424199  0.07190857       0.013
   0.04848398  0.02424199  0.07190857       0.013
  -0.04848398  0.02424199  0.07190857       0.013
  -0.02424199  0.02424199  0.07190857       0.013
   0.00000000  0.04848398  0.07190857       0.013
   0.02424199  0.04848398  0.07190857       0.013
   0.04848398  0.04848398  0.07190857       0.013
  -0.04848398  0.04848398  0.07190857       0.013
  -0.02424199  0.04848398  0.07190857       0.013
 
 k-points in reciprocal lattice and weights: automatic KPOINTS                       
   0.00000000  0.00000000  0.00000000       0.007
   0.20000000  0.00000000  0.00000000       0.013
   0.40000000  0.00000000  0.00000000       0.013
   0.00000000  0.20000000  0.00000000       0.013
   0.20000000  0.20000000  0.00000000       0.013
   0.40000000  0.20000000  0.00000000       0.013
  -0.40000000  0.20000000  0.00000000       0.013
  -0.20000000  0.20000000  0.00000000       0.013
   0.00000000  0.40000000  0.00000000       0.013
   0.20000000  0.40000000  0.00000000       0.013
   0.40000000  0.40000000  0.00000000       0.013
  -0.40000000  0.40000000  0.00000000       0.013
  -0.20000000  0.40000000  0.00000000       0.013
   0.00000000  0.00000000  0.16666667       0.013
   0.20000000  0.00000000  0.16666667       0.027
   0.40000000  0.00000000  0.16666667       0.027
   0.00000000  0.20000000  0.16666667       0.027
   0.20000000  0.20000000  0.16666667       0.027
   0.40000000  0.20000000  0.16666667       0.027
  -0.40000000  0.20000000  0.16666667       0.027
  -0.20000000  0.20000000  0.16666667       0.027
   0.00000000  0.40000000  0.16666667       0.027
   0.20000000  0.40000000  0.16666667       0.027
   0.40000000  0.40000000  0.16666667       0.027
  -0.40000000  0.40000000  0.16666667       0.027
  -0.20000000  0.40000000  0.16666667       0.027
   0.00000000  0.00000000  0.33333333       0.013
   0.20000000  0.00000000  0.33333333       0.027
   0.40000000  0.00000000  0.33333333       0.027
   0.00000000  0.20000000  0.33333333       0.027
   0.20000000  0.20000000  0.33333333       0.027
   0.40000000  0.20000000  0.33333333       0.027
  -0.40000000  0.20000000  0.33333333       0.027
  -0.20000000  0.20000000  0.33333333       0.027
   0.00000000  0.40000000  0.33333333       0.027
   0.20000000  0.40000000  0.33333333       0.027
   0.40000000  0.40000000  0.33333333       0.027
  -0.40000000  0.40000000  0.33333333       0.027
  -0.20000000  0.40000000  0.33333333       0.027
   0.00000000  0.00000000  0.50000000       0.007
   0.20000000  0.00000000  0.50000000       0.013
   0.40000000  0.00000000  0.50000000       0.013
   0.00000000  0.20000000  0.50000000       0.013
   0.20000000  0.20000000  0.50000000       0.013
   0.40000000  0.20000000  0.50000000       0.013
  -0.40000000  0.20000000  0.50000000       0.013
  -0.20000000  0.20000000  0.50000000       0.013
   0.00000000  0.40000000  0.50000000       0.013
   0.20000000  0.40000000  0.50000000       0.013
   0.40000000  0.40000000  0.50000000       0.013
  -0.40000000  0.40000000  0.50000000       0.013
  -0.20000000  0.40000000  0.50000000       0.013
 
 position of ions in fractional coordinates (direct lattice) 
   0.00000000  0.00000000  0.00000000
   0.00000000  0.00000000  0.50000000
   0.00000000  0.33333333  0.00000000
   0.00000000  0.33333333  0.50000000
   0.00000000  0.66666667  0.00000000
   0.00000000  0.66666667  0.50000000
   0.33333333  0.00000000  0.00000000
   0.33333333  0.00000000  0.50000000
   0.33333333  0.33333333  0.00000000
   0.33333333  0.33333333  0.50000000
   0.33333333  0.66666667  0.00000000
   0.33333333  0.66666667  0.50000000
   0.66666667  0.00000000  0.00000000
   0.66666667  0.00000000  0.50000000
   0.66666667  0.33333333  0.00000000
   0.66666667  0.33333333  0.50000000
   0.66666667  0.66666667  0.00000000
   0.66666667  0.66666667  0.50000000
   0.16666667  0.16666667  0.25000000
   0.16666667  0.16666667  0.75000000
   0.16666667  0.50000000  0.25000000
   0.16666667  0.50000000  0.75000000
   0.16666667  0.83333333  0.25000000
   0.16666667  0.83333333  0.75000000
   0.50000000  0.16666667  0.25000000
   0.50000000  0.16666667  0.75000000
   0.50000000  0.50000000  0.25000000
   0.50000000  0.50000000  0.75000000
   0.50000000  0.83333333  0.25000000
   0.50000000  0.83333333  0.75000000
   0.83333333  0.16666667  0.25000000
   0.83333333  0.16666667  0.75000000
   0.83333333  0.50000000  0.25000000
   0.83333333  0.50000000  0.75000000
   0.83333333  0.83333333  0.25000000
   0.83333333  0.83333333  0.75000000
 
 position of ions in cartesian coordinates  (Angst):
   0.00000000  0.00000000  0.00000000
   0.00000000  0.00000000  3.47663713
   0.00000000  2.75004939  0.00000000
   0.00000000  2.75004939  3.47663713
   0.00000000  5.50009878  0.00000000
   0.00000000  5.50009878  3.47663713
   2.75004939  0.00000000  0.00000000
   2.75004939  0.00000000  3.47663713
   2.75004939  2.75004939  0.00000000
   2.75004939  2.75004939  3.47663713
   2.75004939  5.50009878  0.00000000
   2.75004939  5.50009878  3.47663713
   5.50009878  0.00000000  0.00000000
   5.50009878  0.00000000  3.47663713
   5.50009878  2.75004939  0.00000000
   5.50009878  2.75004939  3.47663713
   5.50009878  5.50009878  0.00000000
   5.50009878  5.50009878  3.47663713
   1.37502469  1.37502469  1.73831857
   1.37502469  1.37502469  5.21495570
   1.37502469  4.12507408  1.73831857
   1.37502469  4.12507408  5.21495570
   1.37502469  6.87512347  1.73831857
   1.37502469  6.87512347  5.21495570
   4.12507408  1.37502469  1.73831857
   4.12507408  1.37502469  5.21495570
   4.12507408  4.12507408  1.73831857
   4.12507408  4.12507408  5.21495570
   4.12507408  6.87512347  1.73831857
   4.12507408  6.87512347  5.21495570
   6.87512347  1.37502469  1.73831857
   6.87512347  1.37502469  5.21495570
   6.87512347  4.12507408  1.73831857
   6.87512347  4.12507408  5.21495570
   6.87512347  6.87512347  1.73831857
   6.87512347  6.87512347  5.21495570
 


--------------------------------------------------------------------------------------------------------


 k-point  1 :   0.0000 0.0000 0.0000  plane waves:    8799
 k-point  2 :   0.2000 0.0000 0.0000  plane waves:    8753
 k-point  3 :   0.4000 0.0000 0.0000  plane waves:    8757
 k-point  4 :   0.0000 0.2000 0.0000  plane waves:    8753
 k-point  5 :   0.2000 0.2000 0.0000  plane waves:    8767
 k-point  6 :   0.4000 0.2000 0.0000  plane waves:    8761
 k-point  7 :  -0.4000 0.2000 0.0000  plane waves:    8761
 k-point  8 :  -0.2000 0.2000 0.0000  plane waves:    8767
 k-point  9 :   0.0000 0.4000 0.0000  plane waves:    8757
 k-point 10 :   0.2000 0.4000 0.0000  plane waves:    8761
 k-point 11 :   0.4000 0.4000 0.0000  plane waves:    8731
 k-point 12 :  -0.4000 0.4000 0.0000  plane waves:    8731
 k-point 13 :  -0.2000 0.4000 0.0000  plane waves:    8761
 k-point 14 :   0.0000 0.0000 0.1667  plane waves:    8763
 k-point 15 :   0.2000 0.0000 0.1667  plane waves:    8771
 k-point 16 :   0.4000 0.0000 0.1667  plane waves:    8747
 k-point 17 :   0.0000 0.2000 0.1667  plane waves:    8771
 k-point 18 :   0.2000 0.2000 0.1667  plane waves:    8764
 k-point 19 :   0.4000 0.2000 0.1667  plane waves:    8768
 k-point 20 :  -0.4000 0.2000 0.1667  plane waves:    8768
 k-point 21 :  -0.2000 0.2000 0.1667  plane waves:    8764
 k-point 22 :   0.0000 0.4000 0.1667  plane waves:    8747
 k-point 23 :   0.2000 0.4000 0.1667  plane waves:    8768
 k-point 24 :   0.4000 0.4000 0.1667  plane waves:    8740
 k-point 25 :  -0.4000 0.4000 0.1667  plane waves:    8740
 k-point 26 :  -0.2000 0.4000 0.1667  plane waves:    8768
 k-point 27 :   0.0000 0.0000 0.3333  plane waves:    8743
 k-point 28 :   0.2000 0.0000 0.3333  plane waves:    8736
 k-point 29 :   0.4000 0.0000 0.3333  plane waves:    8753
 k-point 30 :   0.0000 0.2000 0.3333  plane waves:    8736
 k-point 31 :   0.2000 0.2000 0.3333  plane waves:    8753
 k-point 32 :   0.4000 0.2000 0.3333  plane waves:    8743
 k-point 33 :  -0.4000 0.2000 0.3333  plane waves:    8743
 k-point 34 :  -0.2000 0.2000 0.3333  plane waves:    8753
 k-point 35 :   0.0000 0.4000 0.3333  plane waves:    8753
 k-point 36 :   0.2000 0.4000 0.3333  plane waves:    8743
 k-point 37 :   0.4000 0.4000 0.3333  plane waves:    8755
 k-point 38 :  -0.4000 0.4000 0.3333  plane waves:    8755
 k-point 39 :  -0.2000 0.4000 0.3333  plane waves:    8743
 k-point 40 :   0.0000 0.0000 0.5000  plane waves:    8742
 k-point 41 :   0.2000 0.0000 0.5000  plane waves:    8756
 k-point 42 :   0.4000 0.0000 0.5000  plane waves:    8744
 k-point 43 :   0.0000 0.2000 0.5000  plane waves:    8756
 k-point 44 :   0.2000 0.2000 0.5000  plane waves:    8762
 k-point 45 :   0.4000 0.2000 0.5000  plane waves:    8732
 k-point 46 :  -0.4000 0.2000 0.5000  plane waves:    8732
 k-point 47 :  -0.2000 0.2000 0.5000  plane waves:    8762
 k-point 48 :   0.0000 0.4000 0.5000  plane waves:    8744
 k-point 49 :   0.2000 0.4000 0.5000  plane waves:    8732
 k-point 50 :   0.4000 0.4000 0.5000  plane waves:    8736
 k-point 51 :  -0.4000 0.4000 0.5000  plane waves:    8736
 k-point 52 :  -0.2000 0.4000 0.5000  plane waves:    8732

 maximum and minimum number of plane-waves per node :      2210     2164

 maximum number of plane-waves:      8799
 maximum index in each direction: 
   IXMAX=   13   IYMAX=   13   IZMAX=   11
   IXMIN=  -13   IYMIN=  -13   IZMIN=  -11


 parallel 3D FFT for wavefunctions:
    minimum data exchange during FFTs selected (reduces bandwidth)
 parallel 3D FFT for charge:
    minimum data exchange during FFTs selected (reduces bandwidth)


 total amount of memory used by VASP MPI-rank0   705355. kBytes
=======================================================================

   base      :      30000. kBytes
   nonl-proj :      34307. kBytes
   fftplans  :      21726. kBytes
   grid      :      14732. kBytes
   one-center:        279. kBytes
   wavefun   :     604311. kBytes
 
     INWAV:  cpu time    0.0001: real time    0.0001
 Broyden mixing: mesh for mixing (old mesh)
   NGX = 27   NGY = 27   NGZ = 23
  (NGX  =108   NGY  =108   NGZ  = 96)
  gives a total of  16767 points

 initial charge density was supplied:
 charge density of overlapping atoms calculated
 number of electron     180.0000000 magnetization     -12.0000000
 keeping initial charge density in first step


--------------------------------------------------------------------------------------------------------


 Maximum index for augmentation-charges        11261 (set IRDMAX)


--------------------------------------------------------------------------------------------------------


 First call to EWALD:  gamma=   0.227
 Maximum number of real-space cells 3x 3x 3
 Maximum number of reciprocal cells 3x 3x 3

    FEWALD:  cpu time    0.0062: real time    0.0062


--------------------------------------- Iteration      1(   1)  ---------------------------------------


    POTLOK:  cpu time    0.2508: real time    0.2513
    SETDIJ:  cpu time    0.3188: real time    0.3208
    TRIAL :  cpu time   17.1221: real time   17.1952
    CORREC:  cpu time    0.0059: real time    0.0060
    --------------------------------------------
      LOOP:  cpu time   17.9004: real time   17.9852

 eigenvalue-minimisations  : 21632
 total energy-change (2. order) : 0.1369604E+04  (-0.5769338E+04)
 number of electron     180.0000000 magnetization     -12.0000000
 augmentation part      180.0000000 magnetization     -12.0000000

 Free energy of the ion-electron system (eV)
  ---------------------------------------------------
  alpha Z        PSCENC =       532.25742704
  Ewald energy   TEWEN  =     -8601.05107233
  -Hartree energ DENC   =     -1903.73857242
  -exchange      EXHF   =         0.00000000
  -V(xc)+E(xc)   XCENC  =      -664.82885298
  PAW double counting   =      8494.55058411    -7650.81563588
  entropy T*S    EENTRO =        -0.00058518
  eigenvalues    EBANDS =      2698.11479516
  atomic energy  EATOM  =      8465.11600846
  ---------------------------------------------------
  free energy    TOTEN  =      1369.60409598 eV

  energy without entropy =     1369.60468116  energy(sigma->0) =     1369.60429104


--------------------------------------------------------------------------------------------------------




--------------------------------------- Iteration      1(   2)  ---------------------------------------


    TRIAL :  cpu time   17.6034: real time   17.7291
    CORREC:  cpu time    0.0073: real time    0.0082
    --------------------------------------------
      LOOP:  cpu time   17.6120: real time   17.7402

 eigenvalue-minimisations  : 21632
 total energy-change (2. order) :-0.1405519E+04  (-0.1385845E+04)
 number of electron     180.0000000 magnetization     -12.0000000
 augmentation part      180.0000000 magnetization     -12.0000000

 Free energy of the ion-electron system (eV)
  ---------------------------------------------------
  alpha Z        PSCENC =       532.25742704
  Ewald energy   TEWEN  =     -8601.05107233
  -Hartree energ DENC   =     -1903.73857242
  -exchange      EXHF   =         0.00000000
  -V(xc)+E(xc)   XCENC  =      -664.82885298
  PAW double counting   =      8494.55058411    -7650.81563588
  entropy T*S    EENTRO =         0.00373498
  eigenvalues    EBANDS =      1292.59160173
  atomic energy  EATOM  =      8465.11600846
  ---------------------------------------------------
  free energy    TOTEN  =       -35.91477729 eV

  energy without entropy =      -35.91851227  energy(sigma->0) =      -35.91602228


--------------------------------------------------------------------------------------------------------




--------------------------------------- Iteration      1(   3)  ---------------------------------------


    TRIAL :  cpu time   24.0115: real time   24.9715
    CORREC:  cpu time    0.0090: real time    0.0091
    --------------------------------------------
      LOOP:  cpu time   24.0221: real time   24.9842

 eigenvalue-minimisations  : 33760
 total energy-change (2. order) :-0.1968358E+03  (-0.1834351E+03)
 number of electron     180.0000000 magnetization     -12.0000000
 augmentation part      180.0000000 magnetization     -12.0000000

 Free energy of the ion-electron system (eV)
  ---------------------------------------------------
  alpha Z        PSCENC =       532.25742704
  Ewald energy   TEWEN  =     -8601.05107233
  -Hartree energ DENC   =     -1903.73857242
  -exchange      EXHF   =         0.00000000
  -V(xc)+E(xc)   XCENC  =      -664.82885298
  PAW double counting   =      8494.55058411    -7650.81563588
  entropy T*S    EENTRO =        -0.00339214
  eigenvalues    EBANDS =      1095.76295647
  atomic energy  EATOM  =      8465.11600846
  ---------------------------------------------------
  free energy    TOTEN  =      -232.75054966 eV

  energy without entropy =     -232.74715753  energy(sigma->0) =     -232.74941895


--------------------------------------------------------------------------------------------------------




--------------------------------------- Iteration      1(   4)  ---------------------------------------


    TRIAL :  cpu time   25.2939: real time   25.4750
    CORREC:  cpu time    0.0094: real time    0.0103
    --------------------------------------------
      LOOP:  cpu time   25.3048: real time   25.4886

 eigenvalue-minimisations  : 35832
 total energy-change (2. order) :-0.3214894E+02  (-0.2963334E+02)
 number of electron     180.0000000 magnetization     -12.0000000
 augmentation part      180.0000000 magnetization     -12.0000000

 Free energy of the ion-electron system (eV)
  ---------------------------------------------------
  alpha Z        PSCENC =       532.25742704
  Ewald energy   TEWEN  =     -8601.05107233
  -Hartree energ DENC   =     -1903.73857242
  -exchange      EXHF   =         0.00000000
  -V(xc)+E(xc)   XCENC  =      -664.82885298
  PAW double counting   =      8494.55058411    -7650.81563588
  entropy T*S    EENTRO =        -0.01025990
  eigenvalues    EBANDS =      1063.62088341
  atomic energy  EATOM  =      8465.11600846
  ---------------------------------------------------
  free energy    TOTEN  =      -264.89949049 eV

  energy without entropy =     -264.88923060  energy(sigma->0) =     -264.89607053


--------------------------------------------------------------------------------------------------------




--------------------------------------- Iteration      1(   5)  ---------------------------------------


    TRIAL :  cpu time   25.9282: real time   26.7386
    CORREC:  cpu time    0.0095: real time    0.0097
    --------------------------------------------
      LOOP:  cpu time   25.9387: real time   26.7516

 eigenvalue-minimisations  : 36880
 total energy-change (2. order) :-0.4274245E+01  (-0.4066623E+01)
 number of electron     180.0000000 magnetization     -12.0000000
 augmentation part      180.0000000 magnetization     -12.0000000

 Free energy of the ion-electron system (eV)
  ---------------------------------------------------
  alpha Z        PSCENC =       532.25742704
  Ewald energy   TEWEN  =     -8601.05107233
  -Hartree energ DENC   =     -1903.73857242
  -exchange      EXHF   =         0.00000000
  -V(xc)+E(xc)   XCENC  =      -664.82885298
  PAW double counting   =      8494.55058411    -7650.81563588
  entropy T*S    EENTRO =        -0.01121431
  eigenvalues    EBANDS =      1059.34759320
  atomic energy  EATOM  =      8465.11600846
  ---------------------------------------------------
  free energy    TOTEN  =      -269.17373512 eV

  energy without entropy =     -269.16252080  energy(sigma->0) =     -269.16999701


--------------------------------------------------------------------------------------------------------




--------------------------------------- Iteration      1(   6)  ---------------------------------------


    TRIAL :  cpu time   25.7546: real time   25.9325
    CORREC:  cpu time    0.0097: real time    0.0106
    --------------------------------------------
      LOOP:  cpu time   25.7658: real time   25.9467

 eigenvalue-minimisations  : 36552
 total energy-change (2. order) :-0.5953429E+00  (-0.5679958E+00)
 number of electron     180.0000000 magnetization     -12.0000000
 augmentation part      180.0000000 magnetization     -12.0000000

 Free energy of the ion-electron system (eV)
  ---------------------------------------------------
  alpha Z        PSCENC =       532.25742704
  Ewald energy   TEWEN  =     -8601.05107233
  -Hartree energ DENC   =     -1903.73857242
  -exchange      EXHF   =         0.00000000
  -V(xc)+E(xc)   XCENC  =      -664.82885298
  PAW double counting   =      8494.55058411    -7650.81563588
  entropy T*S    EENTRO =        -0.01048656
  eigenvalues    EBANDS =      1058.75152251
  atomic energy  EATOM  =      8465.11600846
  ---------------------------------------------------
  free energy    TOTEN  =      -269.76907805 eV

  energy without entropy =     -269.75859149  energy(sigma->0) =     -269.76558253


--------------------------------------------------------------------------------------------------------




--------------------------------------- Iteration      1(   7)  ---------------------------------------


    TRIAL :  cpu time   26.2478: real time   27.0780
    CORREC:  cpu time    0.0098: real time    0.0099
    --------------------------------------------
      LOOP:  cpu time   26.2606: real time   27.0911

 eigenvalue-minimisations  : 37352
 total energy-change (2. order) :-0.1255487E+00  (-0.1201646E+00)
 number of electron     180.0000000 magnetization     -12.0000000
 augmentation part      180.0000000 magnetization     -12.0000000

 Free energy of the ion-electron system (eV)
  ---------------------------------------------------
  alpha Z        PSCENC =       532.25742704
  Ewald energy   TEWEN  =     -8601.05107233
  -Hartree energ DENC   =     -1903.73857242
  -exchange      EXHF   =         0.00000000
  -V(xc)+E(xc)   XCENC  =      -664.82885298
  PAW double counting   =      8494.55058411    -7650.81563588
  entropy T*S    EENTRO =        -0.01005357
  eigenvalues    EBANDS =      1058.62554078
  atomic energy  EATOM  =      8465.11600846
  ---------------------------------------------------
  free energy    TOTEN  =      -269.89462679 eV

  energy without entropy =     -269.88457322  energy(sigma->0) =     -269.89127560


--------------------------------------------------------------------------------------------------------




--------------------------------------- Iteration      1(   8)  ---------------------------------------


    TRIAL :  cpu time   25.3264: real time   25.5718
    CORREC:  cpu time    0.0094: real time    0.0103
    CHARGE:  cpu time    1.0445: real time    1.0449
    --------------------------------------------
      LOOP:  cpu time   26.3816: real time   26.6305

 eigenvalue-minimisations  : 35928
 total energy-change (2. order) :-0.3305319E-01  (-0.3167210E-01)
 number of electron     179.9999997 magnetization      -8.2769063
 augmentation part       42.4414302 magnetization      -4.8360869

 Free energy of the ion-electron system (eV)
  ---------------------------------------------------
  alpha Z        PSCENC =       532.25742704
  Ewald energy   TEWEN  =     -8601.05107233
  -Hartree energ DENC   =     -1903.73857242
  -exchange      EXHF   =         0.00000000
  -V(xc)+E(xc)   XCENC  =      -664.82885298
  PAW double counting   =      8494.55058411    -7650.81563588
  entropy T*S    EENTRO =        -0.00965187
  eigenvalues    EBANDS =      1058.59208589
  atomic energy  EATOM  =      8465.11600846
  ---------------------------------------------------
  free energy    TOTEN  =      -269.92767998 eV

  energy without entropy =     -269.91802811  energy(sigma->0) =     -269.92446269


--------------------------------------------------------------------------------------------------------




--------------------------------------- Iteration      1(   9)  ---------------------------------------


    POTLOK:  cpu time    0.2519: real time    0.2520
    SETDIJ:  cpu time    0.3225: real time    0.3266
    TRIAL :  cpu time    8.3823: real time    8.4644
    CORREC:  cpu time    3.1771: real time    3.1941
    CHARGE:  cpu time    1.0805: real time    1.0814
    --------------------------------------------
      LOOP:  cpu time   13.2163: real time   13.3215

 eigenvalue-minimisations  :     0
 total energy-change (2. order) : 0.2123807E+03  (-0.1461604E+03)
 number of electron     179.9999997 magnetization      -8.8174499
 augmentation part       53.6641780 magnetization      -5.6927461

 Free energy of the ion-electron system (eV)
  ---------------------------------------------------
  alpha Z        PSCENC =       532.25742704
  Ewald energy   TEWEN  =     -8601.05107233
  -Hartree energ DENC   =      -837.67914899
  -exchange      EXHF   =         0.00000000
  -V(xc)+E(xc)   XCENC  =      -695.10149949
  PAW double counting   =     12731.58242582   -11784.02414859
  entropy T*S    EENTRO =        -0.02528521
  eigenvalues    EBANDS =       131.36266025
  atomic energy  EATOM  =      8465.11600846
  ---------------------------------------------------
  free energy    TOTEN  =       -57.54699969 eV

  energy without entropy =      -57.52171448  energy(sigma->0) =      -57.53857129


--------------------------------------------------------------------------------------------------------




--------------------------------------- Iteration      1(  10)  ---------------------------------------


    POTLOK:  cpu time    0.2474: real time    0.2474
    SETDIJ:  cpu time    0.3238: real time    0.3239
    TRIAL :  cpu time    9.1172: real time    9.1307
    CORREC:  cpu time    3.1907: real time    3.2072
    CHARGE:  cpu time    1.0388: real time    1.0394
    --------------------------------------------
      LOOP:  cpu time   13.9273: real time   13.9586

 eigenvalue-minimisations  :     0
 total energy-change (2. order) :-0.1462086E+03  (-0.1240439E+02)
 number of electron     179.9999996 magnetization      -8.8427619
 augmentation part       57.3356132 magnetization      -5.9419713

 Free energy of the ion-electron system (eV)
  ---------------------------------------------------
  alpha Z        PSCENC =       532.25742704
  Ewald energy   TEWEN  =     -8601.05107233
  -Hartree energ DENC   =     -1335.86676772
  -exchange      EXHF   =         0.00000000
  -V(xc)+E(xc)   XCENC  =      -678.38927825
  PAW double counting   =     13464.77010458   -12626.18124221
  entropy T*S    EENTRO =        -0.02530978
  eigenvalues    EBANDS =       575.61453716
  atomic energy  EATOM  =      8465.11600846
  ---------------------------------------------------
  free energy    TOTEN  =      -203.75556849 eV

  energy without entropy =     -203.73025870  energy(sigma->0) =     -203.74713189


--------------------------------------------------------------------------------------------------------




--------------------------------------- Iteration      1(  11)  ---------------------------------------


    POTLOK:  cpu time    0.2482: real time    0.2484
    SETDIJ:  cpu time    0.3224: real time    0.3227
    TRIAL :  cpu time    8.3381: real time    9.1410
    CORREC:  cpu time    3.1601: real time    3.1769
    CHARGE:  cpu time    1.0432: real time    1.0442
    --------------------------------------------
      LOOP:  cpu time   13.1147: real time   13.9378

 eigenvalue-minimisations  :     0
 total energy-change (2. order) :-0.1240578E+02  (-0.8083367E+01)
 number of electron     179.9999996 magnetization      -9.1489903
 augmentation part       59.0054376 magnetization      -6.3012274

 Free energy of the ion-electron system (eV)
  ---------------------------------------------------
  alpha Z        PSCENC =       532.25742704
  Ewald energy   TEWEN  =     -8601.05107233
  -Hartree energ DENC   =     -1537.77894174
  -exchange      EXHF   =         0.00000000
  -V(xc)+E(xc)   XCENC  =      -671.05089419
  PAW double counting   =     14338.49883410   -13538.63727391
  entropy T*S    EENTRO =        -0.00522233
  eigenvalues    EBANDS =       796.50987235
  atomic energy  EATOM  =      8465.11600846
  ---------------------------------------------------
  free energy    TOTEN  =      -216.16135001 eV

  energy without entropy =     -216.15612768  energy(sigma->0) =     -216.15960923


--------------------------------------------------------------------------------------------------------




--------------------------------------- Iteration      1(  12)  ---------------------------------------


    POTLOK:  cpu time    0.2466: real time    0.2469
    SETDIJ:  cpu time    0.3231: real time    0.3235
    TRIAL :  cpu time    8.3748: real time    8.4658
    CORREC:  cpu time    3.1447: real time    3.2004
    CHARGE:  cpu time    1.0248: real time    1.0253
    --------------------------------------------
      LOOP:  cpu time   13.1164: real time   13.2653

 eigenvalue-minimisations  :     0
 total energy-change (2. order) :-0.8074694E+01  (-0.7923021E+01)
 number of electron     179.9999996 magnetization      -9.1963175
 augmentation part       58.4313555 magnetization      -6.3997314

 Free energy of the ion-electron system (eV)
  ---------------------------------------------------
  alpha Z        PSCENC =       532.25742704
  Ewald energy   TEWEN  =     -8601.05107233
  -Hartree energ DENC   =     -1678.11335110
  -exchange      EXHF   =         0.00000000
  -V(xc)+E(xc)   XCENC  =      -666.40646568
  PAW double counting   =     14486.03963820   -13693.04040519
  entropy T*S    EENTRO =         0.00481121
  eigenvalues    EBANDS =       930.96739905
  atomic energy  EATOM  =      8465.11600846
  ---------------------------------------------------
  free energy    TOTEN  =      -224.23604388 eV

  energy without entropy =     -224.24085508  energy(sigma->0) =     -224.23764761


--------------------------------------------------------------------------------------------------------




--------------------------------------- Iteration      1(  13)  ---------------------------------------


    POTLOK:  cpu time    0.2469: real time    0.2732
    SETDIJ:  cpu time    0.3222: real time    0.3289
    TRIAL :  cpu time    8.2460: real time    8.3959
    CORREC:  cpu time    3.1521: real time    3.2562
    CHARGE:  cpu time    1.0111: real time    1.0728
    --------------------------------------------
      LOOP:  cpu time   12.9826: real time   13.3325

 eigenvalue-minimisations  :     0
 total energy-change (2. order) :-0.7745983E+01  (-0.1266786E+01)
 number of electron     179.9999996 magnetization      -9.2194005
 augmentation part       57.4471499 magnetization      -6.3457148

 Free energy of the ion-electron system (eV)
  ---------------------------------------------------
  alpha Z        PSCENC =       532.25742704
  Ewald energy   TEWEN  =     -8601.05107233
  -Hartree energ DENC   =     -1707.42430926
  -exchange      EXHF   =         0.00000000
  -V(xc)+E(xc)   XCENC  =      -665.79804239
  PAW double counting   =     14263.36921675   -13447.07714516
  entropy T*S    EENTRO =         0.00885144
  eigenvalues    EBANDS =       928.62107914
  atomic energy  EATOM  =      8465.11600846
  ---------------------------------------------------
  free energy    TOTEN  =      -231.98202655 eV

  energy without entropy =     -231.99087799  energy(sigma->0) =     -231.98497703


--------------------------------------------------------------------------------------------------------




--------------------------------------- Iteration      1(  14)  ---------------------------------------


    POTLOK:  cpu time    0.2466: real time    0.2952
    SETDIJ:  cpu time    0.3192: real time    0.3194
    TRIAL :  cpu time    8.2437: real time    8.3686
    CORREC:  cpu time    3.1450: real time    3.1924
    CHARGE:  cpu time    1.8712: real time    1.8934
    --------------------------------------------
      LOOP:  cpu time   13.8270: real time   14.0710

 eigenvalue-minimisations  :     0
 total energy-change (2. order) :-0.1245900E+01  (-0.7174365E+00)
 number of electron     179.9999996 magnetization      -9.1987157
 augmentation part       57.1527195 magnetization      -6.2803865

 Free energy of the ion-electron system (eV)
  ---------------------------------------------------
  alpha Z        PSCENC =       532.25742704
  Ewald energy   TEWEN  =     -8601.05107233
  -Hartree energ DENC   =     -1660.40759905
  -exchange      EXHF   =         0.00000000
  -V(xc)+E(xc)   XCENC  =      -667.62317900
  PAW double counting   =     13965.07802394   -13133.81147639
  entropy T*S    EENTRO =         0.01169151
  eigenvalues    EBANDS =       867.20508981
  atomic energy  EATOM  =      8465.11600846
  ---------------------------------------------------
  free energy    TOTEN  =      -233.22792609 eV

  energy without entropy =     -233.23961759  energy(sigma->0) =     -233.23182326


--------------------------------------------------------------------------------------------------------




--------------------------------------- Iteration      1(  15)  ---------------------------------------


    POTLOK:  cpu time    0.2470: real time    0.2470
    SETDIJ:  cpu time    0.3796: real time    0.3798
    TRIAL :  cpu time    8.2291: real time    9.0743
    CORREC:  cpu time    3.1709: real time    3.2327
    CHARGE:  cpu time    1.0148: real time    1.0265
    --------------------------------------------
      LOOP:  cpu time   13.0444: real time   13.9649

 eigenvalue-minimisations  :     0
 total energy-change (2. order) :-0.7137435E+00  (-0.7578892E+00)
 number of electron     179.9999996 magnetization      -9.2002198
 augmentation part       57.5926699 magnetization      -6.2476535

 Free energy of the ion-electron system (eV)
  ---------------------------------------------------
  alpha Z        PSCENC =       532.25742704
  Ewald energy   TEWEN  =     -8601.05107233
  -Hartree energ DENC   =     -1639.09349180
  -exchange      EXHF   =         0.00000000
  -V(xc)+E(xc)   XCENC  =      -668.43168934
  PAW double counting   =     13534.31481333   -12696.84686546
  entropy T*S    EENTRO =         0.01733284
  eigenvalues    EBANDS =       839.78150903
  atomic energy  EATOM  =      8465.11600846
  ---------------------------------------------------
  free energy    TOTEN  =      -233.94166957 eV

  energy without entropy =     -233.95900240  energy(sigma->0) =     -233.94744718


--------------------------------------------------------------------------------------------------------




--------------------------------------- Iteration      1(  16)  ---------------------------------------


    POTLOK:  cpu time    0.2469: real time    0.2472
    SETDIJ:  cpu time    0.2961: real time    0.3408
    TRIAL :  cpu time    8.2666: real time    8.5319
    CORREC:  cpu time    3.0943: real time    3.1720
    CHARGE:  cpu time    1.0183: real time    1.0412
    --------------------------------------------
      LOOP:  cpu time   12.9321: real time   13.3440

 eigenvalue-minimisations  :     0
 total energy-change (2. order) :-0.7545538E+00  (-0.2224429E+00)
 number of electron     179.9999996 magnetization      -9.2223986
 augmentation part       58.0228193 magnetization      -6.2888430

 Free energy of the ion-electron system (eV)
  ---------------------------------------------------
  alpha Z        PSCENC =       532.25742704
  Ewald energy   TEWEN  =     -8601.05107233
  -Hartree energ DENC   =     -1651.36048877
  -exchange      EXHF   =         0.00000000
  -V(xc)+E(xc)   XCENC  =      -667.99931266
  PAW double counting   =     13094.83484139   -12259.21548170
  entropy T*S    EENTRO =         0.01913271
  eigenvalues    EBANDS =       852.70452241
  atomic energy  EATOM  =      8465.11600846
  ---------------------------------------------------
  free energy    TOTEN  =      -234.69622333 eV

  energy without entropy =     -234.71535604  energy(sigma->0) =     -234.70260090


--------------------------------------------------------------------------------------------------------




--------------------------------------- Iteration      1(  17)  ---------------------------------------


    POTLOK:  cpu time    0.2469: real time    0.2470
    SETDIJ:  cpu time    0.3209: real time    0.3212
    TRIAL :  cpu time    8.3167: real time    8.4902
    CORREC:  cpu time    3.1338: real time    3.1934
    CHARGE:  cpu time    1.0274: real time    1.0279
    --------------------------------------------
      LOOP:  cpu time   13.0486: real time   13.2837

 eigenvalue-minimisations  :     0
 total energy-change (2. order) :-0.2220794E+00  (-0.2296083E+00)
 number of electron     179.9999996 magnetization      -9.2709002
 augmentation part       58.2806516 magnetization      -6.3889017

 Free energy of the ion-electron system (eV)
  ---------------------------------------------------
  alpha Z        PSCENC =       532.25742704
  Ewald energy   TEWEN  =     -8601.05107233
  -Hartree energ DENC   =     -1669.98043667
  -exchange      EXHF   =         0.00000000
  -V(xc)+E(xc)   XCENC  =      -667.24955065
  PAW double counting   =     13008.11448517   -12176.74850157
  entropy T*S    EENTRO =         0.02255555
  eigenvalues    EBANDS =       874.60420507
  atomic energy  EATOM  =      8465.11600846
  ---------------------------------------------------
  free energy    TOTEN  =      -234.91830278 eV

  energy without entropy =     -234.94085832  energy(sigma->0) =     -234.92582129


--------------------------------------------------------------------------------------------------------




--------------------------------------- Iteration      1(  18)  ---------------------------------------


    POTLOK:  cpu time    0.2450: real time    0.2702
    SETDIJ:  cpu time    0.3140: real time    0.3143
    TRIAL :  cpu time    8.2397: real time    8.4631
    CORREC:  cpu time    3.1451: real time    3.1754
    CHARGE:  cpu time    1.0079: real time    1.0429
    --------------------------------------------
      LOOP:  cpu time   12.9674: real time   13.2816

 eigenvalue-minimisations  :     0
 total energy-change (2. order) :-0.2295550E+00  (-0.1947719E+00)
 number of electron     179.9999996 magnetization      -9.3221800
 augmentation part       58.0685904 magnetization      -6.4851172

 Free energy of the ion-electron system (eV)
  ---------------------------------------------------
  alpha Z        PSCENC =       532.25742704
  Ewald energy   TEWEN  =     -8601.05107233
  -Hartree energ DENC   =     -1679.48304233
  -exchange      EXHF   =         0.00000000
  -V(xc)+E(xc)   XCENC  =      -666.69929944
  PAW double counting   =     12950.59352590   -12122.12041926
  entropy T*S    EENTRO =         0.02490847
  eigenvalues    EBANDS =       886.21645859
  atomic energy  EATOM  =      8465.11600846
  ---------------------------------------------------
  free energy    TOTEN  =      -235.14785782 eV

  energy without entropy =     -235.17276629  energy(sigma->0) =     -235.15616064


--------------------------------------------------------------------------------------------------------




--------------------------------------- Iteration      1(  19)  ---------------------------------------


    POTLOK:  cpu time    0.2473: real time    0.2473
    SETDIJ:  cpu time    0.3198: real time    0.3199
    TRIAL :  cpu time    9.0489: real time    9.1271
    CORREC:  cpu time    3.1633: real time    3.1767
    CHARGE:  cpu time    1.1178: real time    1.7863
    --------------------------------------------
      LOOP:  cpu time   13.9021: real time   14.6633

 eigenvalue-minimisations  :     0
 total energy-change (2. order) :-0.1942468E+00  (-0.7229717E-01)
 number of electron     179.9999996 magnetization      -9.3724585
 augmentation part       57.8483067 magnetization      -6.5268165

 Free energy of the ion-electron system (eV)
  ---------------------------------------------------
  alpha Z        PSCENC =       532.25742704
  Ewald energy   TEWEN  =     -8601.05107233
  -Hartree energ DENC   =     -1665.89581471
  -exchange      EXHF   =         0.00000000
  -V(xc)+E(xc)   XCENC  =      -666.96744527
  PAW double counting   =     12906.07586727   -12075.51004758
  entropy T*S    EENTRO =         0.02559619
  eigenvalues    EBANDS =       870.60806403
  atomic energy  EATOM  =      8465.11600846
  ---------------------------------------------------
  free energy    TOTEN  =      -235.34210463 eV

  energy without entropy =     -235.36770082  energy(sigma->0) =     -235.35063669


--------------------------------------------------------------------------------------------------------




--------------------------------------- Iteration      1(  20)  ---------------------------------------


    POTLOK:  cpu time    0.2472: real time    0.2474
    SETDIJ:  cpu time    0.3554: real time    0.3554
    TRIAL :  cpu time    8.3119: real time    8.4177
    CORREC:  cpu time    3.2151: real time    3.2247
    CHARGE:  cpu time    1.0373: real time    1.0453
    --------------------------------------------
      LOOP:  cpu time   13.1691: real time   13.2949

 eigenvalue-minimisations  :     0
 total energy-change (2. order) :-0.7213628E-01  (-0.1088371E+00)
 number of electron     179.9999996 magnetization      -9.4638280
 augmentation part       57.7135186 magnetization      -6.6139396

 Free energy of the ion-electron system (eV)
  ---------------------------------------------------
  alpha Z        PSCENC =       532.25742704
  Ewald energy   TEWEN  =     -8601.05107233
  -Hartree energ DENC   =     -1655.07039386
  -exchange      EXHF   =         0.00000000
  -V(xc)+E(xc)   XCENC  =      -667.27057588
  PAW double counting   =     12891.82647630   -12059.04752353
  entropy T*S    EENTRO =         0.02849030
  eigenvalues    EBANDS =       857.79981671
  atomic energy  EATOM  =      8465.11600846
  ---------------------------------------------------
  free energy    TOTEN  =      -235.41424091 eV

  energy without entropy =     -235.44273121  energy(sigma->0) =     -235.42373768


--------------------------------------------------------------------------------------------------------




--------------------------------------- Iteration      1(  21)  ---------------------------------------


    POTLOK:  cpu time    0.2502: real time    0.2978
    SETDIJ:  cpu time    0.3164: real time    0.3164
    TRIAL :  cpu time    8.3795: real time    8.4166
    CORREC:  cpu time    3.2322: real time    3.2411
    CHARGE:  cpu time    1.0384: real time    1.0390
    --------------------------------------------
      LOOP:  cpu time   13.2184: real time   13.3134

 eigenvalue-minimisations  :     0
 total energy-change (2. order) :-0.1088636E+00  (-0.9161025E-01)
 number of electron     179.9999996 magnetization      -9.5593191
 augmentation part       57.8362218 magnetization      -6.7151841

 Free energy of the ion-electron system (eV)
  ---------------------------------------------------
  alpha Z        PSCENC =       532.25742704
  Ewald energy   TEWEN  =     -8601.05107233
  -Hartree energ DENC   =     -1651.54017201
  -exchange      EXHF   =         0.00000000
  -V(xc)+E(xc)   XCENC  =      -667.26338705
  PAW double counting   =     12904.03150346   -12070.24897146
  entropy T*S    EENTRO =         0.02987585
  eigenvalues    EBANDS =       853.14706910
  atomic energy  EATOM  =      8465.11600846
  ---------------------------------------------------
  free energy    TOTEN  =      -235.52310449 eV

  energy without entropy =     -235.55298034  energy(sigma->0) =     -235.53306311


--------------------------------------------------------------------------------------------------------




--------------------------------------- Iteration      1(  22)  ---------------------------------------


    POTLOK:  cpu time    0.2501: real time    0.2605
    SETDIJ:  cpu time    0.3395: real time    0.3809
    TRIAL :  cpu time    8.3571: real time    8.4063
    CORREC:  cpu time    3.1939: real time    3.2705
    CHARGE:  cpu time    1.0262: real time    1.0499
    --------------------------------------------
      LOOP:  cpu time   13.1683: real time   13.3702

 eigenvalue-minimisations  :     0
 total energy-change (2. order) :-0.9144644E-01  (-0.4284097E-01)
 number of electron     179.9999996 magnetization      -9.6309777
 augmentation part       57.9834392 magnetization      -6.7796171

 Free energy of the ion-electron system (eV)
  ---------------------------------------------------
  alpha Z        PSCENC =       532.25742704
  Ewald energy   TEWEN  =     -8601.05107233
  -Hartree energ DENC   =     -1661.43493269
  -exchange      EXHF   =         0.00000000
  -V(xc)+E(xc)   XCENC  =      -666.79907217
  PAW double counting   =     12944.40241442   -12112.42002622
  entropy T*S    EENTRO =         0.03136807
  eigenvalues    EBANDS =       864.28482671
  atomic energy  EATOM  =      8465.11600846
  ---------------------------------------------------
  free energy    TOTEN  =      -235.61455093 eV

  energy without entropy =     -235.64591900  energy(sigma->0) =     -235.62500696


--------------------------------------------------------------------------------------------------------




--------------------------------------- Iteration      1(  23)  ---------------------------------------


    POTLOK:  cpu time    0.2472: real time    0.2472
    SETDIJ:  cpu time    0.3258: real time    0.3258
    TRIAL :  cpu time    8.4250: real time    8.4362
    CORREC:  cpu time    3.9385: real time    3.9402
    CHARGE:  cpu time    1.0444: real time    1.0444
    --------------------------------------------
[...]
  8.437  14.379  -0.000   0.000  -0.000  -0.000   0.001  -0.001
 14.379  24.503  -0.000   0.001  -0.001  -0.000   0.002  -0.002
 -0.000  -0.000   1.995  -0.000   0.000   5.747  -0.000   0.000
  0.000   0.001  -0.000   1.995   0.000  -0.000   5.745   0.000
 -0.000  -0.001   0.000   0.000   1.995   0.000   0.000   5.747
 -0.000  -0.000   5.747  -0.000   0.000  16.470  -0.001   0.000
  0.001   0.002  -0.000   5.745   0.000  -0.001  16.465   0.000
 -0.001  -0.002   0.000   0.000   5.747   0.000   0.000  16.469
 total augmentation occupancy for first ion, spin component:           1
  4.365  -1.245  -0.000  -0.001  -0.002  -0.000   0.000  -0.000
 -1.245   0.374  -0.002  -0.002   0.003   0.000   0.000  -0.000
 -0.000  -0.002   1.418   0.007  -0.000  -0.101  -0.000  -0.000
 -0.001  -0.002   0.007   1.490  -0.003  -0.000  -0.101   0.000
 -0.002   0.003  -0.000  -0.003   1.409  -0.000   0.000  -0.100
 -0.000   0.000  -0.101  -0.000  -0.000   0.008   0.000   0.000
  0.000   0.000  -0.000  -0.101   0.000   0.000   0.007  -0.000
 -0.000  -0.000  -0.000   0.000  -0.100   0.000  -0.000   0.007
 total augmentation occupancy for first ion, spin component:           2
  0.056  -0.016  -0.011  -0.028   0.020   0.000   0.001  -0.001
 -0.016   0.004  -0.000  -0.005   0.003   0.000   0.000  -0.000
 -0.011  -0.000   0.020   0.018  -0.015  -0.001  -0.000   0.000
 -0.028  -0.005   0.018   0.038  -0.009  -0.000  -0.002   0.000
  0.020   0.003  -0.015  -0.009   0.017   0.000   0.000  -0.001
  0.000   0.000  -0.001  -0.000   0.000   0.000  -0.000   0.000
  0.001   0.000  -0.000  -0.002   0.000  -0.000   0.000   0.000
 -0.001  -0.000   0.000   0.000  -0.001   0.000   0.000   0.000


------------------------ aborting loop because EDIFF is reached ----------------------------------------


 


 total charge     
 
# of ion       s       p       d       tot
------------------------------------------
    1        0.405   0.427   0.000   0.832
    2        0.406   0.427   0.000   0.832
    3        0.407   0.429   0.000   0.835
    4        0.406   0.428   0.000   0.835
    5        0.405   0.428   0.000   0.832
    6        0.405   0.428   0.000   0.832
    7        0.404   0.429   0.000   0.833
    8        0.404   0.428   0.000   0.832
    9        0.405   0.424   0.000   0.830
   10        0.405   0.425   0.000   0.830
   11        0.404   0.429   0.000   0.833
   12        0.404   0.429   0.000   0.833
   13        0.405   0.428   0.000   0.833
   14        0.405   0.429   0.000   0.833
   15        0.406   0.425   0.000   0.831
   16        0.405   0.425   0.000   0.830
   17        0.405   0.427   0.000   0.832
   18        0.404   0.428   0.000   0.832
   19        0.326   0.353   5.160   5.840
   20        0.332   0.362   5.112   5.807
   21        0.334   0.360   5.116   5.809
   22        0.329   0.352   5.156   5.837
   23        0.336   0.356   5.122   5.814
   24        0.337   0.354   5.127   5.818
   25        0.335   0.354   5.132   5.821
   26        0.335   0.355   5.129   5.819
   27        0.336   0.352   5.134   5.822
   28        0.336   0.355   5.128   5.818
   29        0.340   0.354   5.118   5.812
   30        0.341   0.360   5.104   5.805
   31        0.329   0.358   5.137   5.824
   32        0.327   0.351   5.164   5.841
   33        0.332   0.356   5.134   5.822
   34        0.333   0.360   5.114   5.808
   35        0.334   0.356   5.128   5.817
   36        0.333   0.357   5.128   5.818
--------------------------------------------------
tot         13.295  14.095  92.341 119.732
 


 magnetization (x)
 
# of ion       s       p       d       tot
------------------------------------------
    1        0.005   0.008   0.000   0.013
    2        0.005   0.008   0.000   0.013
    3        0.005   0.003   0.000   0.008
    4        0.005   0.003   0.000   0.008
    5        0.005   0.008   0.000   0.012
    6        0.005   0.008   0.000   0.012
    7        0.006   0.011   0.000   0.018
    8        0.006   0.011   0.000   0.017
    9        0.011   0.019   0.000   0.030
   10        0.011   0.019   0.000   0.030
   11        0.006   0.010   0.000   0.016
   12        0.006   0.010   0.000   0.016
   13        0.002   0.003   0.000   0.005
   14        0.002   0.004   0.000   0.006
   15        0.008   0.017   0.000   0.025
   16        0.008   0.017   0.000   0.025
   17        0.002   0.001   0.000   0.003
   18        0.002   0.002   0.000   0.004
   19        0.030   0.043   1.693   1.767
   20       -0.018  -0.044  -2.365  -2.427
   21       -0.016  -0.033  -2.364  -2.413
   22        0.030   0.036   1.962   2.029
   23       -0.038  -0.025  -2.435  -2.498
   24       -0.034  -0.017  -2.483  -2.533
   25       -0.028  -0.013  -2.362  -2.403
   26       -0.029  -0.022  -2.376  -2.427
   27       -0.029  -0.015  -2.424  -2.468
   28       -0.030  -0.022  -2.384  -2.436
   29        0.040   0.016   2.620   2.676
   30        0.045   0.028   2.647   2.720
   31       -0.022  -0.043  -1.985  -2.051
   32        0.025   0.043   1.643   1.711
   33        0.024   0.036   2.238   2.298
   34       -0.022  -0.035  -2.426  -2.483
   35        0.016   0.023   2.337   2.376
   36       -0.022  -0.026  -2.285  -2.333
--------------------------------------------------
tot          0.024   0.092 -10.749 -10.634
 
    FORLOC:  cpu time    0.0284: real time    0.0284
    FORNL :  cpu time   12.2593: real time   13.0789
    STRESS:  cpu time   17.2647: real time   17.4244
    FORCOR:  cpu time    0.2839: real time    0.2840
    OFIELD:  cpu time    0.0016: real time    0.0016

  FORCE on cell =-STRESS in cart. coord.  units (eV):
  Direction    XX          YY          ZZ          XY          YZ          ZX
  --------------------------------------------------------------------------------------
  Alpha Z   532.25743   532.25743   532.25743
  Ewald   -2702.40749 -2702.40749 -3196.26924    -0.00000    -0.00000    -0.00000
  Hartree   719.81858   719.88230   226.26027    -0.29955    -0.00000    -0.00000
  E(xc)    -759.86159  -759.89081  -760.54156     0.08356     0.00000     0.00000
  Local     250.68653   250.57273  1259.79871     0.94755    -0.00000     0.00000
  n-local  -108.13769  -108.22034  -123.28127     0.08966    -0.22365    -0.19975
  augment   519.97259   520.02116   516.65239    -0.34190     0.00001     0.00001
  Kinetic  1555.07136  1555.02492  1543.45803    -1.03974     0.63468     0.18187
  Fock        0.00000     0.00000     0.00000     0.00000     0.00000     0.00000
  -------------------------------------------------------------------------------------
  Total       7.39971     7.23989    -1.66526    -0.56041     0.00000     0.00000
  in kB      25.05029    24.50924    -5.63742    -1.89715     0.00000     0.00000
  external pressure =       14.64 kB  Pullay stress =        0.00 kB


 VOLUME and BASIS-vectors are now :
 -----------------------------------------------------------------------------
  energy-cutoff  :      404.80
  volume of cell :      473.27
      direct lattice vectors                 reciprocal lattice vectors
     8.250148166  0.000000000  0.000000000     0.121209944  0.000000000  0.000000000
     0.000000000  8.250148166  0.000000000     0.000000000  0.121209944  0.000000000
     0.000000000  0.000000000  6.953274261     0.000000000  0.000000000  0.143817137

  length of vectors
     8.250148166  8.250148166  6.953274261     0.121209944  0.121209944  0.143817137


 FORCES acting on ions:
    Electron-Ion                     Ewald-Force                    Non-Local-Force
 -----------------------------------------------------------------------------------------------
   0.103E+00 0.339E-01 -.148E+00   -.239E-08 -.239E-08 0.411E-08   -.161E-01 0.167E-01 0.636E-01
   0.103E+00 0.339E-01 0.148E+00   -.239E-08 -.239E-08 0.411E-08   -.161E-01 0.167E-01 -.636E-01
   -.406E-01 -.149E+00 -.336E-01   -.239E-08 -.802E-09 0.411E-08   0.309E-03 0.131E-01 0.396E-01
   -.406E-01 -.149E+00 0.336E-01   -.239E-08 -.802E-09 0.411E-08   0.309E-03 0.131E-01 -.396E-01
   -.116E+00 0.839E-01 0.226E-01   -.239E-08 0.631E-08 0.411E-08   0.844E-01 -.427E-02 -.353E-01
   -.116E+00 0.839E-01 -.226E-01   -.239E-08 0.631E-08 0.411E-08   0.844E-01 -.427E-02 0.353E-01
   -.807E-01 0.120E+00 -.865E-01   -.802E-09 -.239E-08 0.411E-08   -.329E-01 -.187E-02 0.436E-01
   -.807E-01 0.120E+00 0.865E-01   -.802E-09 -.239E-08 0.411E-08   -.329E-01 -.187E-02 -.436E-01
   0.340E-01 -.227E-01 -.347E-01   -.802E-09 -.802E-09 0.411E-08   0.678E-01 -.874E-02 0.398E-01
   0.340E-01 -.227E-01 0.347E-01   -.802E-09 -.802E-09 0.411E-08   0.678E-01 -.874E-02 -.398E-01
   -.431E-01 -.129E+00 0.855E-01   -.802E-09 0.631E-08 0.411E-08   -.404E-01 0.293E-01 -.175E-01
   -.431E-01 -.129E+00 -.855E-01   -.802E-09 0.631E-08 0.411E-08   -.404E-01 0.293E-01 0.175E-01
   -.355E-02 0.247E+00 0.132E+00   0.631E-08 -.239E-08 0.411E-08   0.261E-01 -.550E-01 -.499E-01
   -.355E-02 0.247E+00 -.132E+00   0.631E-08 -.239E-08 0.411E-08   0.261E-01 -.550E-01 0.499E-01
   -.708E-03 -.834E-01 -.161E-01   0.631E-08 -.802E-09 0.411E-08   -.469E-01 -.148E-01 0.509E-03
   -.708E-03 -.834E-01 0.161E-01   0.631E-08 -.802E-09 0.411E-08   -.469E-01 -.148E-01 -.509E-03
   0.160E+00 -.149E+00 0.193E-01   0.631E-08 0.631E-08 0.411E-08   -.446E-01 0.664E-01 -.167E-01
   0.160E+00 -.149E+00 -.193E-01   0.631E-08 0.631E-08 0.411E-08   -.446E-01 0.664E-01 0.167E-01
   0.254E+00 -.455E+00 -.223E-09   -.169E-07 -.169E-07 -.411E-08   -.303E+00 0.401E+00 0.000E+00
   0.704E+00 -.673E+00 -.341E-08   -.169E-07 -.169E-07 -.411E-08   -.547E+00 0.430E+00 0.000E+00
   0.681E+00 0.649E+00 0.213E-08   -.169E-07 0.802E-09 -.411E-08   -.477E+00 -.478E+00 0.000E+00
   0.286E+00 0.462E+00 -.671E-08   -.169E-07 0.802E-09 -.411E-08   -.239E+00 -.483E+00 0.000E+00
   0.191E+00 -.416E+00 -.324E-08   -.169E-07 0.130E-07 -.411E-08   -.848E-01 0.117E+00 0.000E+00
   -.348E+00 0.503E+00 -.189E-08   -.169E-07 0.130E-07 -.411E-08   0.244E+00 -.214E+00 0.000E+00
   0.379E+00 0.297E+00 -.295E-08   0.802E-09 -.169E-07 -.411E-08   -.234E+00 -.137E+00 0.000E+00
   -.550E+00 0.449E+00 -.706E-09   0.802E-09 -.169E-07 -.411E-08   0.309E+00 -.305E+00 0.000E+00
   -.534E+00 -.370E+00 -.380E-09   0.802E-09 0.802E-09 -.411E-08   0.223E+00 0.192E+00 0.000E+00
   0.463E+00 -.405E+00 -.420E-08   0.802E-09 0.802E-09 -.411E-08   -.156E+00 0.249E+00 0.000E+00
   0.427E+00 0.521E-01 -.595E-08   0.802E-09 0.130E-07 -.411E-08   -.210E+00 -.524E-02 0.000E+00
   -.148E+00 -.194E-01 0.744E-09   0.802E-09 0.130E-07 -.411E-08   0.122E+00 0.255E-01 0.000E+00
   -.602E+00 -.115E+00 -.386E-08   0.130E-07 -.169E-07 -.411E-08   0.390E+00 0.174E+00 0.000E+00
   -.331E+00 -.136E+00 -.551E-09   0.130E-07 -.169E-07 -.411E-08   0.338E+00 0.164E+00 0.000E+00
   -.308E+00 0.737E+00 -.125E-08   0.130E-07 0.802E-09 -.411E-08   0.264E+00 -.447E+00 0.000E+00
   -.677E+00 0.700E+00 -.419E-08   0.130E-07 0.802E-09 -.411E-08   0.456E+00 -.473E+00 0.000E+00
   -.165E+00 -.594E+00 -.698E-08   0.130E-07 0.130E-07 -.411E-08   0.471E-01 0.402E+00 0.000E+00
   0.222E+00 -.543E+00 0.663E-09   0.130E-07 0.130E-07 -.411E-08   -.108E+00 0.284E+00 0.000E+00
 -----------------------------------------------------------------------------------------------
   -.309E-01 0.229E-01 -.789E-07   -.197E-14 0.275E-13 0.265E-14   0.309E-01 -.230E-01 0.000E+00
 
 
 POSITION                                       TOTAL-FORCE (eV/Angst)
 -----------------------------------------------------------------------------------
      0.00000      0.00000      0.00000         0.087628      0.050912     -0.089848
      0.00000      0.00000      3.47664         0.087628      0.050912      0.089848
      0.00000      2.75005      0.00000        -0.040759     -0.137819      0.002641
      0.00000      2.75005      3.47664        -0.040759     -0.137819     -0.002641
      0.00000      5.50010      0.00000        -0.038982      0.079069     -0.009320
      0.00000      5.50010      3.47664        -0.038982      0.079069      0.009320
      2.75005      0.00000      0.00000        -0.112047      0.119413     -0.046430
      2.75005      0.00000      3.47664        -0.112047      0.119413      0.046430
      2.75005      2.75005      0.00000         0.094267     -0.031000      0.001589
      2.75005      2.75005      3.47664         0.094267     -0.031000     -0.001589
      2.75005      5.50010      0.00000        -0.080844     -0.103033      0.069175
      2.75005      5.50010      3.47664        -0.080844     -0.103033     -0.069175
      5.50010      0.00000      0.00000         0.022003      0.198529      0.086307
      5.50010      0.00000      3.47664         0.022003      0.198529     -0.086307
      5.50010      2.75005      0.00000        -0.041420     -0.097465     -0.015607
      5.50010      2.75005      3.47664        -0.041420     -0.097465      0.015607
      5.50010      5.50010      0.00000         0.121073     -0.089304      0.003985
      5.50010      5.50010      3.47664         0.121073     -0.089304     -0.003985
      1.37502      1.37502      1.73832        -0.050198     -0.061623      0.000000
      1.37502      1.37502      5.21496         0.167877     -0.249771      0.000000
      1.37502      4.12507      1.73832         0.214157      0.176650      0.000000
      1.37502      4.12507      5.21496         0.047557     -0.015199      0.000000
      1.37502      6.87512      1.73832         0.113731     -0.309841      0.000000
      1.37502      6.87512      5.21496        -0.103767      0.302540      0.000000
      4.12507      1.37502      1.73832         0.154240      0.162417      0.000000
      4.12507      1.37502      5.21496        -0.255198      0.148669      0.000000
      4.12507      4.12507      1.73832        -0.324631     -0.184065      0.000000
      4.12507      4.12507      5.21496         0.316738     -0.160714      0.000000
      4.12507      6.87512      1.73832         0.227140      0.048684      0.000000
      4.12507      6.87512      5.21496        -0.030469      0.006626      0.000000
      6.87512      1.37502      1.73832        -0.220881      0.060800      0.000000
      6.87512      1.37502      5.21496         0.003948      0.029767      0.000000
      6.87512      4.12507      1.73832        -0.046799      0.300272      0.000000
      6.87512      4.12507      5.21496        -0.229609      0.236801      0.000000
      6.87512      6.87512      1.73832        -0.111224     -0.201887      0.000000
      6.87512      6.87512      5.21496         0.105546     -0.268725      0.000000
 -----------------------------------------------------------------------------------
    total drift:                                0.000025     -0.000089     -0.000000


--------------------------------------------------------------------------------------------------------



  FREE ENERGIE OF THE ION-ELECTRON SYSTEM (eV)
  ---------------------------------------------------
  free  energy   TOTEN  =      -235.93409652 eV

  energy  without entropy=     -235.97892660  energy(sigma->0) =     -235.94903988
 


--------------------------------------------------------------------------------------------------------


    POTLOK:  cpu time    0.5653: real time    0.5653


--------------------------------------------------------------------------------------------------------


     LOOP+:  cpu time 1188.6022: real time 1212.6994
    4ORBIT:  cpu time    0.0000: real time    0.0000
 


 total charge     
 
# of ion       s       p       d       tot
------------------------------------------
    1        0.405   0.427   0.000   0.832
    2        0.406   0.427   0.000   0.832
    3        0.407   0.429   0.000   0.835
    4        0.406   0.428   0.000   0.835
    5        0.405   0.428   0.000   0.832
    6        0.405   0.428   0.000   0.832
    7        0.404   0.429   0.000   0.833
    8        0.404   0.428   0.000   0.832
    9        0.405   0.424   0.000   0.830
   10        0.405   0.425   0.000   0.830
   11        0.404   0.429   0.000   0.833
   12        0.404   0.429   0.000   0.833
   13        0.405   0.428   0.000   0.833
   14        0.405   0.429   0.000   0.833
   15        0.406   0.425   0.000   0.831
   16        0.405   0.425   0.000   0.830
   17        0.405   0.427   0.000   0.832
   18        0.404   0.428   0.000   0.832
   19        0.326   0.353   5.160   5.840
   20        0.332   0.362   5.112   5.807
   21        0.334   0.360   5.116   5.809
   22        0.329   0.352   5.156   5.837
   23        0.336   0.356   5.122   5.814
   24        0.337   0.354   5.127   5.818
   25        0.335   0.354   5.132   5.821
   26        0.335   0.355   5.129   5.819
   27        0.336   0.352   5.134   5.822
   28        0.336   0.355   5.128   5.818
   29        0.340   0.354   5.118   5.812
   30        0.341   0.360   5.104   5.805
   31        0.329   0.358   5.137   5.824
   32        0.327   0.351   5.164   5.841
   33        0.332   0.356   5.134   5.822
   34        0.333   0.360   5.114   5.808
   35        0.334   0.356   5.128   5.817
   36        0.333   0.357   5.128   5.818
--------------------------------------------------
tot         13.295  14.095  92.341 119.732
 


 magnetization (x)
 
# of ion       s       p       d       tot
------------------------------------------
    1        0.005   0.008   0.000   0.013
    2        0.005   0.008   0.000   0.013
    3        0.005   0.003   0.000   0.008
    4        0.005   0.003   0.000   0.008
    5        0.005   0.008   0.000   0.012
    6        0.005   0.008   0.000   0.012
    7        0.006   0.011   0.000   0.018
    8        0.006   0.011   0.000   0.017
    9        0.011   0.019   0.000   0.030
   10        0.011   0.019   0.000   0.030
   11        0.006   0.010   0.000   0.016
   12        0.006   0.010   0.000   0.016
   13        0.002   0.003   0.000   0.005
   14        0.002   0.004   0.000   0.006
   15        0.008   0.017   0.000   0.025
   16        0.008   0.017   0.000   0.025
   17        0.002   0.001   0.000   0.003
   18        0.002   0.002   0.000   0.004
   19        0.030   0.043   1.693   1.767
   20       -0.018  -0.044  -2.365  -2.427
   21       -0.016  -0.033  -2.364  -2.413
   22        0.030   0.036   1.962   2.029
   23       -0.038  -0.025  -2.435  -2.498
   24       -0.034  -0.017  -2.483  -2.533
   25       -0.028  -0.013  -2.362  -2.403
   26       -0.029  -0.022  -2.376  -2.427
   27       -0.029  -0.015  -2.424  -2.468
   28       -0.030  -0.022  -2.384  -2.436
   29        0.040   0.016   2.620   2.676
   30        0.045   0.028   2.647   2.720
   31       -0.022  -0.043  -1.985  -2.051
   32        0.025   0.043   1.643   1.711
   33        0.024   0.036   2.238   2.298
   34       -0.022  -0.035  -2.426  -2.483
   35        0.016   0.023   2.337   2.376
   36       -0.022  -0.026  -2.285  -2.333
--------------------------------------------------
tot          0.024   0.092 -10.749 -10.634
 

 total amount of memory used by VASP MPI-rank0   705355. kBytes
=======================================================================

   base      :      30000. kBytes
   nonl-proj :      34307. kBytes
   fftplans  :      21726. kBytes
   grid      :      14732. kBytes
   one-center:        279. kBytes
   wavefun   :     604311. kBytes
 
  
  
 General timing and accounting informations for this job:
 ========================================================
  
                  Total CPU time used (sec):     1212.953
                            User time (sec):     1190.671
                          System time (sec):       22.282
                         Elapsed time (sec):     1240.078
  
                   Maximum memory used (kb):      839692.
                   Average memory used (kb):           0.
  
                          Minor page faults:       574593
                          Major page faults:           19
                 Voluntary context switches:         5341
