  36  36   1   0
  0.1314651E+02  0.8250148E-09  0.8250148E-09  0.6953274E-09  0.2000000E-15
  1.000000000000000E-004
  CAR 
 AlMn_pv                                 
     12.91279835     -4.53375655  301      7.74441420      1.00000000
     -4.534  0.0000E+00  0.0000E+00  0.0000E+00  0.0000E+00
     -4.476  0.0000E+00  0.0000E+00  0.0000E+00  0.0000E+00
     -4.417  0.0000E+00  0.0000E+00  0.0000E+00  0.0000E+00
     -4.359  0.0000E+00  0.0000E+00  0.0000E+00  0.0000E+00
     -4.301  0.0000E+00  0.0000E+00  0.0000E+00  0.0000E+00
     -4.243  0.0000E+00  0.0000E+00  0.0000E+00  0.0000E+00
     -4.185 -0.6745E-30  0.0000E+00 -0.3922E-31  0.0000E+00
     -4.127 -0.7205E-28 -0.9948E-29 -0.4229E-29 -0.5785E-30
     -4.069 -0.6575E-26 -0.9680E-27 -0.3866E-27 -0.5687E-28
     -4.010 -0.5039E-24 -0.7982E-25 -0.2969E-25 -0.4699E-26
     -3.952 -0.3256E-22 -0.5550E-23 -0.1923E-23 -0.3275E-24
     -3.894 -0.1774E-20 -0.3254E-21 -0.1051E-21 -0.1925E-22
     -3.836 -0.8148E-19 -0.1608E-19 -0.4843E-20 -0.9546E-21
     -3.778 -0.3155E-17 -0.6702E-18 -0.1883E-18 -0.3993E-19
     -3.720 -0.1030E-15 -0.2355E-16 -0.6179E-17 -0.1409E-17
     -3.661 -0.2746E-14 -0.6784E-15 -0.1659E-15 -0.4086E-16
     -3.603 -0.6355E-13 -0.1685E-13 -0.3862E-14 -0.1021E-14
     -3.545 -0.1239E-11 -0.3535E-12 -0.7589E-13 -0.2158E-13
     -3.487 -0.2035E-10 -0.6251E-11 -0.1259E-11 -0.3851E-12
     -3.429 -0.2819E-09 -0.9319E-10 -0.1765E-10 -0.5805E-11
     -3.371 -0.3293E-08 -0.1171E-08 -0.2091E-09 -0.7393E-10
     -3.312 -0.3245E-07 -0.1242E-07 -0.2096E-08 -0.7963E-09
     -3.254 -0.2699E-06 -0.1112E-06 -0.1779E-07 -0.7260E-08
     -3.196 -0.1896E-05 -0.8398E-06 -0.1280E-06 -0.5610E-07
     -3.138 -0.1125E-04 -0.5360E-05 -0.7823E-06 -0.3678E-06
     -3.080 -0.5642E-04 -0.2891E-04 -0.4064E-05 -0.2049E-05
     -3.022 -0.2390E-03 -0.1317E-03 -0.1796E-04 -0.9711E-05
     -2.964 -0.8530E-03 -0.5065E-03 -0.6757E-04 -0.3917E-04
     -2.905 -0.2553E-02 -0.1637E-02 -0.2160E-03 -0.1344E-03
     -2.847 -0.6332E-02 -0.4413E-02 -0.5843E-03 -0.3910E-03
     -2.789 -0.1269E-01 -0.9737E-02 -0.1322E-02 -0.9572E-03
     -2.731 -0.1920E-01 -0.1685E-01 -0.2438E-02 -0.1937E-02
     -2.673 -0.1696E-01 -0.2001E-01 -0.3425E-02 -0.3100E-02
     -2.615  0.1095E-01 -0.5491E-02 -0.2788E-02 -0.3420E-02
     -2.556  0.8358E-01  0.4627E-01  0.2073E-02 -0.7290E-03
     -2.498  0.2072E+00  0.1491E+00  0.1412E-01  0.7943E-02
     -2.440  0.3611E+00  0.2948E+00  0.3512E-01  0.2509E-01
     -2.382  0.5043E+00  0.4482E+00  0.6445E-01  0.5115E-01
     -2.324  0.6082E+00  0.5706E+00  0.9982E-01  0.8434E-01
     -2.266  0.6913E+00  0.6586E+00  0.1400E+00  0.1226E+00
     -2.208  0.8091E+00  0.7573E+00  0.1871E+00  0.1667E+00
     -2.149  0.9900E+00  0.9147E+00  0.2447E+00  0.2199E+00
     -2.091  0.1177E+01  0.1111E+01  0.3131E+00  0.2845E+00
     -2.033  0.1261E+01  0.1248E+01  0.3864E+00  0.3571E+00
     -1.975  0.1190E+01  0.1237E+01  0.4556E+00  0.4290E+00
     -1.917  0.1054E+01  0.1111E+01  0.5169E+00  0.4936E+00
     -1.859  0.1017E+01  0.1016E+01  0.5761E+00  0.5527E+00
     -1.800  0.1174E+01  0.1093E+01  0.6444E+00  0.6163E+00
     -1.742  0.1457E+01  0.1337E+01  0.7291E+00  0.6940E+00
     -1.684  0.1698E+01  0.1609E+01  0.8279E+00  0.7876E+00
     -1.626  0.1776E+01  0.1756E+01  0.9312E+00  0.8897E+00
     -1.568  0.1708E+01  0.1740E+01  0.1031E+01  0.9910E+00
     -1.510  0.1627E+01  0.1654E+01  0.1125E+01  0.1087E+01
     -1.452  0.1655E+01  0.1635E+01  0.1221E+01  0.1182E+01
     -1.393  0.1783E+01  0.1732E+01  0.1325E+01  0.1283E+01
     -1.335  0.1865E+01  0.1849E+01  0.1434E+01  0.1390E+01
     -1.277  0.1782E+01  0.1838E+01  0.1537E+01  0.1497E+01
     -1.219  0.1600E+01  0.1682E+01  0.1630E+01  0.1595E+01
     -1.161  0.1539E+01  0.1550E+01  0.1720E+01  0.1685E+01
     -1.103  0.1748E+01  0.1643E+01  0.1821E+01  0.1781E+01
     -1.044  0.2143E+01  0.1975E+01  0.1946E+01  0.1896E+01
     -0.986  0.2493E+01  0.2359E+01  0.2091E+01  0.2033E+01
     -0.928  0.2650E+01  0.2598E+01  0.2245E+01  0.2184E+01
     -0.870  0.2644E+01  0.2651E+01  0.2399E+01  0.2338E+01
     -0.812  0.2584E+01  0.2606E+01  0.2549E+01  0.2490E+01
     -0.754  0.2499E+01  0.2532E+01  0.2695E+01  0.2637E+01
     -0.696  0.2333E+01  0.2409E+01  0.2830E+01  0.2777E+01
     -0.637  0.2075E+01  0.2200E+01  0.2951E+01  0.2905E+01
     -0.579  0.1852E+01  0.1969E+01  0.3059E+01  0.3020E+01
     -0.521  0.1856E+01  0.1879E+01  0.3166E+01  0.3129E+01
     -0.463  0.2161E+01  0.2050E+01  0.3292E+01  0.3248E+01
     -0.405  0.2648E+01  0.2446E+01  0.3446E+01  0.3390E+01
     -0.347  0.3100E+01  0.2903E+01  0.3626E+01  0.3559E+01
     -0.288  0.3367E+01  0.3253E+01  0.3822E+01  0.3748E+01
     -0.230  0.3438E+01  0.3423E+01  0.4022E+01  0.3947E+01
     -0.172  0.3390E+01  0.3436E+01  0.4219E+01  0.4147E+01
     -0.114  0.3304E+01  0.3359E+01  0.4411E+01  0.4342E+01
     -0.056  0.3214E+01  0.3260E+01  0.4598E+01  0.4532E+01
      0.002  0.3128E+01  0.3180E+01  0.4780E+01  0.4717E+01
      0.061  0.3065E+01  0.3126E+01  0.4959E+01  0.4899E+01
      0.119  0.3068E+01  0.3098E+01  0.5137E+01  0.5079E+01
      0.177  0.3166E+01  0.3112E+01  0.5321E+01  0.5260E+01
      0.235  0.3336E+01  0.3192E+01  0.5515E+01  0.5446E+01
      0.293  0.3486E+01  0.3326E+01  0.5718E+01  0.5639E+01
      0.351  0.3500E+01  0.3427E+01  0.5921E+01  0.5838E+01
      0.409  0.3330E+01  0.3382E+01  0.6115E+01  0.6035E+01
      0.468  0.3067E+01  0.3169E+01  0.6293E+01  0.6219E+01
      0.526  0.2907E+01  0.2931E+01  0.6462E+01  0.6390E+01
      0.584  0.2999E+01  0.2878E+01  0.6637E+01  0.6557E+01
      0.642  0.3316E+01  0.3092E+01  0.6830E+01  0.6737E+01
      0.700  0.3682E+01  0.3456E+01  0.7044E+01  0.6938E+01
      0.758  0.3948E+01  0.3779E+01  0.7273E+01  0.7158E+01
      0.817  0.4070E+01  0.3960E+01  0.7510E+01  0.7388E+01
      0.875  0.4059E+01  0.4003E+01  0.7746E+01  0.7621E+01
      0.933  0.3913E+01  0.3923E+01  0.7974E+01  0.7849E+01
      0.991  0.3669E+01  0.3728E+01  0.8187E+01  0.8066E+01
      1.049  0.3452E+01  0.3488E+01  0.8388E+01  0.8269E+01
      1.107  0.3389E+01  0.3335E+01  0.8585E+01  0.8462E+01
      1.165  0.3464E+01  0.3343E+01  0.8786E+01  0.8657E+01
      1.224  0.3545E+01  0.3430E+01  0.8992E+01  0.8856E+01
      1.282  0.3555E+01  0.3463E+01  0.9199E+01  0.9058E+01
      1.340  0.3551E+01  0.3425E+01  0.9406E+01  0.9257E+01
      1.398  0.3590E+01  0.3413E+01  0.9615E+01  0.9455E+01
      1.456  0.3619E+01  0.3469E+01  0.9825E+01  0.9657E+01
      1.514  0.3574E+01  0.3508E+01  0.1003E+02  0.9861E+01
      1.573  0.3554E+01  0.3471E+01  0.1024E+02  0.1006E+02
      1.631  0.3776E+01  0.3467E+01  0.1046E+02  0.1026E+02
      1.689  0.4327E+01  0.3699E+01  0.1071E+02  0.1048E+02
      1.747  0.5007E+01  0.4238E+01  0.1100E+02  0.1073E+02
      1.805  0.5463E+01  0.4886E+01  0.1132E+02  0.1101E+02
      1.863  0.5486E+01  0.5316E+01  0.1164E+02  0.1132E+02
      1.921  0.5164E+01  0.5332E+01  0.1194E+02  0.1163E+02
      1.980  0.4784E+01  0.5016E+01  0.1222E+02  0.1192E+02
      2.038  0.4612E+01  0.4630E+01  0.1249E+02  0.1219E+02
      2.096  0.4773E+01  0.4401E+01  0.1276E+02  0.1245E+02
      2.154  0.5226E+01  0.4429E+01  0.1307E+02  0.1270E+02
      2.212  0.5770E+01  0.4707E+01  0.1340E+02  0.1298E+02
      2.270  0.6109E+01  0.5143E+01  0.1376E+02  0.1328E+02
      2.329  0.6024E+01  0.5551E+01  0.1411E+02  0.1360E+02
      2.387  0.5542E+01  0.5707E+01  0.1443E+02  0.1393E+02
      2.445  0.4921E+01  0.5509E+01  0.1472E+02  0.1425E+02
      2.503  0.4470E+01  0.5066E+01  0.1498E+02  0.1455E+02
      2.561  0.4374E+01  0.4627E+01  0.1523E+02  0.1482E+02
      2.619  0.4631E+01  0.4406E+01  0.1550E+02  0.1507E+02
      2.677  0.5096E+01  0.4471E+01  0.1580E+02  0.1533E+02
      2.736  0.5574E+01  0.4743E+01  0.1612E+02  0.1561E+02
      2.794  0.5910E+01  0.5089E+01  0.1646E+02  0.1590E+02
      2.852  0.6036E+01  0.5404E+01  0.1682E+02  0.1622E+02
      2.910  0.5999E+01  0.5627E+01  0.1716E+02  0.1655E+02
      2.968  0.5946E+01  0.5709E+01  0.1751E+02  0.1688E+02
      3.026  0.6020E+01  0.5646E+01  0.1786E+02  0.1721E+02
      3.085  0.6206E+01  0.5538E+01  0.1822E+02  0.1753E+02
      3.143  0.6320E+01  0.5525E+01  0.1859E+02  0.1785E+02
      3.201  0.6205E+01  0.5629E+01  0.1895E+02  0.1818E+02
      3.259  0.5910E+01  0.5707E+01  0.1929E+02  0.1851E+02
      3.317  0.5599E+01  0.5621E+01  0.1962E+02  0.1884E+02
      3.375  0.5361E+01  0.5393E+01  0.1993E+02  0.1915E+02
      3.434  0.5173E+01  0.5161E+01  0.2023E+02  0.1945E+02
      3.492  0.5047E+01  0.5025E+01  0.2052E+02  0.1974E+02
      3.550  0.5099E+01  0.4993E+01  0.2082E+02  0.2003E+02
      3.608  0.5441E+01  0.5068E+01  0.2114E+02  0.2033E+02
      3.666  0.6047E+01  0.5310E+01  0.2149E+02  0.2064E+02
      3.724  0.6734E+01  0.5753E+01  0.2188E+02  0.2097E+02
      3.782  0.7288E+01  0.6303E+01  0.2231E+02  0.2134E+02
      3.841  0.7629E+01  0.6777E+01  0.2275E+02  0.2173E+02
      3.899  0.7885E+01  0.7070E+01  0.2321E+02  0.2214E+02
      3.957  0.8320E+01  0.7245E+01  0.2369E+02  0.2256E+02
      4.015  0.9146E+01  0.7461E+01  0.2422E+02  0.2300E+02
      4.073  0.1036E+02  0.7851E+01  0.2483E+02  0.2345E+02
      4.131  0.1175E+02  0.8473E+01  0.2551E+02  0.2395E+02
      4.190  0.1302E+02  0.9294E+01  0.2627E+02  0.2449E+02
      4.248  0.1404E+02  0.1016E+02  0.2708E+02  0.2508E+02
      4.306  0.1480E+02  0.1086E+02  0.2794E+02  0.2571E+02
      4.364  0.1534E+02  0.1128E+02  0.2883E+02  0.2636E+02
      4.422  0.1570E+02  0.1156E+02  0.2975E+02  0.2704E+02
      4.480  0.1596E+02  0.1194E+02  0.3068E+02  0.2773E+02
      4.538  0.1616E+02  0.1250E+02  0.3162E+02  0.2846E+02
      4.597  0.1626E+02  0.1313E+02  0.3256E+02  0.2922E+02
      4.655  0.1614E+02  0.1362E+02  0.3350E+02  0.3001E+02
      4.713  0.1577E+02  0.1392E+02  0.3442E+02  0.3082E+02
      4.771  0.1531E+02  0.1409E+02  0.3531E+02  0.3164E+02
      4.829  0.1506E+02  0.1424E+02  0.3618E+02  0.3247E+02
      4.887  0.1526E+02  0.1445E+02  0.3707E+02  0.3331E+02
      4.946  0.1596E+02  0.1470E+02  0.3800E+02  0.3417E+02
      5.004  0.1711E+02  0.1504E+02  0.3899E+02  0.3504E+02
      5.062  0.1864E+02  0.1562E+02  0.4008E+02  0.3595E+02
      5.120  0.2049E+02  0.1657E+02  0.4127E+02  0.3691E+02
      5.178  0.2242E+02  0.1785E+02  0.4257E+02  0.3795E+02
      5.236  0.2400E+02  0.1921E+02  0.4397E+02  0.3907E+02
      5.294  0.2485E+02  0.2028E+02  0.4541E+02  0.4025E+02
      5.353  0.2475E+02  0.2077E+02  0.4685E+02  0.4146E+02
      5.411  0.2383E+02  0.2062E+02  0.4824E+02  0.4265E+02
      5.469  0.2250E+02  0.1998E+02  0.4955E+02  0.4382E+02
      5.527  0.2125E+02  0.1915E+02  0.5078E+02  0.4493E+02
      5.585  0.2045E+02  0.1841E+02  0.5197E+02  0.4600E+02
      5.643  0.2024E+02  0.1798E+02  0.5315E+02  0.4705E+02
      5.702  0.2050E+02  0.1787E+02  0.5434E+02  0.4809E+02
      5.760  0.2095E+02  0.1791E+02  0.5556E+02  0.4913E+02
      5.818  0.2138E+02  0.1783E+02  0.5680E+02  0.5016E+02
      5.876  0.2162E+02  0.1740E+02  0.5806E+02  0.5118E+02
      5.934  0.2149E+02  0.1653E+02  0.5931E+02  0.5214E+02
      5.992  0.2084E+02  0.1530E+02  0.6052E+02  0.5303E+02
      6.050  0.1967E+02  0.1404E+02  0.6167E+02  0.5384E+02
      6.109  0.1846E+02  0.1320E+02  0.6274E+02  0.5461E+02
      6.167  0.1796E+02  0.1320E+02  0.6378E+02  0.5538E+02
      6.225  0.1883E+02  0.1421E+02  0.6488E+02  0.5621E+02
      6.283  0.2112E+02  0.1600E+02  0.6611E+02  0.5714E+02
      6.341  0.2419E+02  0.1796E+02  0.6751E+02  0.5818E+02
      6.399  0.2713E+02  0.1941E+02  0.6909E+02  0.5931E+02
      6.458  0.2929E+02  0.2002E+02  0.7079E+02  0.6047E+02
      6.516  0.3051E+02  0.1993E+02  0.7257E+02  0.6163E+02
      6.574  0.3104E+02  0.1956E+02  0.7437E+02  0.6277E+02
      6.632  0.3117E+02  0.1928E+02  0.7619E+02  0.6389E+02
      6.690  0.3095E+02  0.1917E+02  0.7799E+02  0.6501E+02
      6.748  0.3030E+02  0.1916E+02  0.7975E+02  0.6612E+02
      6.807  0.2911E+02  0.1913E+02  0.8144E+02  0.6723E+02
      6.865  0.2740E+02  0.1896E+02  0.8303E+02  0.6834E+02
      6.923  0.2523E+02  0.1856E+02  0.8450E+02  0.6941E+02
      6.981  0.2269E+02  0.1794E+02  0.8582E+02  0.7046E+02
      7.039  0.1998E+02  0.1731E+02  0.8698E+02  0.7146E+02
      7.097  0.1745E+02  0.1702E+02  0.8800E+02  0.7245E+02
      7.155  0.1549E+02  0.1725E+02  0.8890E+02  0.7346E+02
      7.214  0.1431E+02  0.1789E+02  0.8973E+02  0.7450E+02
      7.272  0.1377E+02  0.1854E+02  0.9053E+02  0.7558E+02
      7.330  0.1354E+02  0.1879E+02  0.9132E+02  0.7667E+02
      7.388  0.1330E+02  0.1845E+02  0.9209E+02  0.7774E+02
      7.446  0.1291E+02  0.1767E+02  0.9284E+02  0.7877E+02
      7.504  0.1240E+02  0.1683E+02  0.9356E+02  0.7975E+02
      7.563  0.1185E+02  0.1633E+02  0.9425E+02  0.8070E+02
      7.621  0.1133E+02  0.1637E+02  0.9491E+02  0.8165E+02
      7.679  0.1091E+02  0.1678E+02  0.9555E+02  0.8263E+02
      7.737  0.1072E+02  0.1715E+02  0.9617E+02  0.8362E+02
      7.795  0.1091E+02  0.1712E+02  0.9680E+02  0.8462E+02
      7.853  0.1154E+02  0.1663E+02  0.9748E+02  0.8559E+02
      7.911  0.1253E+02  0.1587E+02  0.9820E+02  0.8651E+02
      7.970  0.1365E+02  0.1515E+02  0.9900E+02  0.8739E+02
      8.028  0.1462E+02  0.1469E+02  0.9985E+02  0.8824E+02
      8.086  0.1527E+02  0.1457E+02  0.1007E+03  0.8909E+02
      8.144  0.1563E+02  0.1475E+02  0.1016E+03  0.8995E+02
      8.202  0.1582E+02  0.1509E+02  0.1026E+03  0.9083E+02
      8.260  0.1590E+02  0.1545E+02  0.1035E+03  0.9172E+02
      8.319  0.1578E+02  0.1576E+02  0.1044E+03  0.9264E+02
      8.377  0.1527E+02  0.1609E+02  0.1053E+03  0.9358E+02
      8.435  0.1427E+02  0.1659E+02  0.1061E+03  0.9454E+02
      8.493  0.1286E+02  0.1737E+02  0.1069E+03  0.9555E+02
      8.551  0.1135E+02  0.1847E+02  0.1075E+03  0.9663E+02
      8.609  0.1013E+02  0.1988E+02  0.1081E+03  0.9778E+02
      8.667  0.9529E+01  0.2143E+02  0.1087E+03  0.9903E+02
      8.726  0.9709E+01  0.2274E+02  0.1092E+03  0.1004E+03
      8.784  0.1054E+02  0.2335E+02  0.1099E+03  0.1017E+03
      8.842  0.1163E+02  0.2299E+02  0.1105E+03  0.1030E+03
      8.900  0.1249E+02  0.2178E+02  0.1113E+03  0.1043E+03
      8.958  0.1282E+02  0.2017E+02  0.1120E+03  0.1055E+03
      9.016  0.1266E+02  0.1869E+02  0.1127E+03  0.1066E+03
      9.075  0.1223E+02  0.1760E+02  0.1134E+03  0.1076E+03
      9.133  0.1173E+02  0.1682E+02  0.1141E+03  0.1086E+03
      9.191  0.1117E+02  0.1610E+02  0.1148E+03  0.1095E+03
      9.249  0.1049E+02  0.1530E+02  0.1154E+03  0.1104E+03
      9.307  0.9668E+01  0.1451E+02  0.1160E+03  0.1112E+03
      9.365  0.8692E+01  0.1381E+02  0.1165E+03  0.1120E+03
      9.423  0.7549E+01  0.1314E+02  0.1169E+03  0.1128E+03
      9.482  0.6231E+01  0.1238E+02  0.1173E+03  0.1135E+03
      9.540  0.4803E+01  0.1158E+02  0.1175E+03  0.1142E+03
      9.598  0.3408E+01  0.1089E+02  0.1177E+03  0.1148E+03
      9.656  0.2192E+01  0.1036E+02  0.1179E+03  0.1154E+03
      9.714  0.1244E+01  0.9758E+01  0.1179E+03  0.1160E+03
      9.772  0.5863E+00  0.8839E+01  0.1180E+03  0.1165E+03
      9.831  0.2030E+00  0.7515E+01  0.1180E+03  0.1170E+03
      9.889  0.4210E-01  0.5941E+01  0.1180E+03  0.1173E+03
      9.947  0.2201E-01  0.4366E+01  0.1180E+03  0.1176E+03
     10.005  0.5379E-01  0.2980E+01  0.1180E+03  0.1177E+03
     10.063  0.7471E-01  0.1861E+01  0.1180E+03  0.1178E+03
     10.121  0.6492E-01  0.1025E+01  0.1180E+03  0.1179E+03
     10.180  0.3679E-01  0.4591E+00  0.1180E+03  0.1179E+03
     10.238  0.1047E-01  0.1289E+00  0.1180E+03  0.1179E+03
     10.296 -0.3610E-02 -0.2494E-01  0.1180E+03  0.1179E+03
     10.354 -0.6754E-02 -0.7137E-01  0.1180E+03  0.1179E+03
     10.412 -0.4889E-02 -0.6823E-01  0.1180E+03  0.1179E+03
     10.470 -0.2437E-02 -0.5181E-01  0.1180E+03  0.1179E+03
     10.528 -0.9304E-03 -0.3525E-01  0.1180E+03  0.1179E+03
     10.587 -0.2832E-03 -0.1200E-01  0.1180E+03  0.1179E+03
     10.645 -0.7008E-04  0.3427E-01  0.1180E+03  0.1179E+03
     10.703 -0.1425E-04  0.1122E+00  0.1180E+03  0.1179E+03
     10.761 -0.2399E-05  0.2065E+00  0.1180E+03  0.1179E+03
     10.819 -0.3358E-06  0.2797E+00  0.1180E+03  0.1180E+03
     10.877 -0.3920E-07  0.2963E+00  0.1180E+03  0.1180E+03
     10.936 -0.3828E-08  0.2493E+00  0.1180E+03  0.1180E+03
     10.994 -0.3130E-09  0.1643E+00  0.1180E+03  0.1180E+03
     11.052 -0.2148E-10  0.7954E-01  0.1180E+03  0.1180E+03
     11.110 -0.1238E-11  0.2113E-01  0.1180E+03  0.1180E+03
     11.168 -0.5992E-13 -0.6139E-02  0.1180E+03  0.1180E+03
     11.226 -0.2495E-14 -0.1200E-01  0.1180E+03  0.1180E+03
     11.284 -0.5091E-16 -0.8855E-02  0.1180E+03  0.1180E+03
     11.343  0.0000E+00 -0.4558E-02  0.1180E+03  0.1180E+03
     11.401  0.0000E+00 -0.1819E-02  0.1180E+03  0.1180E+03
     11.459  0.0000E+00 -0.5843E-03  0.1180E+03  0.1180E+03
     11.517  0.0000E+00 -0.1535E-03  0.1180E+03  0.1180E+03
     11.575  0.0000E+00 -0.3330E-04  0.1180E+03  0.1180E+03
     11.633  0.0000E+00 -0.5996E-05  0.1180E+03  0.1180E+03
     11.692  0.0000E+00 -0.8992E-06  0.1180E+03  0.1180E+03
     11.750  0.0000E+00 -0.1126E-06  0.1180E+03  0.1180E+03
     11.808  0.0000E+00 -0.1180E-07  0.1180E+03  0.1180E+03
     11.866  0.0000E+00 -0.1035E-08  0.1180E+03  0.1180E+03
     11.924  0.0000E+00 -0.7620E-10  0.1180E+03  0.1180E+03
     11.982  0.0000E+00 -0.4708E-11  0.1180E+03  0.1180E+03
     12.040  0.0000E+00 -0.2445E-12  0.1180E+03  0.1180E+03
     12.099  0.0000E+00 -0.1059E-13  0.1180E+03  0.1180E+03
     12.157  0.0000E+00 -0.4073E-15  0.1180E+03  0.1180E+03
     12.215  0.0000E+00  0.0000E+00  0.1180E+03  0.1180E+03
     12.273  0.0000E+00  0.0000E+00  0.1180E+03  0.1180E+03
     12.331  0.0000E+00  0.0000E+00  0.1180E+03  0.1180E+03
     12.389  0.0000E+00  0.0000E+00  0.1180E+03  0.1180E+03
     12.448  0.0000E+00  0.0000E+00  0.1180E+03  0.1180E+03
     12.506  0.0000E+00  0.0000E+00  0.1180E+03  0.1180E+03
     12.564  0.0000E+00  0.0000E+00  0.1180E+03  0.1180E+03
     12.622  0.0000E+00  0.0000E+00  0.1180E+03  0.1180E+03
     12.680  0.0000E+00  0.0000E+00  0.1180E+03  0.1180E+03
     12.738  0.0000E+00  0.0000E+00  0.1180E+03  0.1180E+03
     12.796  0.0000E+00  0.0000E+00  0.1180E+03  0.1180E+03
     12.855  0.0000E+00  0.0000E+00  0.1180E+03  0.1180E+03
     12.913  0.0000E+00  0.0000E+00  0.1180E+03  0.1180E+03
     12.91279835     -4.53375655  301      7.74441420      1.00000000
     -4.534  0.0000E+00  0.0000E+00  0.0000E+00  0.0000E+00  0.0000E+00  0.0000E+00
     -4.476  0.0000E+00  0.0000E+00  0.0000E+00  0.0000E+00  0.0000E+00  0.0000E+00
     -4.417  0.0000E+00  0.0000E+00  0.0000E+00  0.0000E+00  0.0000E+00  0.0000E+00
     -4.359  0.0000E+00  0.0000E+00  0.0000E+00  0.0000E+00  0.0000E+00  0.0000E+00
     -4.301  0.0000E+00  0.0000E+00  0.0000E+00  0.0000E+00  0.0000E+00  0.0000E+00
     -4.243  0.0000E+00  0.0000E+00  0.0000E+00  0.0000E+00  0.0000E+00  0.0000E+00
     -4.185 -0.7853E-32  0.0000E+00 -0.8154E-36  0.0000E+00  0.0000E+00  0.0000E+00
     -4.127 -0.8389E-30 -0.1203E-30 -0.8711E-34 -0.1418E-34  0.0000E+00  0.0000E+00
     -4.069 -0.7655E-28 -0.1171E-28 -0.1030E-31 -0.1697E-32  0.0000E+00  0.0000E+00
     -4.010 -0.5866E-26 -0.9653E-27 -0.8421E-30 -0.1475E-30  0.0000E+00  0.0000E+00
     -3.952 -0.3791E-24 -0.6712E-25 -0.5895E-28 -0.1097E-28  0.0000E+00  0.0000E+00
     -3.894 -0.2065E-22 -0.3935E-23 -0.3533E-26 -0.6967E-27  0.0000E+00  0.0000E+00
     -3.836 -0.9486E-21 -0.1945E-21 -0.1815E-24 -0.3789E-25  0.0000E+00  0.0000E+00
     -3.778 -0.3673E-19 -0.8106E-20 -0.7996E-23 -0.1766E-23  0.0000E+00  0.0000E+00
     -3.720 -0.1199E-17 -0.2848E-18 -0.3021E-21 -0.7059E-22  0.0000E+00  0.0000E+00
     -3.661 -0.3197E-16 -0.8205E-17 -0.9674E-20 -0.2392E-20  0.0000E+00  0.0000E+00
     -3.603 -0.7398E-15 -0.2038E-15 -0.2632E-18 -0.6960E-19  0.0000E+00  0.0000E+00
     -3.545 -0.1442E-13 -0.4275E-14 -0.6210E-17 -0.1727E-17  0.0000E+00  0.0000E+00
     -3.487 -0.2369E-12 -0.7560E-13 -0.1251E-15 -0.3699E-16  0.0000E+00  0.0000E+00
     -3.429 -0.3281E-11 -0.1127E-11 -0.2145E-14 -0.6754E-15  0.0000E+00  0.0000E+00
     -3.371 -0.3832E-10 -0.1417E-10 -0.3124E-13 -0.1049E-13  0.0000E+00  0.0000E+00
     -3.312 -0.3776E-09 -0.1502E-09 -0.3860E-12 -0.1385E-12  0.0000E+00  0.0000E+00
     -3.254 -0.3140E-08 -0.1344E-08 -0.4038E-11 -0.1550E-11  0.0000E+00  0.0000E+00
     -3.196 -0.2205E-07 -0.1015E-07 -0.3571E-10 -0.1469E-10  0.0000E+00  0.0000E+00
     -3.138 -0.1308E-06 -0.6481E-07 -0.2666E-09 -0.1176E-09  0.0000E+00  0.0000E+00
     -3.080 -0.6560E-06 -0.3495E-06 -0.1678E-08 -0.7953E-09  0.0000E+00  0.0000E+00
     -3.022 -0.2777E-05 -0.1593E-05 -0.8892E-08 -0.4531E-08  0.0000E+00  0.0000E+00
     -2.964 -0.9909E-05 -0.6123E-05 -0.3956E-07 -0.2171E-07  0.0000E+00  0.0000E+00
     -2.905 -0.2964E-04 -0.1979E-04 -0.1472E-06 -0.8720E-07  0.0000E+00  0.0000E+00
     -2.847 -0.7346E-04 -0.5332E-04 -0.4554E-06 -0.2922E-06  0.0000E+00  0.0000E+00
     -2.789 -0.1470E-03 -0.1176E-03 -0.1157E-05 -0.8094E-06  0.0000E+00  0.0000E+00
     -2.731 -0.2222E-03 -0.2035E-03 -0.2353E-05 -0.1820E-05  0.0000E+00  0.0000E+00
     -2.673 -0.1955E-03 -0.2415E-03 -0.3610E-05 -0.3192E-05  0.0000E+00  0.0000E+00
     -2.615  0.1293E-03 -0.6607E-04 -0.3385E-05 -0.3900E-05  0.0000E+00  0.0000E+00
     -2.556  0.9721E-03  0.5588E-03  0.9493E-06 -0.1655E-05  0.0000E+00  0.0000E+00
     -2.498  0.2404E-02  0.1800E-02  0.1172E-04  0.6335E-05  0.0000E+00  0.0000E+00
     -2.440  0.4187E-02  0.3555E-02  0.2895E-04  0.2134E-04  0.0000E+00  0.0000E+00
     -2.382  0.5842E-02  0.5403E-02  0.5066E-04  0.4192E-04  0.0000E+00  0.0000E+00
     -2.324  0.7037E-02  0.6881E-02  0.7788E-04  0.6687E-04  0.0000E+00  0.0000E+00
     -2.266  0.7985E-02  0.7957E-02  0.1200E-03  0.1015E-03  0.0000E+00  0.0000E+00
     -2.208  0.9326E-02  0.9185E-02  0.1901E-03  0.1588E-03  0.0000E+00  0.0000E+00
     -2.149  0.1139E-01  0.1114E-01  0.2878E-03  0.2466E-03  0.0000E+00  0.0000E+00
     -2.091  0.1353E-01  0.1358E-01  0.3845E-03  0.3486E-03  0.0000E+00  0.0000E+00
     -2.033  0.1448E-01  0.1528E-01  0.4390E-03  0.4252E-03  0.0000E+00  0.0000E+00
     -1.975  0.1367E-01  0.1518E-01  0.4392E-03  0.4469E-03  0.0000E+00  0.0000E+00
     -1.917  0.1210E-01  0.1367E-01  0.4299E-03  0.4355E-03  0.0000E+00  0.0000E+00
     -1.859  0.1166E-01  0.1251E-01  0.4855E-03  0.4612E-03  0.0000E+00  0.0000E+00
     -1.800  0.1340E-01  0.1334E-01  0.6430E-03  0.5849E-03  0.0000E+00  0.0000E+00
     -1.742  0.1655E-01  0.1603E-01  0.8620E-03  0.7985E-03  0.0000E+00  0.0000E+00
     -1.684  0.1921E-01  0.1892E-01  0.1053E-02  0.1023E-02  0.0000E+00  0.0000E+00
     -1.626  0.2000E-01  0.2027E-01  0.1150E-02  0.1173E-02  0.0000E+00  0.0000E+00
     -1.568  0.1917E-01  0.1980E-01  0.1168E-02  0.1225E-02  0.0000E+00  0.0000E+00
     -1.510  0.1821E-01  0.1869E-01  0.1195E-02  0.1241E-02  0.0000E+00  0.0000E+00
     -1.452  0.1849E-01  0.1851E-01  0.1311E-02  0.1315E-02  0.0000E+00  0.0000E+00
     -1.393  0.1986E-01  0.1968E-01  0.1493E-02  0.1478E-02  0.0000E+00  0.0000E+00
     -1.335  0.2071E-01  0.2100E-01  0.1614E-02  0.1638E-02  0.0000E+00  0.0000E+00
     -1.277  0.1974E-01  0.2081E-01  0.1575E-02  0.1666E-02  0.0000E+00  0.0000E+00
     -1.219  0.1773E-01  0.1904E-01  0.1455E-02  0.1557E-02  0.0000E+00  0.0000E+00
     -1.161  0.1708E-01  0.1765E-01  0.1479E-02  0.1494E-02  0.0000E+00  0.0000E+00
     -1.103  0.1933E-01  0.1874E-01  0.1794E-02  0.1686E-02  0.0000E+00  0.0000E+00
     -1.044  0.2352E-01  0.2231E-01  0.2307E-02  0.2145E-02  0.0000E+00  0.0000E+00
     -0.986  0.2716E-01  0.2623E-01  0.2771E-02  0.2665E-02  0.0000E+00  0.0000E+00
     -0.928  0.2872E-01  0.2848E-01  0.3026E-02  0.3022E-02  0.0000E+00  0.0000E+00
     -0.870  0.2860E-01  0.2883E-01  0.3118E-02  0.3174E-02  0.0000E+00  0.0000E+00
     -0.812  0.2788E-01  0.2832E-01  0.3172E-02  0.3235E-02  0.0000E+00  0.0000E+00
     -0.754  0.2682E-01  0.2759E-01  0.3205E-02  0.3281E-02  0.0000E+00  0.0000E+00
     -0.696  0.2489E-01  0.2624E-01  0.3098E-02  0.3246E-02  0.0000E+00  0.0000E+00
     -0.637  0.2218E-01  0.2391E-01  0.2793E-02  0.3030E-02  0.0000E+00  0.0000E+00
     -0.579  0.2018E-01  0.2146E-01  0.2452E-02  0.2699E-02  0.0000E+00  0.0000E+00
     -0.521  0.2080E-01  0.2064E-01  0.2387E-02  0.2520E-02  0.0000E+00  0.0000E+00
     -0.463  0.2445E-01  0.2258E-01  0.2795E-02  0.2753E-02  0.0000E+00  0.0000E+00
     -0.405  0.2958E-01  0.2663E-01  0.3581E-02  0.3421E-02  0.0000E+00  0.0000E+00
     -0.347  0.3398E-01  0.3105E-01  0.4429E-02  0.4279E-02  0.0000E+00  0.0000E+00
     -0.288  0.3647E-01  0.3439E-01  0.5038E-02  0.4998E-02  0.0000E+00  0.0000E+00
     -0.230  0.3726E-01  0.3620E-01  0.5301E-02  0.5382E-02  0.0000E+00  0.0000E+00
     -0.172  0.3714E-01  0.3665E-01  0.5314E-02  0.5462E-02  0.0000E+00  0.0000E+00
     -0.114  0.3662E-01  0.3615E-01  0.5243E-02  0.5415E-02  0.0000E+00  0.0000E+00
     -0.056  0.3585E-01  0.3531E-01  0.5167E-02  0.5376E-02  0.0000E+00  0.0000E+00
      0.002  0.3501E-01  0.3482E-01  0.5063E-02  0.5334E-02  0.0000E+00  0.0000E+00
      0.061  0.3452E-01  0.3496E-01  0.4922E-02  0.5210E-02  0.0000E+00  0.0000E+00
      0.119  0.3479E-01  0.3539E-01  0.4860E-02  0.5049E-02  0.0000E+00  0.0000E+00
      0.177  0.3585E-01  0.3564E-01  0.5057E-02  0.5051E-02  0.0000E+00  0.0000E+00
      0.235  0.3723E-01  0.3570E-01  0.5554E-02  0.5387E-02  0.0000E+00  0.0000E+00
      0.293  0.3810E-01  0.3592E-01  0.6131E-02  0.5969E-02  0.0000E+00  0.0000E+00
      0.351  0.3760E-01  0.3614E-01  0.6436E-02  0.6449E-02  0.0000E+00  0.0000E+00
      0.409  0.3543E-01  0.3545E-01  0.6300E-02  0.6503E-02  0.0000E+00  0.0000E+00
      0.468  0.3246E-01  0.3336E-01  0.5935E-02  0.6157E-02  0.0000E+00  0.0000E+00
      0.526  0.3053E-01  0.3093E-01  0.5802E-02  0.5822E-02  0.0000E+00  0.0000E+00
      0.584  0.3109E-01  0.3022E-01  0.6212E-02  0.5950E-02  0.0000E+00  0.0000E+00
      0.642  0.3388E-01  0.3230E-01  0.7058E-02  0.6628E-02  0.0000E+00  0.0000E+00
      0.700  0.3718E-01  0.3607E-01  0.7962E-02  0.7544E-02  0.0000E+00  0.0000E+00
      0.758  0.3950E-01  0.3945E-01  0.8649E-02  0.8336E-02  0.0000E+00  0.0000E+00
      0.817  0.4038E-01  0.4121E-01  0.9087E-02  0.8880E-02  0.0000E+00  0.0000E+00
      0.875  0.3991E-01  0.4136E-01  0.9289E-02  0.9210E-02  0.0000E+00  0.0000E+00
      0.933  0.3808E-01  0.4029E-01  0.9176E-02  0.9276E-02  0.0000E+00  0.0000E+00
      0.991  0.3539E-01  0.3830E-01  0.8754E-02  0.8993E-02  0.0000E+00  0.0000E+00
      1.049  0.3318E-01  0.3613E-01  0.8296E-02  0.8489E-02  0.0000E+00  0.0000E+00
      1.107  0.3263E-01  0.3489E-01  0.8139E-02  0.8119E-02  0.0000E+00  0.0000E+00
      1.165  0.3341E-01  0.3502E-01  0.8311E-02  0.8111E-02  0.0000E+00  0.0000E+00
      1.224  0.3404E-01  0.3558E-01  0.8545E-02  0.8310E-02  0.0000E+00  0.0000E+00
      1.282  0.3378E-01  0.3540E-01  0.8673E-02  0.8418E-02  0.0000E+00  0.0000E+00
      1.340  0.3333E-01  0.3458E-01  0.8809E-02  0.8420E-02  0.0000E+00  0.0000E+00
      1.398  0.3336E-01  0.3408E-01  0.9069E-02  0.8579E-02  0.0000E+00  0.0000E+00
      1.456  0.3328E-01  0.3406E-01  0.9341E-02  0.9008E-02  0.0000E+00  0.0000E+00
      1.514  0.3224E-01  0.3354E-01  0.9519E-02  0.9493E-02  0.0000E+00  0.0000E+00
      1.573  0.3108E-01  0.3206E-01  0.9869E-02  0.9848E-02  0.0000E+00  0.0000E+00
      1.631  0.3200E-01  0.3100E-01  0.1087E-01  0.1030E-01  0.0000E+00  0.0000E+00
      1.689  0.3611E-01  0.3248E-01  0.1264E-01  0.1133E-01  0.0000E+00  0.0000E+00
      1.747  0.4174E-01  0.3704E-01  0.1458E-01  0.1310E-01  0.0000E+00  0.0000E+00
      1.805  0.4565E-01  0.4265E-01  0.1576E-01  0.1510E-01  0.0000E+00  0.0000E+00
      1.863  0.4583E-01  0.4626E-01  0.1566E-01  0.1641E-01  0.0000E+00  0.0000E+00
      1.921  0.4296E-01  0.4627E-01  0.1457E-01  0.1645E-01  0.0000E+00  0.0000E+00
      1.980  0.3948E-01  0.4361E-01  0.1331E-01  0.1541E-01  0.0000E+00  0.0000E+00
      2.038  0.3765E-01  0.4058E-01  0.1262E-01  0.1407E-01  0.0000E+00  0.0000E+00
      2.096  0.3847E-01  0.3889E-01  0.1284E-01  0.1322E-01  0.0000E+00  0.0000E+00
      2.154  0.4171E-01  0.3898E-01  0.1377E-01  0.1322E-01  0.0000E+00  0.0000E+00
      2.212  0.4603E-01  0.4066E-01  0.1481E-01  0.1397E-01  0.0000E+00  0.0000E+00
      2.270  0.4922E-01  0.4343E-01  0.1523E-01  0.1503E-01  0.0000E+00  0.0000E+00
      2.329  0.4925E-01  0.4632E-01  0.1460E-01  0.1575E-01  0.0000E+00  0.0000E+00
      2.387  0.4557E-01  0.4791E-01  0.1320E-01  0.1556E-01  0.0000E+00  0.0000E+00
      2.445  0.3972E-01  0.4708E-01  0.1186E-01  0.1448E-01  0.0000E+00  0.0000E+00
      2.503  0.3436E-01  0.4377E-01  0.1140E-01  0.1316E-01  0.0000E+00  0.0000E+00
      2.561  0.3172E-01  0.3914E-01  0.1215E-01  0.1245E-01  0.0000E+00  0.0000E+00
      2.619  0.3236E-01  0.3489E-01  0.1388E-01  0.1281E-01  0.0000E+00  0.0000E+00
      2.677  0.3498E-01  0.3244E-01  0.1601E-01  0.1415E-01  0.0000E+00  0.0000E+00
      2.736  0.3733E-01  0.3213E-01  0.1799E-01  0.1600E-01  0.0000E+00  0.0000E+00
      2.794  0.3770E-01  0.3322E-01  0.1948E-01  0.1788E-01  0.0000E+00  0.0000E+00
      2.852  0.3597E-01  0.3448E-01  0.2033E-01  0.1951E-01  0.0000E+00  0.0000E+00
      2.910  0.3331E-01  0.3491E-01  0.2063E-01  0.2071E-01  0.0000E+00  0.0000E+00
      2.968  0.3116E-01  0.3402E-01  0.2083E-01  0.2139E-01  0.0000E+00  0.0000E+00
      3.026  0.3024E-01  0.3183E-01  0.2140E-01  0.2164E-01  0.0000E+00  0.0000E+00
      3.085  0.3020E-01  0.2898E-01  0.2228E-01  0.2194E-01  0.0000E+00  0.0000E+00
      3.143  0.3002E-01  0.2642E-01  0.2275E-01  0.2276E-01  0.0000E+00  0.0000E+00
      3.201  0.2896E-01  0.2470E-01  0.2222E-01  0.2386E-01  0.0000E+00  0.0000E+00
      3.259  0.2708E-01  0.2356E-01  0.2097E-01  0.2434E-01  0.0000E+00  0.0000E+00
      3.317  0.2485E-01  0.2232E-01  0.1985E-01  0.2366E-01  0.0000E+00  0.0000E+00
      3.375  0.2249E-01  0.2057E-01  0.1938E-01  0.2226E-01  0.0000E+00  0.0000E+00
      3.434  0.1990E-01  0.1837E-01  0.1955E-01  0.2110E-01  0.0000E+00  0.0000E+00