   36   36    1    2
  0.1314651E+02  0.8250148E-09  0.8250148E-09  0.6953274E-09  0.2000000E-15
  1.000000000000000E-004
  CAR 
 AlMn_pv                                 
    180     52    118
 
  0.0000000E+00  0.0000000E+00  0.0000000E+00  0.6666667E-02
    1       -2.533757     -2.508779   1.000000   1.000000
    2       -0.371910     -0.360816   1.000000   1.000000
    3       -0.364266     -0.326168   1.000000   1.000000
    4       -0.347804     -0.321251   1.000000   1.000000
    5       -0.323676     -0.287318   1.000000   1.000000
    6       -0.117034     -0.132994   1.000000   1.000000
    7        1.330378      1.376937   1.000000   1.000000
    8        1.343284      1.404496   1.000000   1.000000
    9        1.371973      1.408902   1.000000   1.000000
   10        1.375127      1.442264   1.000000   1.000000
   11        1.406341      1.457163   1.000000   1.000000
   12        1.539100      1.586837   1.000000   1.000000
   13        1.545979      1.597098   1.000000   1.000000
   14        1.581987      1.641113   1.000000   1.000000
   15        1.589174      1.648683   1.000000   1.000000
   16        2.694034      2.794882   1.000000   1.000000
   17        2.695775      2.803449   1.000000   1.000000
   18        2.763981      2.877049   1.000000   1.000000
   19        2.769092      2.884310   1.000000   1.000000
   20        3.440757      3.517923   1.000000   1.000000
   21        3.481884      3.608070   1.000000   1.000000
   22        3.507755      3.615207   1.000000   1.000000
   23        3.575292      3.689942   1.000000   1.000000
   24        4.039440      4.176998   1.000000   1.000000
   25        4.100774      4.255261   1.000000   1.000000
   26        4.255771      4.530595   1.000000   1.000000
   27        4.361900      4.552091   1.000000   1.000000
   28        4.470206      4.670345   1.000000   1.000000
   29        4.537940      4.681322   1.000000   1.000000
   30        4.553345      4.731805   1.000000   1.000000
   31        4.578787      4.764020   1.000000   1.000000
   32        4.631819      4.844927   1.000000   1.000000
   33        4.656966      4.852940   1.000000   1.000000
   34        4.675545      4.911765   1.000000   1.000000
   35        4.691326      4.983668   1.000000   1.000000
   36        4.794033      5.040382   1.000000   1.000000
   37        4.796528      5.114869   1.000000   1.000000
   38        4.799474      5.166547   1.000000   1.000000
   39        4.878274      5.238239   1.000000   1.000000
   40        4.981658      5.275282   1.000000   1.000000
   41        5.183730      5.383080   1.000000   1.000000
   42        5.220544      5.452748   1.000000   1.000000
   43        5.303044      5.470340   1.000000   1.000000
   44        5.309975      5.522836   1.000000   1.000000
   45        5.347494      5.550235   1.000000   1.000000
   46        5.361763      5.591346   1.000000   1.000000
   47        5.412523      5.611171   1.000000   1.000000
   48        5.421534      5.660251   1.000000   1.000000
   49        5.430014      5.740600   1.000000   1.000000
   50        5.435998      5.743523   1.000000   1.000000
   51        5.505677      5.793642   1.000000   1.000000
   52        5.520450      5.896260   1.000000   1.000000
   53        5.562959      5.958945   1.000000   1.000000
   54        5.673647      6.169272   1.000000   1.000000
   55        5.698768      6.229532   1.000000   1.000000
   56        5.758430      6.329206   1.000000   1.000000
   57        5.784689      6.350200   1.000000   1.000000
   58        5.855196      6.386103   1.000000   1.000000
   59        5.883018      6.435634   1.000000   1.000000
   60        5.943885      6.437067   1.000000   1.000000
   61        5.990294      6.527387   1.000000   1.000000
   62        6.087317      6.534289   1.000000   1.000000
   63        6.200173      6.546415   1.000000   1.000000
   64        6.238812      6.563092   1.000000   1.000000
   65        6.264702      6.586541   1.000000   1.000000
   66        6.381068      6.622538   1.000000   1.000000
   67        6.399969      6.752138   1.000000   1.000000
   68        6.404720      6.790436   1.000000   1.000000
   69        6.416641      6.832760   1.000000   1.000000
   70        6.442072      6.892061   1.000000   1.000000
   71        6.473307      6.893415   1.000000   1.000000
   72        6.487160      7.083347   1.000000   1.000015
   73        6.538621      7.181610   1.000000   1.000254
   74        6.560128      7.217402   1.000000   1.000619
   75        6.599563      7.235533   1.000000   1.000949
   76        6.675317      7.311238   1.000000   1.004510
   77        6.684607      7.352659   1.000000   1.009114
   78        6.693917      7.432154   1.000000   1.024853
   79        6.728699      7.432395   1.000000   1.024912
   80        6.738985      7.537092   1.000000   1.028524
   81        6.777416      7.547628   1.000000   1.023401
   82        6.866708      7.636309   1.000000   0.891394
   83        6.867796      7.698255   1.000000   0.689805
   84        6.912686      7.734049   1.000000   0.543858
   85        6.913480      7.753301   1.000000   0.462107
   86        6.967218      7.834877   1.000000   0.157056
   87        7.072027      7.959957   1.000011  -0.031414
   88        7.106603      8.053608   1.000031  -0.025574
   89        7.162525      8.121006   1.000153  -0.011456
   90        7.200506      8.180158   1.000412  -0.004297
   91        7.284620      8.236191   1.002705  -0.001388
   92        7.323881      8.340746   1.005652  -0.000103
   93        7.371689      8.379976   1.012109  -0.000033
   94        7.401779      8.492785   1.017975  -0.000001
   95        7.510881      8.551685   1.034915  -0.000000
   96        7.593530      8.634396   0.977516  -0.000000
   97        7.854269      8.649305   0.104030  -0.000000
   98        7.886825      8.660963   0.036046  -0.000000
   99        7.976570      8.684641  -0.034763  -0.000000
  100        8.058659      8.719903  -0.024398  -0.000000
  101        8.061890      8.748363  -0.023645  -0.000000
  102        8.147757      8.834087  -0.007571  -0.000000
  103        8.158667      8.856630  -0.006303  -0.000000
  104        8.241220      8.875618  -0.001246  -0.000000
  105        8.261739      8.894654  -0.000780  -0.000000
  106        8.341131      8.899024  -0.000103  -0.000000
  107        8.346433      8.917738  -0.000089  -0.000000
  108        8.528402      8.919601  -0.000000  -0.000000
  109        8.550243      8.956861  -0.000000  -0.000000
  110        8.611443      9.012395  -0.000000  -0.000000
  111        8.683888      9.042160  -0.000000  -0.000000
  112        8.728585      9.064298  -0.000000  -0.000000
  113        8.760595      9.108472  -0.000000  -0.000000
  114        8.840551      9.136403  -0.000000  -0.000000
  115        8.945421      9.147779  -0.000000  -0.000000
  116        9.090702      9.194127  -0.000000  -0.000000
  117        9.121742      9.445824  -0.000000  -0.000000
  118        9.248060      9.478744  -0.000000  -0.000000
 
  0.2000000E+00  0.0000000E+00  0.0000000E+00  0.1333333E-01
    1       -2.443194     -2.418471   1.000000   1.000000
    2       -1.117686     -1.090587   1.000000   1.000000
    3       -0.276320     -0.243225   1.000000   1.000000
    4       -0.262083     -0.240711   1.000000   1.000000
    5       -0.052290     -0.066234   1.000000   1.000000
    6        0.549642      0.583343   1.000000   1.000000
    7        0.871674      0.890578   1.000000   1.000000
    8        0.907399      0.952234   1.000000   1.000000
    9        0.918737      0.955960   1.000000   1.000000
   10        1.434050      1.469326   1.000000   1.000000
   11        1.437960      1.472585   1.000000   1.000000
   12        1.440297      1.537514   1.000000   1.000000
   13        1.879051      1.973239   1.000000   1.000000
   14        2.275613      2.356447   1.000000   1.000000
   15        2.278912      2.361454   1.000000   1.000000
   16        2.288575      2.369257   1.000000   1.000000
   17        2.295348      2.372161   1.000000   1.000000
   18        2.783547      2.888133   1.000000   1.000000
   19        3.158546      3.319174   1.000000   1.000000
   20        3.190812      3.339957   1.000000   1.000000
   21        3.559881      3.660190   1.000000   1.000000
   22        3.572681      3.671258   1.000000   1.000000
   23        3.702654      3.778202   1.000000   1.000000
   24        4.017642      4.152170   1.000000   1.000000
   25        4.067757      4.215392   1.000000   1.000000
   26        4.214295      4.386680   1.000000   1.000000
   27        4.259741      4.488564   1.000000   1.000000
   28        4.317872      4.626960   1.000000   1.000000
   29        4.452864      4.673239   1.000000   1.000000
   30        4.500978      4.697262   1.000000   1.000000
   31        4.506516      4.723319   1.000000   1.000000
   32        4.508996      4.724392   1.000000   1.000000
   33        4.604315      4.792806   1.000000   1.000000
   34        4.621668      4.857223   1.000000   1.000000
   35        4.710352      4.952364   1.000000   1.000000
   36        4.861364      4.991460   1.000000   1.000000
   37        4.874273      5.166185   1.000000   1.000000
   38        4.910644      5.174249   1.000000   1.000000
   39        4.945548      5.198276   1.000000   1.000000
   40        4.966609      5.217533   1.000000   1.000000
   41        5.042058      5.273664   1.000000   1.000000
   42        5.212545      5.469846   1.000000   1.000000
   43        5.238802      5.487247   1.000000   1.000000
   44        5.300121      5.502108   1.000000   1.000000
   45        5.309085      5.541938   1.000000   1.000000
   46        5.358283      5.622245   1.000000   1.000000
   47        5.408437      5.636562   1.000000   1.000000
   48        5.428423      5.648182   1.000000   1.000000
   49        5.453919      5.731982   1.000000   1.000000
   50        5.472848      5.771193   1.000000   1.000000
   51        5.540614      5.867815   1.000000   1.000000
   52        5.570205      5.889080   1.000000   1.000000
   53        5.660245      5.996955   1.000000   1.000000
   54        5.700327      6.162802   1.000000   1.000000
   55        5.710841      6.254837   1.000000   1.000000
   56        5.764462      6.304334   1.000000   1.000000
   57        5.818002      6.340618   1.000000   1.000000
   58        5.832025      6.363015   1.000000   1.000000
   59        5.945058      6.397877   1.000000   1.000000
   60        5.970278      6.419825   1.000000   1.000000
   61        6.005636      6.468120   1.000000   1.000000
   62        6.067836      6.521973   1.000000   1.000000
   63        6.136574      6.555382   1.000000   1.000000
   64        6.233527      6.557013   1.000000   1.000000
   65        6.306863      6.631316   1.000000   1.000000
   66        6.334831      6.702528   1.000000   1.000000
   67        6.348318      6.720413   1.000000   1.000000
   68        6.381427      6.753898   1.000000   1.000000
   69        6.405399      6.808116   1.000000   1.000000
   70        6.436297      6.946186   1.000000   1.000000
   71        6.454649      6.975564   1.000000   1.000000
   72        6.498684      7.044130   1.000000   1.000004
   73        6.532455      7.179323   1.000000   1.000239
   74        6.568208      7.207257   1.000000   1.000485
   75        6.590618      7.265643   1.000000   1.001836
   76        6.604378      7.341763   1.000000   1.007660
   77        6.623577      7.346169   1.000000   1.008224
   78        6.687559      7.399798   1.000000   1.017553
   79        6.709532      7.465319   1.000000   1.031936
   80        6.732556      7.480795   1.000000   1.034286
   81        6.763714      7.539733   1.000000   1.027404
   82        6.824520      7.555644   1.000000   1.018281
   83        6.844813      7.690911   1.000000   0.717671
   84        6.894499      7.734835   1.000000   0.540172
   85        6.907115      7.772610   1.000000   0.382188
   86        6.928083      7.835501   1.000000   0.155232
   87        6.956653      7.967274   1.000000  -0.033278
   88        6.972418      8.009659   1.000000  -0.034084
   89        7.047696      8.099254   1.000005  -0.015443
   90        7.170427      8.130245   1.000190  -0.009985
   91        7.191925      8.227842   1.000331  -0.001662
   92        7.333285      8.273730   1.006652  -0.000587
   93        7.488328      8.312978   1.035016  -0.000219
   94        7.506363      8.476764   1.035270  -0.000001
   95        7.571863      8.509847   1.004427  -0.000000
   96        7.780072      8.537201   0.351889  -0.000000
   97        7.826645      8.644210   0.182730  -0.000000
   98        7.860479      8.662932   0.089045  -0.000000
   99        7.988705      8.697361  -0.035456  -0.000000
  100        8.014217      8.740063  -0.033471  -0.000000
  101        8.056623      8.790985  -0.024871  -0.000000
  102        8.096474      8.800372  -0.015994  -0.000000
  103        8.197691      8.859459  -0.003081  -0.000000
  104        8.227361      8.876574  -0.001682  -0.000000
  105        8.267434      8.907804  -0.000684  -0.000000
  106        8.326908      8.954922  -0.000151  -0.000000
  107        8.486193      9.041634  -0.000001  -0.000000
  108        8.489038      9.051427  -0.000001  -0.000000
  109        8.558042      9.060896  -0.000000  -0.000000
  110        8.598158      9.090344  -0.000000  -0.000000
  111        8.799450      9.101276  -0.000000  -0.000000
  112        8.818352      9.143538  -0.000000  -0.000000
  113        8.853989      9.157328  -0.000000  -0.000000
  114        8.984270      9.190714  -0.000000  -0.000000
  115        9.150780      9.211881  -0.000000  -0.000000
  116        9.164767      9.363447  -0.000000  -0.000000
  117        9.168300      9.474822  -0.000000  -0.000000
  118        9.293856      9.489713  -0.000000  -0.000000
 
  0.4000000E+00  0.0000000E+00  0.0000000E+00  0.1333333E-01
    1       -2.173137     -2.150241   1.000000   1.000000
    2       -1.728513     -1.699995   1.000000   1.000000
    3       -0.030977      0.000045   1.000000   1.000000
    4       -0.017359      0.004022   1.000000   1.000000
    5        0.138523      0.132004   1.000000   1.000000
    6        0.368681      0.409486   1.000000   1.000000
    7        0.381142      0.414680   1.000000   1.000000
    8        0.456224      0.455326   1.000000   1.000000
    9        1.558439      1.602305   1.000000   1.000000
   10        1.613190      1.651841   1.000000   1.000000
   11        1.617639      1.657250   1.000000   1.000000
   12        1.718828      1.808458   1.000000   1.000000
   13        1.910543      1.966968   1.000000   1.000000
   14        1.914356      1.976519   1.000000   1.000000
   15        2.181174      2.293371   1.000000   1.000000
   16        2.263786      2.420018   1.000000   1.000000
   17        2.658381      2.702372   1.000000   1.000000
   18        2.910279      3.043826   1.000000   1.000000
   19        2.920485      3.050832   1.000000   1.000000
   20        3.490305      3.711200   1.000000   1.000000
   21        3.550946      3.757988   1.000000   1.000000
   22        3.732790      3.828481   1.000000   1.000000
   23        3.740148      3.834422   1.000000   1.000000
   24        3.924147      4.058841   1.000000   1.000000
   25        3.950146      4.097070   1.000000   1.000000
   26        4.053778      4.216499   1.000000   1.000000
   27        4.092999      4.240623   1.000000   1.000000
   28        4.226753      4.474949   1.000000   1.000000
   29        4.284386      4.482543   1.000000   1.000000
   30        4.316514      4.548900   1.000000   1.000000
   31        4.318259      4.562560   1.000000   1.000000
   32        4.529172      4.642384   1.000000   1.000000
   33        4.643660      4.796112   1.000000   1.000000
   34        4.660496      4.819851   1.000000   1.000000
   35        4.756968      4.953552   1.000000   1.000000
   36        4.812994      5.018943   1.000000   1.000000
   37        4.873333      5.097552   1.000000   1.000000
   38        4.924301      5.187664   1.000000   1.000000
   39        5.010273      5.212785   1.000000   1.000000
   40        5.103683      5.304185   1.000000   1.000000
   41        5.119492      5.346001   1.000000   1.000000
   42        5.184465      5.436654   1.000000   1.000000
   43        5.187420      5.483138   1.000000   1.000000
   44        5.252862      5.506286   1.000000   1.000000
   45        5.320383      5.557795   1.000000   1.000000
   46        5.363013      5.610979   1.000000   1.000000
   47        5.400904      5.658380   1.000000   1.000000
   48        5.446000      5.666837   1.000000   1.000000
   49        5.449631      5.728250   1.000000   1.000000
   50        5.525970      5.744571   1.000000   1.000000
   51        5.566445      5.844816   1.000000   1.000000
   52        5.596077      5.972452   1.000000   1.000000
   53        5.657172      6.041312   1.000000   1.000000
   54        5.682480      6.092510   1.000000   1.000000
   55        5.703317      6.171011   1.000000   1.000000
   56        5.748670      6.260574   1.000000   1.000000
   57        5.786015      6.300648   1.000000   1.000000
   58        5.954619      6.324282   1.000000   1.000000
   59        5.968977      6.351628   1.000000   1.000000
   60        5.998206      6.383322   1.000000   1.000000
   61        6.044259      6.406619   1.000000   1.000000
   62        6.065904      6.470970   1.000000   1.000000
   63        6.132621      6.571346   1.000000   1.000000
   64        6.209146      6.613055   1.000000   1.000000
   65        6.229396      6.614225   1.000000   1.000000
   66        6.236966      6.664013   1.000000   1.000000
   67        6.301878      6.721346   1.000000   1.000000
   68        6.337256      6.850907   1.000000   1.000000
   69        6.387526      6.861771   1.000000   1.000000
   70        6.398086      6.926104   1.000000   1.000000
   71        6.448870      7.043002   1.000000   1.000004
   72        6.460634      7.125237   1.000000   1.000054
   73        6.481685      7.170886   1.000000   1.000192
   74        6.522512      7.237254   1.000000   1.000985
   75        6.559262      7.271498   1.000000   1.002073
   76        6.576762      7.284479   1.000000   1.002703
   77        6.646692      7.343582   1.000000   1.007892
   78        6.682038      7.394489   1.000000   1.016438
   79        6.702065      7.433999   1.000000   1.025290
   80        6.709295      7.477223   1.000000   1.033827
   81        6.723871      7.515451   1.000000   1.034364
   82        6.825935      7.635011   1.000000   0.894881
   83        6.829219      7.712461   1.000000   0.633180
   84        6.853625      7.739073   1.000000   0.522254
   85        6.889485      7.754794   1.000000   0.455832
   86        6.904836      7.811995   1.000000   0.231556
   87        6.931967      7.933715   1.000000  -0.018621
   88        6.939743      7.985196   1.000000  -0.035389
   89        6.970203      8.012096   1.000000  -0.033763
   90        7.078259      8.106810   1.000013  -0.013977
   91        7.102237      8.190300   1.000027  -0.003557
   92        7.333658      8.255060   1.006694  -0.000909
   93        7.491405      8.263565   1.035218  -0.000747
   94        7.586424      8.352314   0.987517  -0.000075
   95        7.656928      8.438709   0.833897  -0.000005
   96        7.676753      8.485329   0.769144  -0.000001
   97        7.829233      8.620152   0.174438  -0.000000
   98        7.905799      8.639861   0.008243  -0.000000
   99        7.916424      8.688382  -0.003875  -0.000000
  100        7.994680      8.697088  -0.035353  -0.000000
  101        8.039947      8.706962  -0.028624  -0.000000
  102        8.103279      8.727982  -0.014671  -0.000000
  103        8.181732      8.816795  -0.004182  -0.000000
  104        8.204764      8.872610  -0.002685  -0.000000
  105        8.278826      8.885555  -0.000519  -0.000000
  106        8.346008      8.908672  -0.000089  -0.000000
  107        8.406981      9.056894  -0.000015  -0.000000
  108        8.424120      9.113671  -0.000008  -0.000000
  109        8.498088      9.139853  -0.000001  -0.000000
  110        8.889106      9.160590  -0.000000  -0.000000
  111        8.927675      9.192234  -0.000000  -0.000000
  112        8.935998      9.208185  -0.000000  -0.000000
  113        8.985836      9.250035  -0.000000  -0.000000
  114        9.081362      9.420501  -0.000000  -0.000000
  115        9.138747      9.537113  -0.000000  -0.000000
  116        9.226359      9.700925  -0.000000  -0.000000
  117        9.544791      9.758788  -0.000000  -0.000000
  118        9.694524      9.902563  -0.000000  -0.000000
 
  0.0000000E+00  0.2000000E+00  0.0000000E+00  0.1333333E-01
    1       -2.443233     -2.418259   1.000000   1.000000
    2       -1.117281     -1.091751   1.000000   1.000000
    3       -0.284997     -0.272585   1.000000   1.000000
    4       -0.253981     -0.207697   1.000000   1.000000
    5       -0.051837     -0.066407   1.000000   1.000000
    6        0.550288      0.579937   1.000000   1.000000
    7        0.876588      0.887774   1.000000   1.000000
    8        0.906173      0.935838   1.000000   1.000000
    9        0.919724      0.973337   1.000000   1.000000
   10        1.392602      1.443224   1.000000   1.000000
   11        1.440653      1.515988   1.000000   1.000000
   12        1.464990      1.538723   1.000000   1.000000
   13        1.888704      1.955489   1.000000   1.000000
   14        2.253260      2.335879   1.000000   1.000000
   15        2.268457      2.355835   1.000000   1.000000
   16        2.300750      2.379962   1.000000   1.000000
   17        2.308819      2.388358   1.000000   1.000000
   18        2.782623      2.879759   1.000000   1.000000
   19        3.150906      3.270221   1.000000   1.000000
   20        3.215153      3.382166   1.000000   1.000000
   21        3.517736      3.615310   1.000000   1.000000
   22        3.615577      3.745935   1.000000   1.000000
   23        3.707146      3.782245   1.000000   1.000000
   24        4.021467      4.156238   1.000000   1.000000
   25        4.074799      4.227479   1.000000   1.000000
   26        4.184511      4.368016   1.000000   1.000000
   27        4.256587      4.444637   1.000000   1.000000
   28        4.346383      4.584203   1.000000   1.000000
   29        4.461738      4.655194   1.000000   1.000000
   30        4.489223      4.686289   1.000000   1.000000
   31        4.508952      4.726631   1.000000   1.000000
   32        4.525766      4.782170   1.000000   1.000000
   33        4.563107      4.782613   1.000000   1.000000
   34        4.619362      4.990608   1.000000   1.000000
   35        4.768960      5.052041   1.000000   1.000000
   36        4.868588      5.077972   1.000000   1.000000
   37        4.883623      5.092221   1.000000   1.000000
   38        4.907949      5.134664   1.000000   1.000000
   39        4.921961      5.181354   1.000000   1.000000
   40        4.971074      5.198302   1.000000   1.000000
   41        5.059692      5.236156   1.000000   1.000000
   42        5.178023      5.346627   1.000000   1.000000
   43        5.235918      5.441146   1.000000   1.000000
   44        5.238069      5.492106   1.000000   1.000000
   45        5.333228      5.542379   1.000000   1.000000
   46        5.339960      5.561751   1.000000   1.000000
   47        5.363761      5.640337   1.000000   1.000000
   48        5.412201      5.694370   1.000000   1.000000
   49        5.473873      5.722728   1.000000   1.000000
   50        5.539362      5.840091   1.000000   1.000000
   51        5.564487      5.849475   1.000000   1.000000
   52        5.596105      6.007660   1.000000   1.000000
   53        5.667639      6.038259   1.000000   1.000000
   54        5.678251      6.176420   1.000000   1.000000
   55        5.722571      6.229823   1.000000   1.000000
   56        5.752611      6.246486   1.000000   1.000000
   57        5.809018      6.326902   1.000000   1.000000
   58        5.815447      6.344052   1.000000   1.000000
   59        5.907139      6.414360   1.000000   1.000000
   60        5.927534      6.437423   1.000000   1.000000
   61        5.989583      6.474233   1.000000   1.000000
   62        6.092935      6.505881   1.000000   1.000000
   63        6.139908      6.519325   1.000000   1.000000
   64        6.227218      6.579252   1.000000   1.000000
   65        6.247981      6.591837   1.000000   1.000000
   66        6.322500      6.702616   1.000000   1.000000
   67        6.350539      6.718819   1.000000   1.000000
   68        6.376863      6.749700   1.000000   1.000000
   69        6.395699      6.834668   1.000000   1.000000
   70        6.406585      6.914427   1.000000   1.000000
   71        6.417437      6.932769   1.000000   1.000000
   72        6.490130      7.051247   1.000000   1.000005
   73        6.535511      7.070487   1.000000   1.000010
   74        6.546803      7.198001   1.000000   1.000386
   75        6.605280      7.237662   1.000000   1.000996
   76        6.659886      7.288184   1.000000   1.002910
   77        6.689211      7.347673   1.000000   1.008424
   78        6.709523      7.428951   1.000000   1.024121
   79        6.733623      7.444168   1.000000   1.027583
   80        6.746211      7.575131   1.000000   1.000980
   81        6.770643      7.627986   1.000000   0.911993
   82        6.800560      7.664762   1.000000   0.809246
   83        6.844964      7.721838   1.000000   0.594991
   84        6.893255      7.743403   1.000000   0.504322
   85        6.912539      7.785452   1.000000   0.330170
   86        6.942481      7.857941   1.000000   0.094878
   87        6.960084      7.900225   1.000000   0.015516
   88        6.987815      8.005176   1.000001  -0.034599
   89        7.094048      8.121082   1.000021  -0.011432
   90        7.205726      8.242185   1.000468  -0.001217
   91        7.305166      8.254893   1.004029  -0.000913
   92        7.363133      8.329618   1.010684  -0.000140
   93        7.378898      8.366439   1.013396  -0.000050
   94        7.514845      8.474558   1.034447  -0.000002
   95        7.530803      8.504655   1.030837  -0.000001
   96        7.718267      8.528535   0.609738  -0.000000
   97        7.790202      8.589493   0.311716  -0.000000
   98        7.968393      8.653861  -0.033513  -0.000000
   99        7.978460      8.657500  -0.034961  -0.000000
  100        8.032290      8.686121  -0.030255  -0.000000
  101        8.089800      8.724505  -0.017395  -0.000000
  102        8.124431      8.795609  -0.010894  -0.000000
  103        8.199787      8.867222  -0.002959  -0.000000
  104        8.234881      8.885569  -0.001431  -0.000000
  105        8.271529      8.919742  -0.000620  -0.000000
  106        8.318898      8.942992  -0.000188  -0.000000
  107        8.422394      9.009795  -0.000009  -0.000000
  108        8.462843      9.031041  -0.000002  -0.000000
  109        8.610617      9.069408  -0.000000  -0.000000
  110        8.616909      9.106564  -0.000000  -0.000000
  111        8.764655      9.109322  -0.000000  -0.000000
  112        8.834207      9.124846  -0.000000  -0.000000
  113        8.854417      9.139643  -0.000000  -0.000000
  114        8.942212      9.168499  -0.000000  -0.000000
  115        8.958569      9.232591  -0.000000  -0.000000
  116        9.123959      9.394405  -0.000000  -0.000000
  117        9.204442      9.420776  -0.000000  -0.000000
  118        9.306837      9.421475  -0.000000  -0.000000
 
  0.2000000E+00  0.2000000E+00  0.0000000E+00  0.1333333E-01
    1       -2.352935     -2.328218   1.000000   1.000000
    2       -1.045124     -1.010908   1.000000   1.000000
    3       -1.018106     -0.999656   1.000000   1.000000
    4        0.012781      0.000270   1.000000   1.000000
    5        0.209964      0.242368   1.000000   1.000000
    6        0.616163      0.657000   1.000000   1.000000
    7        0.641561      0.667991   1.000000   1.000000
    8        0.932637      0.938266   1.000000   1.000000
    9        0.941619      0.970238   1.000000   1.000000
   10        1.532801      1.631047   1.000000   1.000000
   11        1.703880      1.746463   1.000000   1.000000
   12        1.737930      1.803447   1.000000   1.000000
   13        1.813994      1.870152   1.000000   1.000000
   14        1.937177      2.017242   1.000000   1.000000
   15        1.962930      2.043676   1.000000   1.000000
   16        2.741611      2.863350   1.000000   1.000000
   17        2.804439      2.929140   1.000000   1.000000
   18        2.813289      2.936270   1.000000   1.000000
   19        2.830859      2.947285   1.000000   1.000000
   20        2.895921      2.991078   1.000000   1.000000
   21        3.569521      3.751159   1.000000   1.000000
   22        3.742347      3.820547   1.000000   1.000000
   23        3.750532      3.834756   1.000000   1.000000
   24        3.797861      3.925451   1.000000   1.000000
   25        4.052582      4.202915   1.000000   1.000000
   26        4.218410      4.398882   1.000000   1.000000
   27        4.239083      4.435825   1.000000   1.000000
   28        4.293339      4.473491   1.000000   1.000000
   29        4.317163      4.559217   1.000000   1.000000
   30        4.378534      4.596641   1.000000   1.000000
   31        4.399576      4.648042   1.000000   1.000000
   32        4.520918      4.761500   1.000000   1.000000
   33        4.578999      4.782487   1.000000   1.000000
   34        4.664530      4.938153   1.000000   1.000000
   35        4.689455      4.939323   1.000000   1.000000
   36        4.752789      4.984577   1.000000   1.000000