       N       E                     dE             d eps       ncg     rms          ort
DAV:   1     0.133472820410E+04    0.13347E+04   -0.59479E+04  6136   0.137E+03
DAV:   2    -0.770196590928E+02   -0.14117E+04   -0.13690E+04  6136   0.416E+02
DAV:   3    -0.241912200826E+03   -0.16489E+03   -0.14489E+03  6136   0.156E+02
DAV:   4    -0.266709258796E+03   -0.24797E+02   -0.21581E+02  6136   0.668E+01
DAV:   5    -0.269068580516E+03   -0.23593E+01   -0.22413E+01  6136   0.194E+01
DAV:   6    -0.269251693306E+03   -0.18311E+00   -0.17961E+00  6136   0.512E+00
DAV:   7    -0.269271115588E+03   -0.19422E-01   -0.19259E-01  6136   0.142E+00
DAV:   8    -0.269272534113E+03   -0.14185E-02   -0.14108E-02  6136   0.370E-01
SDA:   9    -0.634436430695E+02    0.20583E+03   -0.14108E-02  6136   0.230E+04 0.000E+00
CGA:  10    -0.206027326575E+03   -0.14258E+03   -0.14005E+03  6136   0.173E+03 0.432E+03
CGA:  11    -0.218023617544E+03   -0.11996E+02   -0.12105E+02  6136   0.537E+02 0.318E+01
CGA:  12    -0.226144185558E+03   -0.81206E+01   -0.80979E+01  6136   0.958E+02-0.141E+00
CGA:  13    -0.233262060782E+03   -0.71179E+01   -0.71645E+01  6136   0.162E+02 0.732E+00
CGA:  14    -0.234422593626E+03   -0.11605E+01   -0.11761E+01  6136   0.519E+01-0.106E+00
CGA:  15    -0.235059716202E+03   -0.63712E+00   -0.63868E+00  6136   0.652E+01 0.601E-02
CGA:  16    -0.235705441938E+03   -0.64573E+00   -0.64911E+00  6136   0.200E+01-0.324E-02
CGA:  17    -0.235877891712E+03   -0.17245E+00   -0.17262E+00  6136   0.118E+01 0.444E-03
CGA:  18    -0.236020128994E+03   -0.14224E+00   -0.14256E+00  6136   0.121E+01 0.630E-03
CGA:  19    -0.236147898320E+03   -0.12777E+00   -0.12819E+00  6136   0.444E+00-0.943E-03
CGA:  20    -0.236186269507E+03   -0.38371E-01   -0.38506E-01  6136   0.290E+00-0.898E-03
CGA:  21    -0.236226008369E+03   -0.39739E-01   -0.39751E-01  6136   0.359E+00 0.209E-03
CGA:  22    -0.236262742402E+03   -0.36734E-01   -0.36750E-01  6136   0.165E+00-0.164E-03
CGA:  23    -0.236277664805E+03   -0.14922E-01   -0.14916E-01  6136   0.720E-01-0.134E-03
CGA:  24    -0.236287604366E+03   -0.99396E-02   -0.99395E-02  6136   0.778E-01-0.123E-03
CGA:  25    -0.236296298089E+03   -0.86937E-02   -0.86889E-02  6136   0.565E-01-0.192E-03
CGA:  26    -0.236303674461E+03   -0.73764E-02   -0.73759E-02  6136   0.501E-01-0.120E-03
CGA:  27    -0.236309251601E+03   -0.55771E-02   -0.55738E-02  6136   0.307E-01-0.887E-04
CGA:  28    -0.236312387160E+03   -0.31356E-02   -0.31335E-02  6136   0.171E-01-0.193E-04
CGA:  29    -0.236314299409E+03   -0.19122E-02   -0.19113E-02  6136   0.155E-01-0.411E-05
CGA:  30    -0.236316045064E+03   -0.17457E-02   -0.17455E-02  6136   0.904E-02-0.179E-05
CGA:  31    -0.236317134756E+03   -0.10897E-02   -0.10894E-02  6136   0.744E-02-0.829E-05
CGA:  32    -0.236318275130E+03   -0.11404E-02   -0.11404E-02  6136   0.735E-02 0.378E-05
CGA:  33    -0.236319108290E+03   -0.83316E-03   -0.83334E-03  6136   0.455E-02 0.279E-04
CGA:  34    -0.236319524081E+03   -0.41579E-03   -0.41681E-03  6136   0.269E-02 0.282E-04
CGA:  35    -0.236319921737E+03   -0.39766E-03   -0.39737E-03  6136   0.237E-02 0.288E-04
CGA:  36    -0.236320167036E+03   -0.24530E-03   -0.24582E-03  6136   0.139E-02 0.156E-04
CGA:  37    -0.236320324266E+03   -0.15723E-03   -0.15741E-03  6136   0.124E-02 0.879E-05
CGA:  38    -0.236320517838E+03   -0.19357E-03   -0.19320E-03  6136   0.130E-02 0.156E-04
CGA:  39    -0.236320662612E+03   -0.14477E-03   -0.14517E-03  6136   0.489E-03 0.179E-04
SDA:  40    -0.236320710939E+03   -0.48327E-04   -0.48561E-04  6136   0.332E-03 0.663E-05
CGA:  41    -0.236320736859E+03   -0.25920E-04   -0.25798E-04  6136   0.329E-03-0.227E-05
CGA:  42    -0.236320799913E+03   -0.63054E-04   -0.63751E-04  6136   0.225E-03-0.105E-04
CGA:  43    -0.236320821383E+03   -0.21469E-04   -0.21386E-04  6136   0.166E-03-0.247E-05
CGA:  44    -0.236320847502E+03   -0.26119E-04   -0.26177E-04  6136   0.142E-03-0.193E-05
CGA:  45    -0.236320862878E+03   -0.15377E-04   -0.15311E-04  6136   0.121E-03-0.291E-05
CGA:  46    -0.236320879559E+03   -0.16681E-04   -0.16735E-04  6136   0.899E-04-0.482E-05
CGA:  47    -0.236320888782E+03   -0.92230E-05   -0.91929E-05  6136   0.770E-04-0.122E-05
CGA:  48    -0.236320903811E+03   -0.15028E-04   -0.14948E-04  6136   0.591E-04 0.117E-05
CGA:  49    -0.236320909469E+03   -0.56583E-05   -0.56853E-05  6136   0.390E-04 0.738E-06
CGA:  50    -0.236320917307E+03   -0.78382E-05   -0.77538E-05  6136   0.518E-04 0.134E-05
CGA:  51    -0.236320920867E+03   -0.35601E-05   -0.36012E-05  6136   0.156E-04 0.639E-06
CGA:  52    -0.236320923986E+03   -0.31185E-05   -0.30465E-05  6136   0.260E-04 0.116E-05
CGA:  53    -0.236320926765E+03   -0.27794E-05   -0.28237E-05  6136   0.113E-04 0.134E-05
CGA:  54    -0.236320928639E+03   -0.18739E-05   -0.18569E-05  6136   0.172E-04 0.731E-06
CGA:  55    -0.236320930886E+03   -0.22469E-05   -0.22543E-05  6136   0.405E-05 0.687E-06
CGA:  56    -0.236320931482E+03   -0.59595E-06   -0.59712E-06  6136   0.763E-05-0.143E-06
CGA:  57    -0.236320932530E+03   -0.10482E-05   -0.10519E-05  6136   0.573E-05-0.409E-06
CGA:  58    -0.236320933003E+03   -0.47239E-06   -0.47115E-06  6136   0.339E-05-0.310E-07
CGA:  59    -0.236320933619E+03   -0.61663E-06   -0.60770E-06  6136   0.343E-05 0.181E-06
CGA:  60    -0.236320934001E+03   -0.38201E-06   -0.38254E-06  6136   0.240E-05 0.107E-07
CGA:  61    -0.236320934366E+03   -0.36515E-06   -0.37054E-06  6136   0.219E-05-0.274E-06
CGA:  62    -0.236320934515E+03   -0.14896E-06   -0.14929E-06  6136   0.124E-05 0.919E-08
CGA:  63    -0.236320934660E+03   -0.14512E-06   -0.14815E-06  6136   0.940E-06 0.255E-06
CGA:  64    -0.236320934751E+03   -0.91006E-07   -0.97865E-07  6136   0.442E-06 0.157E-06
   1 F= -.23632093E+03 E0= -.23632259E+03  d E =0.496338E-02  mag=    12.4991
