 vasp.5.4.4.18Apr17-6-g9f103f2a35 (build Dec 20 2018 12:05:58) complex          
  
 executed on             LinuxIFC date 2019.06.20  14:45:47
 running on   32 total cores
 distrk:  each k-point on    8 cores,    4 groups
 distr:  one band on NCORES_PER_BAND=   4 cores,    2 groups


--------------------------------------------------------------------------------------------------------


 INCAR:
 POTCAR:    PAW_PBE Al 04Jan2001                  
 POTCAR:    PAW_PBE Mn 06Sep2000                  

 ----------------------------------------------------------------------------- 
|                                                                             |
|           W    W    AA    RRRRR   N    N  II  N    N   GGGG   !!!           |
|           W    W   A  A   R    R  NN   N  II  NN   N  G    G  !!!           |
|           W    W  A    A  R    R  N N  N  II  N N  N  G       !!!           |
|           W WW W  AAAAAA  RRRRR   N  N N  II  N  N N  G  GGG   !            |
|           WW  WW  A    A  R   R   N   NN  II  N   NN  G    G                |
|           W    W  A    A  R    R  N    N  II  N    N   GGGG   !!!           |
|                                                                             |
|      You have enabled k-point parallelism (KPAR>1).                         |
|      This developmental code was originally  written by Paul Kent at ORNL,  |
|      and carefully double checked in Vienna.                                |
|      GW as well as linear response parallelism added by Martijn Marsman     |
|      and Georg Kresse.                                                      |
|      Carefully verify results versus KPAR=1.                                |
|      Report problems to Paul Kent and Vienna.                               |
|                                                                             |
 ----------------------------------------------------------------------------- 

 POTCAR:    PAW_PBE Al 04Jan2001                  
   VRHFIN =Al: s2p1                                                             
   LEXCH  = PE                                                                  
   EATOM  =    53.5387 eV,    3.9350 Ry                                         
                                                                                
   TITEL  = PAW_PBE Al 04Jan2001                                                
   LULTRA =        F    use ultrasoft PP ?                                      
   IUNSCR =        1    unscreen: 0-lin 1-nonlin 2-no                           
   RPACOR =    1.500    partial core radius                                     
   POMASS =   26.981; ZVAL   =    3.000    mass and valenz                      
   RCORE  =    1.900    outmost cutoff radius                                   
   RWIGS  =    2.650; RWIGS  =    1.402    wigner-seitz radius (au A)           
   ENMAX  =  240.300; ENMIN  =  180.225 eV                                      
   ICORE  =        2    local potential                                         
   LCOR   =        T    correct aug charges                                     
   LPAW   =        T    paw PP                                                  
   EAUG   =  291.052                                                            
   DEXC   =    0.000                                                            
   RMAX   =    1.939    core radius for proj-oper                               
   RAUG   =    1.300    factor for augmentation sphere                          
   RDEP   =    1.966    radius for radial grids                                 
   RDEPT  =    1.856    core radius for aug-charge                              
                                                                                
   Atomic configuration                                                         
    6 entries                                                                   
     n  l   j            E        occ.                                          
     1  0  0.50     -1511.1048   2.0000                                         
     2  0  0.50      -108.1629   2.0000                                         
     2  1  1.50       -69.6402   6.0000                                         
     3  0  0.50        -7.7528   2.0000                                         
     3  1  1.50        -2.7121   1.0000                                         
     3  2  2.50        -2.7212   0.0000                                         
   Description                                                                  
     l       E           TYP  RCUT    TYP  RCUT                                 
     0     -7.7528455     23  1.900                                             
     0     -3.3096929     23  1.900                                             
     1     -2.7120682     23  1.900                                             
     1     13.6058260     23  1.900                                             
     2     -2.7211652      7  1.900                                             
  local pseudopotential read in
  partial core-charges read in
  partial kinetic energy density read in
  atomic valenz-charges read in
  non local Contribution for L=           0  read in
    real space projection operators read in
  non local Contribution for L=           0  read in
    real space projection operators read in
  non local Contribution for L=           1  read in
    real space projection operators read in
  non local Contribution for L=           1  read in
    real space projection operators read in
    PAW grid and wavefunctions read in
 
   number of l-projection  operators is LMAX  =           4
   number of lm-projection operators is LMMAX =           8
 
 POTCAR:    PAW_PBE Mn 06Sep2000                  
   VRHFIN =Mn: d6 s1                                                            
   LEXCH  = PE                                                                  
   EATOM  =   416.7541 eV,   30.6306 Ry                                         
                                                                                
   TITEL  = PAW_PBE Mn 06Sep2000                                                
   LULTRA =        F    use ultrasoft PP ?                                      
   IUNSCR =        1    unscreen: 0-lin 1-nonlin 2-no                           
   RPACOR =    2.000    partial core radius                                     
   POMASS =   54.938; ZVAL   =    7.000    mass and valenz                      
   RCORE  =    2.300    outmost cutoff radius                                   
   RWIGS  =    2.500; RWIGS  =    1.323    wigner-seitz radius (au A)           
   ENMAX  =  269.864; ENMIN  =  202.398 eV                                      
   RCLOC  =    1.725    cutoff for local pot                                    
   LCOR   =        T    correct aug charges                                     
   LPAW   =        T    paw PP                                                  
   EAUG   =  500.711                                                            
   DEXC   =    0.000                                                            
   RMAX   =    2.343    core radius for proj-oper                               
   RAUG   =    1.300    factor for augmentation sphere                          
   RDEP   =    2.338    radius for radial grids                                 
   RDEPT  =    1.911    core radius for aug-charge                              
                                                                                
   Atomic configuration                                                         
    9 entries                                                                   
     n  l   j            E        occ.                                          
     1  0  0.50     -6424.8288   2.0000                                         
     2  0  0.50      -739.1154   2.0000                                         
     2  1  1.50      -625.3949   6.0000                                         
     3  0  0.50       -81.6100   2.0000                                         
     3  1  1.50       -50.4667   6.0000                                         
     3  2  2.50        -3.3745   6.0000                                         
     4  0  0.50        -4.1331   1.0000                                         
     4  1  0.50        -4.0817   0.0000                                         
     4  3  2.50        -1.3606   0.0000                                         
   Description                                                                  
     l       E           TYP  RCUT    TYP  RCUT                                 
     2     -3.3744664     23  2.300                                             
     2     -4.7350490     23  2.300                                             
     0     -4.1331408     23  2.300                                             
     0      7.6656614     23  2.300                                             
     1     -2.7211652     23  2.300                                             
     1     20.4087390     23  2.300                                             
  local pseudopotential read in
  partial core-charges read in
  partial kinetic energy density read in
  atomic valenz-charges read in
  non local Contribution for L=           2  read in
    real space projection operators read in
  non local Contribution for L=           2  read in
    real space projection operators read in
  non local Contribution for L=           0  read in
    real space projection operators read in
  non local Contribution for L=           0  read in
    real space projection operators read in
  non local Contribution for L=           1  read in
    real space projection operators read in
  non local Contribution for L=           1  read in
    real space projection operators read in
    PAW grid and wavefunctions read in
 
   number of l-projection  operators is LMAX  =           6
   number of lm-projection operators is LMMAX =          18
 

 ----------------------------------------------------------------------------- 
|                                                                             |
|  ADVICE TO THIS USER RUNNING 'VASP/VAMP'   (HEAR YOUR MASTER'S VOICE ...):  |
|                                                                             |
|      You have a (more or less) 'large supercell' and for larger cells       |
|      it might be more efficient to use real space projection opertators     |
|      So try LREAL= Auto  in the INCAR   file.                               |
|      Mind:          For very  accurate calculation you might also keep the  |
|      reciprocal projection scheme          (i.e. LREAL=.FALSE.)             |
|                                                                             |
 ----------------------------------------------------------------------------- 

  PAW_PBE Al 04Jan2001                  :
 energy of atom  1       EATOM=  -53.5387
 kinetic energy error for atom=    0.0005 (will be added to EATOM!!)
  PAW_PBE Mn 06Sep2000                  :
 energy of atom  2       EATOM= -416.7541
 kinetic energy error for atom=    0.0080 (will be added to EATOM!!)
 
 
 POSCAR: NewRef: 18, @ ['Mn', array([1.37502469, 
  positions in cartesian coordinates
  velocities in cartesian coordinates
  No initial velocities read in
 exchange correlation table for  LEXCH =        8
   RHO(1)=    0.500       N(1)  =     2000
   RHO(2)=  100.500       N(2)  =     4000
 


--------------------------------------------------------------------------------------------------------


 ion  position               nearest neighbor table
   1  0.000  0.000  0.000-  20 2.61  24 2.61  32 2.61  36 2.61  31 2.61  23 2.61  35 2.61  19 2.61
                             3 2.75   7 2.75   5 2.75  13 2.75
   2  0.000  0.000  0.500-  19 2.61  23 2.61  31 2.61  35 2.61  20 2.61  32 2.61  24 2.61  36 2.61
                             4 2.75   8 2.75   6 2.75  14 2.75
   3  0.000  0.333  0.000-  20 2.61  32 2.61  22 2.61  34 2.61  19 2.61  31 2.61  33 2.61  21 2.61
                             9 2.75   1 2.75   5 2.75  15 2.75
   4  0.000  0.333  0.500-  19 2.61  31 2.61  21 2.61  33 2.61  32 2.61  20 2.61  22 2.61  34 2.61
                            10 2.75   2 2.75   6 2.75  16 2.75
   5  0.000  0.667  0.000-  22 2.61  34 2.61  24 2.61  36 2.61  21 2.61  33 2.61  35 2.61  23 2.61
                             3 2.75  11 2.75   1 2.75  17 2.75
   6  0.000  0.667  0.500-  21 2.61  33 2.61  23 2.61  35 2.61  34 2.61  22 2.61  24 2.61  36 2.61
                             4 2.75  12 2.75   2 2.75  18 2.75
   7  0.333  0.000  0.000-  20 2.61  24 2.61  26 2.61  30 2.61  23 2.61  19 2.61  29 2.61  25 2.61
                            13 2.75   1 2.75   9 2.75  11 2.75
   8  0.333  0.000  0.500-  19 2.61  23 2.61  25 2.61  29 2.61  20 2.61  24 2.61  26 2.61  30 2.61
                            14 2.75   2 2.75  10 2.75  12 2.75
   9  0.333  0.333  0.000-  20 2.61  22 2.61  26 2.61  19 2.61  28 2.61  21 2.61  25 2.61  27 2.61
                             3 2.75   7 2.75  11 2.75  15 2.75
  10  0.333  0.333  0.500-  19 2.61  21 2.61  25 2.61  20 2.61  27 2.61  26 2.61  22 2.61  28 2.61
                             4 2.75   8 2.75  12 2.75  16 2.75
  11  0.333  0.667  0.000-  22 2.61  24 2.61  28 2.61  21 2.61  30 2.61  23 2.61  27 2.61  29 2.61
                            17 2.75   5 2.75   9 2.75   7 2.75
  12  0.333  0.667  0.500-  21 2.61  23 2.61  27 2.61  22 2.61  29 2.61  28 2.61  24 2.61  30 2.61
                            18 2.75   6 2.75  10 2.75   8 2.75
  13  0.667  0.000  0.000-  26 2.61  30 2.61  32 2.61  36 2.61  29 2.61  25 2.61  35 2.61  31 2.61
                             7 2.75  15 2.75   1 2.75  17 2.75
  14  0.667  0.000  0.500-  25 2.61  29 2.61  31 2.61  35 2.61  26 2.61  30 2.61  32 2.61  36 2.61
                             8 2.75  16 2.75   2 2.75  18 2.75
  15  0.667  0.333  0.000-  26 2.61  28 2.61  32 2.61  25 2.61  34 2.61  27 2.61  31 2.61  33 2.61
                            17 2.75   9 2.75  13 2.75   3 2.75
  16  0.667  0.333  0.500-  25 2.61  27 2.61  31 2.61  26 2.61  33 2.61  32 2.61  28 2.61  34 2.61
                            18 2.75  10 2.75  14 2.75   4 2.75
  17  0.667  0.667  0.000-  28 2.61  30 2.61  34 2.61  27 2.61  36 2.61  29 2.61  33 2.61  35 2.61
                            11 2.75  15 2.75  13 2.75   5 2.75
  18  0.667  0.667  0.500-  27 2.61  29 2.61  33 2.61  28 2.61  35 2.61  34 2.61  30 2.61  36 2.61
                            12 2.75  16 2.75  14 2.75   6 2.75
  19  0.167  0.167  0.250-  10 2.61   8 2.61   4 2.61   9 2.61   2 2.61   7 2.61   3 2.61   1 2.61
                            21 2.75  25 2.75  23 2.75  31 2.75
  20  0.167  0.167  0.750-   9 2.61   7 2.61   3 2.61  10 2.61   1 2.61   4 2.61   8 2.61   2 2.61
                            22 2.75  26 2.75  24 2.75  32 2.75
  21  0.167  0.500  0.250-  12 2.61  10 2.61   6 2.61  11 2.61   4 2.61   9 2.61   5 2.61   3 2.61
                            19 2.75  23 2.75  27 2.75  33 2.75
  22  0.167  0.500  0.750-  11 2.61   9 2.61   5 2.61  12 2.61   3 2.61   6 2.61  10 2.61   4 2.61
                            20 2.75  24 2.75  28 2.75  34 2.75
  23  0.167  0.833  0.250-   8 2.61  12 2.61   2 2.61   6 2.61  11 2.61   7 2.61   5 2.61   1 2.61
                            21 2.75  29 2.75  19 2.75  35 2.75
  24  0.167  0.833  0.750-   7 2.61  11 2.61   1 2.61   5 2.61   8 2.61  12 2.61   2 2.61   6 2.61
                            22 2.75  30 2.75  20 2.75  36 2.75
  25  0.500  0.167  0.250-  16 2.61  14 2.61  10 2.61  15 2.61   8 2.61  13 2.61   9 2.61   7 2.61
                            19 2.75  27 2.75  31 2.75  29 2.75
  26  0.500  0.167  0.750-  15 2.61  13 2.61   9 2.61  16 2.61   7 2.61  10 2.61  14 2.61   8 2.61
                            20 2.75  28 2.75  32 2.75  30 2.75
  27  0.500  0.500  0.250-  18 2.61  16 2.61  12 2.61  17 2.61  10 2.61  15 2.61  11 2.61   9 2.61
                            21 2.75  25 2.75  29 2.75  33 2.75
  28  0.500  0.500  0.750-  17 2.61  15 2.61  11 2.61  18 2.61   9 2.61  12 2.61  16 2.61  10 2.61
                            22 2.75  26 2.75  30 2.75  34 2.75
  29  0.500  0.833  0.250-  14 2.61  18 2.61   8 2.61  12 2.61  17 2.61  13 2.61  11 2.61   7 2.61
                            23 2.75  27 2.75  35 2.75  25 2.75
  30  0.500  0.833  0.750-  13 2.61  17 2.61   7 2.61  11 2.61  14 2.61  18 2.61   8 2.61  12 2.61
                            24 2.75  28 2.75  36 2.75  26 2.75
  31  0.833  0.167  0.250-   4 2.61  16 2.61  14 2.61   2 2.61  15 2.61   3 2.61  13 2.61   1 2.61
                            25 2.75  33 2.75  19 2.75  35 2.75
  32  0.833  0.167  0.750-   3 2.61  15 2.61  13 2.61   1 2.61   4 2.61  16 2.61   2 2.61  14 2.61
                            26 2.75  34 2.75  20 2.75  36 2.75
  33  0.833  0.500  0.250-   6 2.61  18 2.61  16 2.61   4 2.61  17 2.61   5 2.61  15 2.61   3 2.61
                            27 2.75  31 2.75  35 2.75  21 2.75
  34  0.833  0.500  0.750-   5 2.61  17 2.61  15 2.61   3 2.61   6 2.61  18 2.61   4 2.61  16 2.61
                            28 2.75  32 2.75  36 2.75  22 2.75
  35  0.833  0.833  0.250-   2 2.61   6 2.61  14 2.61  18 2.61  13 2.61   5 2.61  17 2.61   1 2.61
                            29 2.75  33 2.75  31 2.75  23 2.75
  36  0.833  0.833  0.750-   1 2.61   5 2.61  13 2.61  17 2.61   2 2.61  14 2.61   6 2.61  18 2.61
                            30 2.75  34 2.75  32 2.75  24 2.75
 
  LATTYP: Found a simple tetragonal cell.
 ALAT       =     8.2501481662
 C/A-ratio  =     0.8428059861
  
  Lattice vectors:
  
 A1 = (   8.2501481662,   0.0000000000,   0.0000000000)
 A2 = (   0.0000000000,   8.2501481662,   0.0000000000)
 A3 = (   0.0000000000,   0.0000000000,   6.9532742610)


Analysis of symmetry for initial positions (statically):
=====================================================================
 Subroutine PRICEL returns following result:
 
  LATTYP: Found a simple tetragonal cell.
 ALAT       =     2.7500493888
 C/A-ratio  =     1.2642089792
  
  Lattice vectors:
  
 A1 = (   2.7500493888,   0.0000000000,   0.0000000000)
 A2 = (   0.0000000000,   2.7500493888,   0.0000000000)
 A3 = (   0.0000000000,   0.0000000000,   3.4766371305)
 
  18 primitive cells build up your supercell.
 

 Routine SETGRP: Setting up the symmetry group for a 
 simple tetragonal supercell.


 Subroutine GETGRP returns: Found 16 space group operations
 (whereof 16 operations were pure point group operations)
 out of a pool of 16 trial point group operations.


The static configuration has the point symmetry D_4h.


Analysis of symmetry for dynamics (positions and initial velocities):
=====================================================================
 Subroutine PRICEL returns following result:
 
  LATTYP: Found a simple tetragonal cell.
 ALAT       =     2.7500493888
 C/A-ratio  =     1.2642089792
  
  Lattice vectors:
  
 A1 = (   2.7500493888,   0.0000000000,   0.0000000000)
 A2 = (   0.0000000000,   2.7500493888,   0.0000000000)
 A3 = (   0.0000000000,   0.0000000000,   3.4766371305)
 
  18 primitive cells build up your supercell.
 

 Routine SETGRP: Setting up the symmetry group for a 
 simple tetragonal supercell.


 Subroutine GETGRP returns: Found 16 space group operations
 (whereof 16 operations were pure point group operations)
 out of a pool of 16 trial point group operations.


The dynamic configuration has the point symmetry D_4h.


Analysis of structural, dynamic, and magnetic symmetry:
=====================================================================
 Subroutine PRICEL returns:
 Original cell was already a primitive cell.
 

 Routine SETGRP: Setting up the symmetry group for a 
 simple tetragonal supercell.


 Subroutine GETGRP returns: Found  2 space group operations
 (whereof  1 operations were pure point group operations)
 out of a pool of 16 trial point group operations.


The magnetic configuration has the point symmetry C_1 .
 The point group associated with its full space group is C_1h.


 Subroutine INISYM returns: Found  2 space group operations
 (whereof  1 operations are pure point group operations),
 and found     1 'primitive' translations

 
 
 KPOINTS: automatic KPOINTS                       

Automatic generation of k-mesh.
 generate k-points for:    5    5    6
Space group operators:
 irot       det(A)        alpha          n_x          n_y          n_z        tau_x        tau_y        tau_z
    1     1.000000     0.000001     1.000000     0.000000     0.000000     0.000000     0.000000     0.000000
    2    -1.000000   179.999999     0.000000     0.000000     1.000000     0.000000     0.000000     0.500000
 
 Subroutine IBZKPT returns following result:
 ===========================================
 
 Found     52 irreducible k-points:
 
 Following reciprocal coordinates:
            Coordinates               Weight
  0.000000  0.000000  0.000000      1.000000
  0.200000  0.000000  0.000000      2.000000
  0.400000  0.000000  0.000000      2.000000
  0.000000  0.200000  0.000000      2.000000
  0.200000  0.200000  0.000000      2.000000
  0.400000  0.200000  0.000000      2.000000
 -0.400000  0.200000  0.000000      2.000000
 -0.200000  0.200000  0.000000      2.000000
  0.000000  0.400000  0.000000      2.000000
  0.200000  0.400000  0.000000      2.000000
  0.400000  0.400000  0.000000      2.000000
 -0.400000  0.400000  0.000000      2.000000
 -0.200000  0.400000  0.000000      2.000000
  0.000000  0.000000  0.166667      2.000000
  0.200000  0.000000  0.166667      4.000000
  0.400000  0.000000  0.166667      4.000000
  0.000000  0.200000  0.166667      4.000000
  0.200000  0.200000  0.166667      4.000000
  0.400000  0.200000  0.166667      4.000000
 -0.400000  0.200000  0.166667      4.000000
 -0.200000  0.200000  0.166667      4.000000
  0.000000  0.400000  0.166667      4.000000
  0.200000  0.400000  0.166667      4.000000
  0.400000  0.400000  0.166667      4.000000
 -0.400000  0.400000  0.166667      4.000000
 -0.200000  0.400000  0.166667      4.000000
  0.000000  0.000000  0.333333      2.000000
  0.200000  0.000000  0.333333      4.000000
  0.400000  0.000000  0.333333      4.000000
  0.000000  0.200000  0.333333      4.000000
  0.200000  0.200000  0.333333      4.000000
  0.400000  0.200000  0.333333      4.000000
 -0.400000  0.200000  0.333333      4.000000
 -0.200000  0.200000  0.333333      4.000000
  0.000000  0.400000  0.333333      4.000000
  0.200000  0.400000  0.333333      4.000000
  0.400000  0.400000  0.333333      4.000000
 -0.400000  0.400000  0.333333      4.000000
 -0.200000  0.400000  0.333333      4.000000
  0.000000  0.000000  0.500000      1.000000
  0.200000  0.000000  0.500000      2.000000
  0.400000  0.000000  0.500000      2.000000
  0.000000  0.200000  0.500000      2.000000
  0.200000  0.200000  0.500000      2.000000
  0.400000  0.200000  0.500000      2.000000
 -0.400000  0.200000  0.500000      2.000000
 -0.200000  0.200000  0.500000      2.000000
  0.000000  0.400000  0.500000      2.000000
  0.200000  0.400000  0.500000      2.000000
  0.400000  0.400000  0.500000      2.000000
 -0.400000  0.400000  0.500000      2.000000
 -0.200000  0.400000  0.500000      2.000000
 
 Following cartesian coordinates:
            Coordinates               Weight
  0.000000  0.000000  0.000000      1.000000
  0.024242  0.000000  0.000000      2.000000
  0.048484  0.000000  0.000000      2.000000
  0.000000  0.024242  0.000000      2.000000
  0.024242  0.024242  0.000000      2.000000
  0.048484  0.024242  0.000000      2.000000
 -0.048484  0.024242  0.000000      2.000000
 -0.024242  0.024242  0.000000      2.000000
  0.000000  0.048484  0.000000      2.000000
  0.024242  0.048484  0.000000      2.000000
  0.048484  0.048484  0.000000      2.000000
 -0.048484  0.048484  0.000000      2.000000
 -0.024242  0.048484  0.000000      2.000000
  0.000000  0.000000  0.023970      2.000000
  0.024242  0.000000  0.023970      4.000000
  0.048484  0.000000  0.023970      4.000000
  0.000000  0.024242  0.023970      4.000000
  0.024242  0.024242  0.023970      4.000000
  0.048484  0.024242  0.023970      4.000000
 -0.048484  0.024242  0.023970      4.000000
 -0.024242  0.024242  0.023970      4.000000
  0.000000  0.048484  0.023970      4.000000
  0.024242  0.048484  0.023970      4.000000
  0.048484  0.048484  0.023970      4.000000
 -0.048484  0.048484  0.023970      4.000000
 -0.024242  0.048484  0.023970      4.000000
  0.000000  0.000000  0.047939      2.000000
  0.024242  0.000000  0.047939      4.000000
  0.048484  0.000000  0.047939      4.000000
  0.000000  0.024242  0.047939      4.000000
  0.024242  0.024242  0.047939      4.000000
  0.048484  0.024242  0.047939      4.000000
 -0.048484  0.024242  0.047939      4.000000
 -0.024242  0.024242  0.047939      4.000000
  0.000000  0.048484  0.047939      4.000000
  0.024242  0.048484  0.047939      4.000000
  0.048484  0.048484  0.047939      4.000000
 -0.048484  0.048484  0.047939      4.000000
 -0.024242  0.048484  0.047939      4.000000
  0.000000  0.000000  0.071909      1.000000
  0.024242  0.000000  0.071909      2.000000
  0.048484  0.000000  0.071909      2.000000
  0.000000  0.024242  0.071909      2.000000
  0.024242  0.024242  0.071909      2.000000
  0.048484  0.024242  0.071909      2.000000
 -0.048484  0.024242  0.071909      2.000000
 -0.024242  0.024242  0.071909      2.000000
  0.000000  0.048484  0.071909      2.000000
  0.024242  0.048484  0.071909      2.000000
  0.048484  0.048484  0.071909      2.000000
 -0.048484  0.048484  0.071909      2.000000
 -0.024242  0.048484  0.071909      2.000000
 


--------------------------------------------------------------------------------------------------------




 Dimension of arrays:
   k-points           NKPTS =     52   k-points in BZ     NKDIM =     52   number of bands    NBANDS=    118
   number of dos      NEDOS =    301   number of ions     NIONS =     36
   non local maximal  LDIM  =      6   non local SUM 2l+1 LMDIM =     18
   total plane-waves  NPLWV = 139968
   max r-space proj   IRMAX =      1   max aug-charges    IRDMAX=  92271
   dimension x,y,z NGX =    54 NGY =   54 NGZ =   48
   dimension x,y,z NGXF=   108 NGYF=  108 NGZF=   96
   support grid    NGXF=   216 NGYF=  216 NGZF=  192
   ions per type =              18  18
   NGX,Y,Z   is equivalent  to a cutoff of  10.88, 10.88, 11.48 a.u.
   NGXF,Y,Z  is equivalent  to a cutoff of  21.76, 21.76, 22.95 a.u.

 SYSTEM =  AlMn_pv                                 
 POSCAR =  NewRef: 18, @ ['Mn', array([1.37502469, 

 Startparameter for this run:
   NWRITE =      2    write-flag & timer
   PREC   = accura    normal or accurate (medium, high low for compatibility)
   ISTART =      0    job   : 0-new  1-cont  2-samecut
   ICHARG =      2    charge: 1-file 2-atom 10-const
   ISPIN  =      2    spin polarized calculation?
   LNONCOLLINEAR =      F non collinear calculations
   LSORBIT =      F    spin-orbit coupling
   INIWAV =      1    electr: 0-lowe 1-rand  2-diag
   LASPH  =      F    aspherical Exc in radial PAW
   METAGGA=      F    non-selfconsistent MetaGGA calc.

 Electronic Relaxation 1
   ENCUT  =  404.8 eV  29.75 Ry    5.45 a.u.  13.53 13.53 11.41*2*pi/ulx,y,z
   ENINI  =  404.8     initial cutoff
   ENAUG  =  500.7 eV  augmentation charge cutoff
   NELM   =    100;   NELMIN=  4; NELMDL= -8     # of ELM steps 
   EDIFF  = 0.1E-06   stopping-criterion for ELM
   LREAL  =      F    real-space projection
   NLSPLINE    = F    spline interpolate recip. space projectors
   LCOMPAT=      F    compatible to vasp.4.4
   GGA_COMPAT  = T    GGA compatible to vasp.4.4-vasp.4.6
   LMAXPAW     = -100 max onsite density
   LMAXMIX     =    2 max onsite mixed and CHGCAR
   VOSKOWN=      0    Vosko Wilk Nusair interpolation
   ROPT   =    0.00000   0.00000
 Ionic relaxation
   EDIFFG = 0.1E-05   stopping-criterion for IOM
   NSW    =      0    number of steps for IOM
   NBLOCK =      1;   KBLOCK =      1    inner block; outer block 
   IBRION =     -1    ionic relax: 0-MD 1-quasi-New 2-CG
   NFREE  =      0    steps in history (QN), initial steepest desc. (CG)
   ISIF   =      2    stress and relaxation
   IWAVPR =     10    prediction:  0-non 1-charg 2-wave 3-comb
   ISYM   =      2    0-nonsym 1-usesym 2-fastsym
   LCORR  =      T    Harris-Foulkes like correction to forces

   POTIM  = 0.2000    time-step for ionic-motion
   TEIN   =    0.0    initial temperature
   TEBEG  =    0.0;   TEEND  =   0.0 temperature during run
   SMASS  =  -3.00    Nose mass-parameter (am)
   estimated Nose-frequenzy (Omega)   =  0.10E-29 period in steps =****** mass=  -0.156E-26a.u.
   SCALEE = 1.0000    scale energy and forces
   NPACO  =    256;   APACO  = 16.0  distance and # of slots for P.C.
   PSTRESS=    0.0 pullay stress

  Mass of Ions in am
   POMASS =  26.98 54.94
  Ionic Valenz
   ZVAL   =   3.00  7.00
  Atomic Wigner-Seitz radii
   RWIGS  =  -1.00 -1.00
  virtual crystal weights 
   VCA    =   1.00  1.00
   NELECT =     180.0000    total number of electrons
   NUPDOWN=      -1.0000    fix difference up-down

 DOS related values:
   EMIN   =  10.00;   EMAX   =-10.00  energy-range for DOS
   EFERMI =   0.00
   ISMEAR =     1;   SIGMA  =   0.20  broadening in eV -4-tet -1-fermi 0-gaus

 Electronic relaxation 2 (details)
   IALGO  =     58    algorithm
   LDIAG  =      T    sub-space diagonalisation (order eigenvalues)
   LSUBROT=      F    optimize rotation matrix (better conditioning)
   TURBO    =      0    0=normal 1=particle mesh
   IRESTART =      0    0=no restart 2=restart with 2 vectors
   NREBOOT  =      0    no. of reboots
   NMIN     =      0    reboot dimension
   EREF     =   0.00    reference energy to select bands
   IMIX   =      4    mixing-type and parameters
     AMIX     =   0.40;   BMIX     =  1.00
     AMIX_MAG =   1.60;   BMIX_MAG =  1.00
     AMIN     =   0.10
     WC   =   100.;   INIMIX=   1;  MIXPRE=   1;  MAXMIX= -45

 Intra band minimization:
   WEIMIN = 0.0000     energy-eigenvalue tresh-hold
   EBREAK =  0.21E-09  absolut break condition
   DEPER  =   0.30     relativ break condition  

   TIME   =   0.40     timestep for ELM

  volume/ion in A,a.u.               =      13.15        88.72
  Fermi-wavevector in a.u.,A,eV,Ry     =   1.186118  2.241439 19.141722  1.406877
  Thomas-Fermi vector in A             =   2.322298
 
 Write flags
   LWAVE        =      F    write WAVECAR
   LDOWNSAMPLE  =      F    k-point downsampling of WAVECAR
   LCHARG       =      F    write CHGCAR
   LVTOT        =      F    write LOCPOT, total local potential
   LVHAR        =      F    write LOCPOT, Hartree potential only
   LELF         =      F    write electronic localiz. function (ELF)
   LORBIT       =     10    0 simple, 1 ext, 2 COOP (PROOUT), +10 PAW based schemes


 Dipole corrections
   LMONO  =      F    monopole corrections only (constant potential shift)
   LDIPOL =      F    correct potential (dipole corrections)
   IDIPOL =      0    1-x, 2-y, 3-z, 4-all directions 
   EPSILON=  1.0000000 bulk dielectric constant

 Exchange correlation treatment:
   GGA     =    --    GGA type
   LEXCH   =     8    internal setting for exchange type
   VOSKOWN=      0    Vosko Wilk Nusair interpolation
   LHFCALC =     F    Hartree Fock is set to
   LHFONE  =     F    Hartree Fock one center treatment
   AEXX    =    0.0000 exact exchange contribution

 Linear response parameters
   LEPSILON=     F    determine dielectric tensor
   LRPA    =     F    only Hartree local field effects (RPA)
   LNABLA  =     F    use nabla operator in PAW spheres
   LVEL    =     F    velocity operator in full k-point grid
   LINTERFAST=   F  fast interpolation
   KINTER  =     0    interpolate to denser k-point grid
   CSHIFT  =0.1000    complex shift for real part using Kramers Kronig
   OMEGAMAX=  -1.0    maximum frequency
   DEG_THRESHOLD= 0.2000000E-02 threshold for treating states as degnerate
   RTIME   =   -0.100 relaxation time in fs
  (WPLASMAI=    0.000 imaginary part of plasma frequency in eV, 0.658/RTIME)
   DFIELD  = 0.0000000 0.0000000 0.0000000 field for delta impulse in time
 
 Orbital magnetization related:
   ORBITALMAG=     F  switch on orbital magnetization
   LCHIMAG   =     F  perturbation theory with respect to B field
   DQ        =  0.001000  dq finite difference perturbation B field
   LLRAUG    =     F  two centre corrections for induced B field



--------------------------------------------------------------------------------------------------------


 Static calculation
 charge density and potential will be updated during run
 spin polarized calculation
 Conjugate gradient for all bands (Freysoldt, et al. PRB 79, 241103 (2009))
 preconditioned conjugated gradient                                        
 perform sub-space diagonalisation
    before iterative eigenvector-optimisation
 modified Broyden-mixing scheme, WC =      100.0
 initial mixing is a Kerker type mixing with AMIX =  0.4000 and BMIX =      1.0000
 Hartree-type preconditioning will be used
 using additional bands           28
 reciprocal scheme for non local part
 use partial core corrections
 no Harris-corrections to forces 
 use gradient corrections 
 use of overlap-Matrix (Vanderbilt PP)
 Methfessel and Paxton  Order N= 1 SIGMA  =   0.20


--------------------------------------------------------------------------------------------------------


  energy-cutoff  :      404.80
  volume of cell :      473.27
      direct lattice vectors                 reciprocal lattice vectors
     8.250148166  0.000000000  0.000000000     0.121209944  0.000000000  0.000000000
     0.000000000  8.250148166  0.000000000     0.000000000  0.121209944  0.000000000
     0.000000000  0.000000000  6.953274261     0.000000000  0.000000000  0.143817137

  length of vectors
     8.250148166  8.250148166  6.953274261     0.121209944  0.121209944  0.143817137


 
 k-points in units of 2pi/SCALE and weight: automatic KPOINTS                       
   0.00000000  0.00000000  0.00000000       0.007
   0.02424199  0.00000000  0.00000000       0.013
   0.04848398  0.00000000  0.00000000       0.013
   0.00000000  0.02424199  0.00000000       0.013
   0.02424199  0.02424199  0.00000000       0.013
   0.04848398  0.02424199  0.00000000       0.013
  -0.04848398  0.02424199  0.00000000       0.013
  -0.02424199  0.02424199  0.00000000       0.013
   0.00000000  0.04848398  0.00000000       0.013
   0.02424199  0.04848398  0.00000000       0.013
   0.04848398  0.04848398  0.00000000       0.013
  -0.04848398  0.04848398  0.00000000       0.013
  -0.02424199  0.04848398  0.00000000       0.013
   0.00000000  0.00000000  0.02396952       0.013
   0.02424199  0.00000000  0.02396952       0.027
   0.04848398  0.00000000  0.02396952       0.027
   0.00000000  0.02424199  0.02396952       0.027
   0.02424199  0.02424199  0.02396952       0.027
   0.04848398  0.02424199  0.02396952       0.027
  -0.04848398  0.02424199  0.02396952       0.027
  -0.02424199  0.02424199  0.02396952       0.027
   0.00000000  0.04848398  0.02396952       0.027
   0.02424199  0.04848398  0.02396952       0.027
   0.04848398  0.04848398  0.02396952       0.027
  -0.04848398  0.04848398  0.02396952       0.027
  -0.02424199  0.04848398  0.02396952       0.027
   0.00000000  0.00000000  0.04793905       0.013
   0.02424199  0.00000000  0.04793905       0.027
   0.04848398  0.00000000  0.04793905       0.027
   0.00000000  0.02424199  0.04793905       0.027
   0.02424199  0.02424199  0.04793905       0.027
   0.04848398  0.02424199  0.04793905       0.027
  -0.04848398  0.02424199  0.04793905       0.027
  -0.02424199  0.02424199  0.04793905       0.027
   0.00000000  0.04848398  0.04793905       0.027
   0.02424199  0.04848398  0.04793905       0.027
   0.04848398  0.04848398  0.04793905       0.027
  -0.04848398  0.04848398  0.04793905       0.027
  -0.02424199  0.04848398  0.04793905       0.027
   0.00000000  0.00000000  0.07190857       0.007
   0.02424199  0.00000000  0.07190857       0.013
   0.04848398  0.00000000  0.07190857       0.013
   0.00000000  0.02424199  0.07190857       0.013
   0.02424199  0.02424199  0.07190857       0.013
   0.04848398  0.02424199  0.07190857       0.013
  -0.04848398  0.02424199  0.07190857       0.013
  -0.02424199  0.02424199  0.07190857       0.013
   0.00000000  0.04848398  0.07190857       0.013
   0.02424199  0.04848398  0.07190857       0.013
   0.04848398  0.04848398  0.07190857       0.013
  -0.04848398  0.04848398  0.07190857       0.013
  -0.02424199  0.04848398  0.07190857       0.013
 
 k-points in reciprocal lattice and weights: automatic KPOINTS                       
   0.00000000  0.00000000  0.00000000       0.007
   0.20000000  0.00000000  0.00000000       0.013
   0.40000000  0.00000000  0.00000000       0.013
   0.00000000  0.20000000  0.00000000       0.013
   0.20000000  0.20000000  0.00000000       0.013
   0.40000000  0.20000000  0.00000000       0.013
  -0.40000000  0.20000000  0.00000000       0.013
  -0.20000000  0.20000000  0.00000000       0.013
   0.00000000  0.40000000  0.00000000       0.013
   0.20000000  0.40000000  0.00000000       0.013
   0.40000000  0.40000000  0.00000000       0.013
  -0.40000000  0.40000000  0.00000000       0.013
  -0.20000000  0.40000000  0.00000000       0.013
   0.00000000  0.00000000  0.16666667       0.013
   0.20000000  0.00000000  0.16666667       0.027
   0.40000000  0.00000000  0.16666667       0.027
   0.00000000  0.20000000  0.16666667       0.027
   0.20000000  0.20000000  0.16666667       0.027
   0.40000000  0.20000000  0.16666667       0.027
  -0.40000000  0.20000000  0.16666667       0.027
  -0.20000000  0.20000000  0.16666667       0.027
   0.00000000  0.40000000  0.16666667       0.027
   0.20000000  0.40000000  0.16666667       0.027
   0.40000000  0.40000000  0.16666667       0.027
  -0.40000000  0.40000000  0.16666667       0.027
  -0.20000000  0.40000000  0.16666667       0.027
   0.00000000  0.00000000  0.33333333       0.013
   0.20000000  0.00000000  0.33333333       0.027
   0.40000000  0.00000000  0.33333333       0.027
   0.00000000  0.20000000  0.33333333       0.027
   0.20000000  0.20000000  0.33333333       0.027
   0.40000000  0.20000000  0.33333333       0.027
  -0.40000000  0.20000000  0.33333333       0.027
  -0.20000000  0.20000000  0.33333333       0.027
   0.00000000  0.40000000  0.33333333       0.027
   0.20000000  0.40000000  0.33333333       0.027
   0.40000000  0.40000000  0.33333333       0.027
  -0.40000000  0.40000000  0.33333333       0.027
  -0.20000000  0.40000000  0.33333333       0.027
   0.00000000  0.00000000  0.50000000       0.007
   0.20000000  0.00000000  0.50000000       0.013
   0.40000000  0.00000000  0.50000000       0.013
   0.00000000  0.20000000  0.50000000       0.013
   0.20000000  0.20000000  0.50000000       0.013
   0.40000000  0.20000000  0.50000000       0.013
  -0.40000000  0.20000000  0.50000000       0.013
  -0.20000000  0.20000000  0.50000000       0.013
   0.00000000  0.40000000  0.50000000       0.013
   0.20000000  0.40000000  0.50000000       0.013
   0.40000000  0.40000000  0.50000000       0.013
  -0.40000000  0.40000000  0.50000000       0.013
  -0.20000000  0.40000000  0.50000000       0.013
 
 position of ions in fractional coordinates (direct lattice) 
   0.00000000  0.00000000  0.00000000
   0.00000000  0.00000000  0.50000000
   0.00000000  0.33333333  0.00000000
   0.00000000  0.33333333  0.50000000
   0.00000000  0.66666667  0.00000000
   0.00000000  0.66666667  0.50000000
   0.33333333  0.00000000  0.00000000
   0.33333333  0.00000000  0.50000000
   0.33333333  0.33333333  0.00000000
   0.33333333  0.33333333  0.50000000
   0.33333333  0.66666667  0.00000000
   0.33333333  0.66666667  0.50000000
   0.66666667  0.00000000  0.00000000
   0.66666667  0.00000000  0.50000000
   0.66666667  0.33333333  0.00000000
   0.66666667  0.33333333  0.50000000
   0.66666667  0.66666667  0.00000000
   0.66666667  0.66666667  0.50000000
   0.16666667  0.16666667  0.25000000
   0.16666667  0.16666667  0.75000000
   0.16666667  0.50000000  0.25000000
   0.16666667  0.50000000  0.75000000
   0.16666667  0.83333333  0.25000000
   0.16666667  0.83333333  0.75000000
   0.50000000  0.16666667  0.25000000
   0.50000000  0.16666667  0.75000000
   0.50000000  0.50000000  0.25000000
   0.50000000  0.50000000  0.75000000
   0.50000000  0.83333333  0.25000000
   0.50000000  0.83333333  0.75000000
   0.83333333  0.16666667  0.25000000
   0.83333333  0.16666667  0.75000000
   0.83333333  0.50000000  0.25000000
   0.83333333  0.50000000  0.75000000
   0.83333333  0.83333333  0.25000000
   0.83333333  0.83333333  0.75000000
 
 position of ions in cartesian coordinates  (Angst):
   0.00000000  0.00000000  0.00000000
   0.00000000  0.00000000  3.47663713
   0.00000000  2.75004939  0.00000000
   0.00000000  2.75004939  3.47663713
   0.00000000  5.50009878  0.00000000
   0.00000000  5.50009878  3.47663713
   2.75004939  0.00000000  0.00000000
   2.75004939  0.00000000  3.47663713
   2.75004939  2.75004939  0.00000000
   2.75004939  2.75004939  3.47663713
   2.75004939  5.50009878  0.00000000
   2.75004939  5.50009878  3.47663713
   5.50009878  0.00000000  0.00000000
   5.50009878  0.00000000  3.47663713
   5.50009878  2.75004939  0.00000000
   5.50009878  2.75004939  3.47663713
   5.50009878  5.50009878  0.00000000
   5.50009878  5.50009878  3.47663713
   1.37502469  1.37502469  1.73831857
   1.37502469  1.37502469  5.21495570
   1.37502469  4.12507408  1.73831857
   1.37502469  4.12507408  5.21495570
   1.37502469  6.87512347  1.73831857
   1.37502469  6.87512347  5.21495570
   4.12507408  1.37502469  1.73831857
   4.12507408  1.37502469  5.21495570
   4.12507408  4.12507408  1.73831857
   4.12507408  4.12507408  5.21495570
   4.12507408  6.87512347  1.73831857
   4.12507408  6.87512347  5.21495570
   6.87512347  1.37502469  1.73831857
   6.87512347  1.37502469  5.21495570
   6.87512347  4.12507408  1.73831857
   6.87512347  4.12507408  5.21495570
   6.87512347  6.87512347  1.73831857
   6.87512347  6.87512347  5.21495570
 


--------------------------------------------------------------------------------------------------------


 k-point  1 :   0.0000 0.0000 0.0000  plane waves:    8799
 k-point  2 :   0.2000 0.0000 0.0000  plane waves:    8753
 k-point  3 :   0.4000 0.0000 0.0000  plane waves:    8757
 k-point  4 :   0.0000 0.2000 0.0000  plane waves:    8753
 k-point  5 :   0.2000 0.2000 0.0000  plane waves:    8767
 k-point  6 :   0.4000 0.2000 0.0000  plane waves:    8761
 k-point  7 :  -0.4000 0.2000 0.0000  plane waves:    8761
 k-point  8 :  -0.2000 0.2000 0.0000  plane waves:    8767
 k-point  9 :   0.0000 0.4000 0.0000  plane waves:    8757
 k-point 10 :   0.2000 0.4000 0.0000  plane waves:    8761
 k-point 11 :   0.4000 0.4000 0.0000  plane waves:    8731
 k-point 12 :  -0.4000 0.4000 0.0000  plane waves:    8731
 k-point 13 :  -0.2000 0.4000 0.0000  plane waves:    8761
 k-point 14 :   0.0000 0.0000 0.1667  plane waves:    8763
 k-point 15 :   0.2000 0.0000 0.1667  plane waves:    8771
 k-point 16 :   0.4000 0.0000 0.1667  plane waves:    8747
 k-point 17 :   0.0000 0.2000 0.1667  plane waves:    8771
 k-point 18 :   0.2000 0.2000 0.1667  plane waves:    8764
 k-point 19 :   0.4000 0.2000 0.1667  plane waves:    8768
 k-point 20 :  -0.4000 0.2000 0.1667  plane waves:    8768
 k-point 21 :  -0.2000 0.2000 0.1667  plane waves:    8764
 k-point 22 :   0.0000 0.4000 0.1667  plane waves:    8747
 k-point 23 :   0.2000 0.4000 0.1667  plane waves:    8768
 k-point 24 :   0.4000 0.4000 0.1667  plane waves:    8740
 k-point 25 :  -0.4000 0.4000 0.1667  plane waves:    8740
 k-point 26 :  -0.2000 0.4000 0.1667  plane waves:    8768
 k-point 27 :   0.0000 0.0000 0.3333  plane waves:    8743
 k-point 28 :   0.2000 0.0000 0.3333  plane waves:    8736
 k-point 29 :   0.4000 0.0000 0.3333  plane waves:    8753
 k-point 30 :   0.0000 0.2000 0.3333  plane waves:    8736
 k-point 31 :   0.2000 0.2000 0.3333  plane waves:    8753
 k-point 32 :   0.4000 0.2000 0.3333  plane waves:    8743
 k-point 33 :  -0.4000 0.2000 0.3333  plane waves:    8743
 k-point 34 :  -0.2000 0.2000 0.3333  plane waves:    8753
 k-point 35 :   0.0000 0.4000 0.3333  plane waves:    8753
 k-point 36 :   0.2000 0.4000 0.3333  plane waves:    8743
 k-point 37 :   0.4000 0.4000 0.3333  plane waves:    8755
 k-point 38 :  -0.4000 0.4000 0.3333  plane waves:    8755
 k-point 39 :  -0.2000 0.4000 0.3333  plane waves:    8743
 k-point 40 :   0.0000 0.0000 0.5000  plane waves:    8742
 k-point 41 :   0.2000 0.0000 0.5000  plane waves:    8756
 k-point 42 :   0.4000 0.0000 0.5000  plane waves:    8744
 k-point 43 :   0.0000 0.2000 0.5000  plane waves:    8756
 k-point 44 :   0.2000 0.2000 0.5000  plane waves:    8762
 k-point 45 :   0.4000 0.2000 0.5000  plane waves:    8732
 k-point 46 :  -0.4000 0.2000 0.5000  plane waves:    8732
 k-point 47 :  -0.2000 0.2000 0.5000  plane waves:    8762
 k-point 48 :   0.0000 0.4000 0.5000  plane waves:    8744
 k-point 49 :   0.2000 0.4000 0.5000  plane waves:    8732
 k-point 50 :   0.4000 0.4000 0.5000  plane waves:    8736
 k-point 51 :  -0.4000 0.4000 0.5000  plane waves:    8736
 k-point 52 :  -0.2000 0.4000 0.5000  plane waves:    8732

 maximum and minimum number of plane-waves per node :      2210     2164

 maximum number of plane-waves:      8799
 maximum index in each direction: 
   IXMAX=   13   IYMAX=   13   IZMAX=   11
   IXMIN=  -13   IYMIN=  -13   IZMIN=  -11


 parallel 3D FFT for wavefunctions:
    minimum data exchange during FFTs selected (reduces bandwidth)
 parallel 3D FFT for charge:
    minimum data exchange during FFTs selected (reduces bandwidth)


 total amount of memory used by VASP MPI-rank0   786703. kBytes
=======================================================================

   base      :      30000. kBytes
   nonl-proj :      34307. kBytes
   fftplans  :      21726. kBytes
   grid      :      14732. kBytes
   one-center:        279. kBytes
   wavefun   :     685659. kBytes
 
     INWAV:  cpu time    0.0000: real time    0.0000
 Broyden mixing: mesh for mixing (old mesh)
   NGX = 27   NGY = 27   NGZ = 23
  (NGX  =108   NGY  =108   NGZ  = 96)
  gives a total of  16767 points

 initial charge density was supplied:
 charge density of overlapping atoms calculated
 number of electron     180.0000000 magnetization      18.0000000
 keeping initial charge density in first step


--------------------------------------------------------------------------------------------------------


 Maximum index for augmentation-charges        11261 (set IRDMAX)


--------------------------------------------------------------------------------------------------------


 First call to EWALD:  gamma=   0.227
 Maximum number of real-space cells 3x 3x 3
 Maximum number of reciprocal cells 3x 3x 3

    FEWALD:  cpu time    0.0024: real time    0.0024


--------------------------------------- Iteration      1(   1)  ---------------------------------------


    POTLOK:  cpu time    0.2646: real time    0.2653
    SETDIJ:  cpu time    0.3195: real time    0.3203
    TRIAL :  cpu time   19.8318: real time   20.8373
    CORREC:  cpu time    0.0068: real time    0.0069
    --------------------------------------------
      LOOP:  cpu time   20.6537: real time   21.6692

 eigenvalue-minimisations  : 24544
 total energy-change (2. order) : 0.1334728E+04  (-0.5947887E+04)
 number of electron     180.0000000 magnetization      18.0000000
 augmentation part      180.0000000 magnetization      18.0000000

 Free energy of the ion-electron system (eV)
  ---------------------------------------------------
  alpha Z        PSCENC =       532.25742704
  Ewald energy   TEWEN  =     -8601.05107233
  -Hartree energ DENC   =     -1903.73857242
  -exchange      EXHF   =         0.00000000
  -V(xc)+E(xc)   XCENC  =      -664.50929696
  PAW double counting   =      8494.55058411    -7650.81563588
  entropy T*S    EENTRO =        -0.00176072
  eigenvalues    EBANDS =      2662.92052280
  atomic energy  EATOM  =      8465.11600846
  ---------------------------------------------------
  free energy    TOTEN  =      1334.72820410 eV

  energy without entropy =     1334.72996482  energy(sigma->0) =     1334.72879101


--------------------------------------------------------------------------------------------------------




--------------------------------------- Iteration      1(   2)  ---------------------------------------


    TRIAL :  cpu time   19.7782: real time   19.8422
    CORREC:  cpu time    0.0085: real time    0.0094
    --------------------------------------------
      LOOP:  cpu time   19.7879: real time   19.8550

 eigenvalue-minimisations  : 24544
 total energy-change (2. order) :-0.1411748E+04  (-0.1368959E+04)
 number of electron     180.0000000 magnetization      18.0000000
 augmentation part      180.0000000 magnetization      18.0000000

 Free energy of the ion-electron system (eV)
  ---------------------------------------------------
  alpha Z        PSCENC =       532.25742704
  Ewald energy   TEWEN  =     -8601.05107233
  -Hartree energ DENC   =     -1903.73857242
  -exchange      EXHF   =         0.00000000
  -V(xc)+E(xc)   XCENC  =      -664.50929696
  PAW double counting   =      8494.55058411    -7650.81563588
  entropy T*S    EENTRO =         0.00039483
  eigenvalues    EBANDS =      1251.17050405
  atomic energy  EATOM  =      8465.11600846
  ---------------------------------------------------
  free energy    TOTEN  =       -77.01965909 eV

  energy without entropy =      -77.02005393  energy(sigma->0) =      -77.01979070


--------------------------------------------------------------------------------------------------------




--------------------------------------- Iteration      1(   3)  ---------------------------------------


    TRIAL :  cpu time   27.1526: real time   28.0536
    CORREC:  cpu time    0.0097: real time    0.0097
    --------------------------------------------
      LOOP:  cpu time   27.1653: real time   28.0666

 eigenvalue-minimisations  : 37098
 total energy-change (2. order) :-0.1648925E+03  (-0.1448862E+03)
 number of electron     180.0000000 magnetization      18.0000000
 augmentation part      180.0000000 magnetization      18.0000000

 Free energy of the ion-electron system (eV)
  ---------------------------------------------------
  alpha Z        PSCENC =       532.25742704
  Ewald energy   TEWEN  =     -8601.05107233
  -Hartree energ DENC   =     -1903.73857242
  -exchange      EXHF   =         0.00000000
  -V(xc)+E(xc)   XCENC  =      -664.50929696
  PAW double counting   =      8494.55058411    -7650.81563588
  entropy T*S    EENTRO =         0.00589404
  eigenvalues    EBANDS =      1086.27246311
  atomic energy  EATOM  =      8465.11600846
  ---------------------------------------------------
  free energy    TOTEN  =      -241.91220083 eV

  energy without entropy =     -241.91809487  energy(sigma->0) =     -241.91416551


--------------------------------------------------------------------------------------------------------




--------------------------------------- Iteration      1(   4)  ---------------------------------------


    TRIAL :  cpu time   28.8477: real time   29.2349
    CORREC:  cpu time    0.0101: real time    0.0109
    --------------------------------------------
      LOOP:  cpu time   28.8592: real time   29.2493

 eigenvalue-minimisations  : 39744
 total energy-change (2. order) :-0.2479706E+02  (-0.2158139E+02)
 number of electron     180.0000000 magnetization      18.0000000
 augmentation part      180.0000000 magnetization      18.0000000

 Free energy of the ion-electron system (eV)
  ---------------------------------------------------
  alpha Z        PSCENC =       532.25742704
  Ewald energy   TEWEN  =     -8601.05107233
  -Hartree energ DENC   =     -1903.73857242
  -exchange      EXHF   =         0.00000000
  -V(xc)+E(xc)   XCENC  =      -664.50929696
  PAW double counting   =      8494.55058411    -7650.81563588
  entropy T*S    EENTRO =         0.02297636
  eigenvalues    EBANDS =      1061.45832282
  atomic energy  EATOM  =      8465.11600846
  ---------------------------------------------------
  free energy    TOTEN  =      -266.70925880 eV

  energy without entropy =     -266.73223515  energy(sigma->0) =     -266.71691758


--------------------------------------------------------------------------------------------------------




--------------------------------------- Iteration      1(   5)  ---------------------------------------


    TRIAL :  cpu time   29.1541: real time   30.0910
    CORREC:  cpu time    0.0104: real time    0.0105
    --------------------------------------------
      LOOP:  cpu time   29.1654: real time   30.1045

 eigenvalue-minimisations  : 40312
 total energy-change (2. order) :-0.2359322E+01  (-0.2241256E+01)
 number of electron     180.0000000 magnetization      18.0000000
 augmentation part      180.0000000 magnetization      18.0000000

 Free energy of the ion-electron system (eV)
  ---------------------------------------------------
  alpha Z        PSCENC =       532.25742704
  Ewald energy   TEWEN  =     -8601.05107233
  -Hartree energ DENC   =     -1903.73857242
  -exchange      EXHF   =         0.00000000
  -V(xc)+E(xc)   XCENC  =      -664.50929696
  PAW double counting   =      8494.55058411    -7650.81563588
  entropy T*S    EENTRO =         0.02697386
  eigenvalues    EBANDS =      1059.09500360
  atomic energy  EATOM  =      8465.11600846
  ---------------------------------------------------
  free energy    TOTEN  =      -269.06858052 eV

  energy without entropy =     -269.09555438  energy(sigma->0) =     -269.07757180


--------------------------------------------------------------------------------------------------------




--------------------------------------- Iteration      1(   6)  ---------------------------------------


    TRIAL :  cpu time   29.1947: real time   29.6458
    CORREC:  cpu time    0.0104: real time    0.0113
    --------------------------------------------
      LOOP:  cpu time   29.2063: real time   29.6610

 eigenvalue-minimisations  : 40200
 total energy-change (2. order) :-0.1831128E+00  (-0.1796069E+00)
 number of electron     180.0000000 magnetization      18.0000000
 augmentation part      180.0000000 magnetization      18.0000000

 Free energy of the ion-electron system (eV)
  ---------------------------------------------------
  alpha Z        PSCENC =       532.25742704
  Ewald energy   TEWEN  =     -8601.05107233
  -Hartree energ DENC   =     -1903.73857242
  -exchange      EXHF   =         0.00000000
  -V(xc)+E(xc)   XCENC  =      -664.50929696
  PAW double counting   =      8494.55058411    -7650.81563588
  entropy T*S    EENTRO =         0.02722192
  eigenvalues    EBANDS =      1058.91164275
  atomic energy  EATOM  =      8465.11600846
  ---------------------------------------------------
  free energy    TOTEN  =      -269.25169331 eV

  energy without entropy =     -269.27891522  energy(sigma->0) =     -269.26076728


--------------------------------------------------------------------------------------------------------




--------------------------------------- Iteration      1(   7)  ---------------------------------------


    TRIAL :  cpu time   29.6849: real time   30.6103
    CORREC:  cpu time    0.0105: real time    0.0105
    --------------------------------------------
      LOOP:  cpu time   29.6963: real time   30.6238

 eigenvalue-minimisations  : 41152
 total energy-change (2. order) :-0.1942228E-01  (-0.1925854E-01)
 number of electron     180.0000000 magnetization      18.0000000
 augmentation part      180.0000000 magnetization      18.0000000

 Free energy of the ion-electron system (eV)
  ---------------------------------------------------
  alpha Z        PSCENC =       532.25742704
  Ewald energy   TEWEN  =     -8601.05107233
  -Hartree energ DENC   =     -1903.73857242
  -exchange      EXHF   =         0.00000000
  -V(xc)+E(xc)   XCENC  =      -664.50929696
  PAW double counting   =      8494.55058411    -7650.81563588
  entropy T*S    EENTRO =         0.02727359
  eigenvalues    EBANDS =      1058.89216879
  atomic energy  EATOM  =      8465.11600846
  ---------------------------------------------------
  free energy    TOTEN  =      -269.27111559 eV

  energy without entropy =     -269.29838918  energy(sigma->0) =     -269.28020679


--------------------------------------------------------------------------------------------------------




--------------------------------------- Iteration      1(   8)  ---------------------------------------


    TRIAL :  cpu time   28.7808: real time   29.1421
    CORREC:  cpu time    0.0101: real time    0.0109
    CHARGE:  cpu time    1.1363: real time    1.1364
    --------------------------------------------
      LOOP:  cpu time   29.9290: real time   30.2931

 eigenvalue-minimisations  : 39400
 total energy-change (2. order) :-0.1418525E-02  (-0.1410811E-02)
 number of electron     179.9999997 magnetization      13.1742727
 augmentation part       42.6795071 magnetization       7.6638528

 Free energy of the ion-electron system (eV)
  ---------------------------------------------------
  alpha Z        PSCENC =       532.25742704
  Ewald energy   TEWEN  =     -8601.05107233
  -Hartree energ DENC   =     -1903.73857242
  -exchange      EXHF   =         0.00000000
  -V(xc)+E(xc)   XCENC  =      -664.50929696
  PAW double counting   =      8494.55058411    -7650.81563588
  entropy T*S    EENTRO =         0.02729880
  eigenvalues    EBANDS =      1058.89072506
  atomic energy  EATOM  =      8465.11600846
  ---------------------------------------------------
  free energy    TOTEN  =      -269.27253411 eV

  energy without entropy =     -269.29983292  energy(sigma->0) =     -269.28163371


--------------------------------------------------------------------------------------------------------




--------------------------------------- Iteration      1(   9)  ---------------------------------------


    POTLOK:  cpu time    0.2521: real time    0.2521
    SETDIJ:  cpu time    0.3396: real time    0.3396
    TRIAL :  cpu time    9.8669: real time   10.0543
    CORREC:  cpu time    3.5914: real time    3.6012
    CHARGE:  cpu time    1.1717: real time    1.1720
    --------------------------------------------
      LOOP:  cpu time   15.2304: real time   15.4295

 eigenvalue-minimisations  :     0
 total energy-change (2. order) : 0.2058289E+03  (-0.1400540E+03)
 number of electron     179.9999997 magnetization      13.5950261
 augmentation part       53.8560167 magnetization       8.7503094

 Free energy of the ion-electron system (eV)
  ---------------------------------------------------
  alpha Z        PSCENC =       532.25742704
  Ewald energy   TEWEN  =     -8601.05107233
  -Hartree energ DENC   =      -847.21839676
  -exchange      EXHF   =         0.00000000
  -V(xc)+E(xc)   XCENC  =      -694.67471104
  PAW double counting   =     12765.82984839   -11819.36538171
  entropy T*S    EENTRO =         0.01443221
  eigenvalues    EBANDS =       135.63533609
  atomic energy  EATOM  =      8465.11600846
  ---------------------------------------------------
  free energy    TOTEN  =       -63.44364307 eV

  energy without entropy =      -63.45807528  energy(sigma->0) =      -63.44845381


--------------------------------------------------------------------------------------------------------




--------------------------------------- Iteration      1(  10)  ---------------------------------------


    POTLOK:  cpu time    0.2763: real time    0.2763
    SETDIJ:  cpu time    0.3383: real time    0.3383
    TRIAL :  cpu time   10.6783: real time   11.4694
    CORREC:  cpu time    3.6700: real time    3.6921
    CHARGE:  cpu time    1.1237: real time    1.1333
    --------------------------------------------
      LOOP:  cpu time   16.0887: real time   16.9124

 eigenvalue-minimisations  :     0
 total energy-change (2. order) :-0.1425837E+03  (-0.1210511E+02)
 number of electron     179.9999996 magnetization      13.5194797
 augmentation part       57.4287929 magnetization       9.1270351

 Free energy of the ion-electron system (eV)
  ---------------------------------------------------
  alpha Z        PSCENC =       532.25742704
  Ewald energy   TEWEN  =     -8601.05107233
  -Hartree energ DENC   =     -1347.90424644
  -exchange      EXHF   =         0.00000000
  -V(xc)+E(xc)   XCENC  =      -677.46900394
  PAW double counting   =     13510.71856278   -12673.17366915
  entropy T*S    EENTRO =         0.00949747
  eigenvalues    EBANDS =       585.46423480
  atomic energy  EATOM  =      8465.11600846
  ---------------------------------------------------
  free energy    TOTEN  =      -206.02732657 eV

  energy without entropy =     -206.03682405  energy(sigma->0) =     -206.03049240


--------------------------------------------------------------------------------------------------------




--------------------------------------- Iteration      1(  11)  ---------------------------------------


    POTLOK:  cpu time    0.2641: real time    0.2641
    SETDIJ:  cpu time    0.3177: real time    0.3240
    TRIAL :  cpu time    9.8347: real time   10.0290
    CORREC:  cpu time    3.5574: real time    3.5639
    CHARGE:  cpu time    1.1389: real time    1.1394
    --------------------------------------------
      LOOP:  cpu time   15.1188: real time   15.3269

 eigenvalue-minimisations  :     0
 total energy-change (2. order) :-0.1199629E+02  (-0.8097885E+01)
 number of electron     179.9999996 magnetization      13.6291413
 augmentation part       59.0419812 magnetization       9.3819960

 Free energy of the ion-electron system (eV)
  ---------------------------------------------------
  alpha Z        PSCENC =       532.25742704
  Ewald energy   TEWEN  =     -8601.05107233
  -Hartree energ DENC   =     -1546.45683264
  -exchange      EXHF   =         0.00000000
  -V(xc)+E(xc)   XCENC  =      -670.34230654
  PAW double counting   =     14352.29997227   -13552.25983210
  entropy T*S    EENTRO =         0.00776865
  eigenvalues    EBANDS =       802.40352083
  atomic energy  EATOM  =      8465.11600846
  ---------------------------------------------------
  free energy    TOTEN  =      -218.02361754 eV

  energy without entropy =     -218.03138619  energy(sigma->0) =     -218.02620709


--------------------------------------------------------------------------------------------------------




--------------------------------------- Iteration      1(  12)  ---------------------------------------


    POTLOK:  cpu time    0.2466: real time    0.2467
    SETDIJ:  cpu time    0.3705: real time    0.3710
    TRIAL :  cpu time    9.8380: real time    9.9339
    CORREC:  cpu time    3.6005: real time    3.6024
    CHARGE:  cpu time    1.1484: real time    1.1905
    --------------------------------------------
      LOOP:  cpu time   15.2055: real time   15.3465

 eigenvalue-minimisations  :     0
 total energy-change (2. order) :-0.8120568E+01  (-0.7164455E+01)
 number of electron     179.9999996 magnetization      13.2886332
 augmentation part       58.4484004 magnetization       9.3007396

 Free energy of the ion-electron system (eV)
  ---------------------------------------------------
  alpha Z        PSCENC =       532.25742704
  Ewald energy   TEWEN  =     -8601.05107233
  -Hartree energ DENC   =     -1685.91939785
  -exchange      EXHF   =         0.00000000
  -V(xc)+E(xc)   XCENC  =      -665.67848875
  PAW double counting   =     14454.14986330   -13659.58015261
  entropy T*S    EENTRO =         0.00007437
  eigenvalues    EBANDS =       934.55385853
  atomic energy  EATOM  =      8465.11600846
  ---------------------------------------------------
  free energy    TOTEN  =      -226.14418556 eV

  energy without entropy =     -226.14425993  energy(sigma->0) =     -226.14421035


--------------------------------------------------------------------------------------------------------




--------------------------------------- Iteration      1(  13)  ---------------------------------------


    POTLOK:  cpu time    0.2480: real time    0.2483
    SETDIJ:  cpu time    0.3217: real time    0.3221
    TRIAL :  cpu time    9.8518: real time   10.0382
    CORREC:  cpu time    4.2385: real time    4.2398
    CHARGE:  cpu time    1.1644: real time    1.1647
    --------------------------------------------
      LOOP:  cpu time   15.8316: real time   16.0213

 eigenvalue-minimisations  :     0
 total energy-change (2. order) :-0.7117875E+01  (-0.1176081E+01)
 number of electron     179.9999997 magnetization      13.2819770
 augmentation part       57.5050843 magnetization       9.2215470

 Free energy of the ion-electron system (eV)
  ---------------------------------------------------
  alpha Z        PSCENC =       532.25742704
  Ewald energy   TEWEN  =     -8601.05107233
  -Hartree energ DENC   =     -1710.33579397
  -exchange      EXHF   =         0.00000000
  -V(xc)+E(xc)   XCENC  =      -665.29721820
  PAW double counting   =     14198.52311987   -13381.04107335
  entropy T*S    EENTRO =         0.00289221
  eigenvalues    EBANDS =       928.56646733
  atomic energy  EATOM  =      8465.11600846
  ---------------------------------------------------
  free energy    TOTEN  =      -233.26206078 eV

  energy without entropy =     -233.26495300  energy(sigma->0) =     -233.26302485


--------------------------------------------------------------------------------------------------------




--------------------------------------- Iteration      1(  14)  ---------------------------------------


    POTLOK:  cpu time    0.2608: real time    0.2608
    SETDIJ:  cpu time    0.3163: real time    0.3163
    TRIAL :  cpu time    9.8087: real time   10.6502
    CORREC:  cpu time    3.5847: real time    3.7370
    CHARGE:  cpu time    1.1165: real time    1.1170
    --------------------------------------------
      LOOP:  cpu time   15.0893: real time   16.0839

 eigenvalue-minimisations  :     0
 total energy-change (2. order) :-0.1160533E+01  (-0.6386821E+00)
 number of electron     179.9999997 magnetization      13.1593664
 augmentation part       57.2601439 magnetization       9.0773061

 Free energy of the ion-electron system (eV)
  ---------------------------------------------------
  alpha Z        PSCENC =       532.25742704
  Ewald energy   TEWEN  =     -8601.05107233
  -Hartree energ DENC   =     -1664.63843840
  -exchange      EXHF   =         0.00000000
  -V(xc)+E(xc)   XCENC  =      -666.99152383
  PAW double counting   =     13911.59190734   -13079.73240198
  entropy T*S    EENTRO =         0.00089067
  eigenvalues    EBANDS =       869.02260785
  atomic energy  EATOM  =      8465.11600846
  ---------------------------------------------------
  free energy    TOTEN  =      -234.42259363 eV

  energy without entropy =     -234.42348430  energy(sigma->0) =     -234.42289052


--------------------------------------------------------------------------------------------------------




--------------------------------------- Iteration      1(  15)  ---------------------------------------


    POTLOK:  cpu time    0.2449: real time    0.2589
    SETDIJ:  cpu time    0.3391: real time    0.3392
    TRIAL :  cpu time    9.8612: real time    9.9802
    CORREC:  cpu time    3.5878: real time    3.5921
    CHARGE:  cpu time    1.1368: real time    1.1370
    --------------------------------------------
      LOOP:  cpu time   15.1714: real time   15.3101

 eigenvalue-minimisations  :     0
 total energy-change (2. order) :-0.6371226E+00  (-0.6491111E+00)
 number of electron     179.9999996 magnetization      13.0881868
 augmentation part       57.6780594 magnetization       9.0092403

 Free energy of the ion-electron system (eV)
  ---------------------------------------------------
  alpha Z        PSCENC =       532.25742704
  Ewald energy   TEWEN  =     -8601.05107233
  -Hartree energ DENC   =     -1644.93940264
  -exchange      EXHF   =         0.00000000
  -V(xc)+E(xc)   XCENC  =      -667.62689299
  PAW double counting   =     13510.68714514   -12673.43618732
  entropy T*S    EENTRO =         0.00320813
  eigenvalues    EBANDS =       843.93236777
  atomic energy  EATOM  =      8465.11600846
  ---------------------------------------------------
  free energy    TOTEN  =      -235.05971620 eV

  energy without entropy =     -235.06292433  energy(sigma->0) =     -235.06078558


--------------------------------------------------------------------------------------------------------




--------------------------------------- Iteration      1(  16)  ---------------------------------------


    POTLOK:  cpu time    0.2467: real time    0.2471
    SETDIJ:  cpu time    0.3249: real time    0.3255
    TRIAL :  cpu time    9.8500: real time    9.8887
    CORREC:  cpu time    3.5869: real time    3.6943
    CHARGE:  cpu time    1.1155: real time    1.1163
    --------------------------------------------
      LOOP:  cpu time   15.1284: real time   15.2781

 eigenvalue-minimisations  :     0
 total energy-change (2. order) :-0.6457257E+00  (-0.1726250E+00)
 number of electron     179.9999996 magnetization      12.9914011
 augmentation part       58.0606808 magnetization       8.9984573

 Free energy of the ion-electron system (eV)
  ---------------------------------------------------
  alpha Z        PSCENC =       532.25742704
  Ewald energy   TEWEN  =     -8601.05107233
  -Hartree energ DENC   =     -1655.59425098
  -exchange      EXHF   =         0.00000000
  -V(xc)+E(xc)   XCENC  =      -667.07694174
  PAW double counting   =     13114.09367944   -12278.87861030
  entropy T*S    EENTRO =         0.00270875
  eigenvalues    EBANDS =       855.42511035
  atomic energy  EATOM  =      8465.11600846
  ---------------------------------------------------
  free energy    TOTEN  =      -235.70544194 eV

  energy without entropy =     -235.70815069  energy(sigma->0) =     -235.70634486


--------------------------------------------------------------------------------------------------------




--------------------------------------- Iteration      1(  17)  ---------------------------------------


    POTLOK:  cpu time    0.2738: real time    0.2738
    SETDIJ:  cpu time    0.3143: real time    0.3143
    TRIAL :  cpu time    9.8839: real time    9.9136
    CORREC:  cpu time    4.4990: real time    4.5003
    CHARGE:  cpu time    1.1255: real time    1.1257
    --------------------------------------------
      LOOP:  cpu time   16.0982: real time   16.1300

 eigenvalue-minimisations  :     0
 total energy-change (2. order) :-0.1724498E+00  (-0.1425630E+00)
 number of electron     179.9999996 magnetization      12.9203348
 augmentation part       58.2503891 magnetization       9.0097405

 Free energy of the ion-electron system (eV)
  ---------------------------------------------------
  alpha Z        PSCENC =       532.25742704
  Ewald energy   TEWEN  =     -8601.05107233
  -Hartree energ DENC   =     -1672.19413215
  -exchange      EXHF   =         0.00000000
  -V(xc)+E(xc)   XCENC  =      -666.36511495
  PAW double counting   =     13045.10300095   -12213.74607129
  entropy T*S    EENTRO =         0.00372326
  eigenvalues    EBANDS =       874.99935381
  atomic energy  EATOM  =      8465.11600846
  ---------------------------------------------------
  free energy    TOTEN  =      -235.87789171 eV

  energy without entropy =     -235.88161497  energy(sigma->0) =     -235.87913280


--------------------------------------------------------------------------------------------------------




--------------------------------------- Iteration      1(  18)  ---------------------------------------


    POTLOK:  cpu time    0.2479: real time    0.2479
    SETDIJ:  cpu time    0.3412: real time    0.3421
    TRIAL :  cpu time    9.7975: real time   10.7565
    CORREC:  cpu time    3.5578: real time    3.5749
    CHARGE:  cpu time    1.1139: real time    1.1142
    --------------------------------------------
      LOOP:  cpu time   15.0642: real time   16.0420

 eigenvalue-minimisations  :     0
 total energy-change (2. order) :-0.1422373E+00  (-0.1281883E+00)
 number of electron     179.9999996 magnetization      12.8285770
 augmentation part       58.1025293 magnetization       9.0077278

 Free energy of the ion-electron system (eV)
  ---------------------------------------------------
  alpha Z        PSCENC =       532.25742704
  Ewald energy   TEWEN  =     -8601.05107233
  -Hartree energ DENC   =     -1679.54147775
  -exchange      EXHF   =         0.00000000
  -V(xc)+E(xc)   XCENC  =      -665.92733050
  PAW double counting   =     13008.66119732   -12179.44031691
  entropy T*S    EENTRO =         0.00394954
  eigenvalues    EBANDS =       883.90171242
  atomic energy  EATOM  =      8465.11600846
  ---------------------------------------------------
  free energy    TOTEN  =      -236.02012899 eV

  energy without entropy =     -236.02407854  energy(sigma->0) =     -236.02144551


--------------------------------------------------------------------------------------------------------




--------------------------------------- Iteration      1(  19)  ---------------------------------------


    POTLOK:  cpu time    0.2475: real time    0.2475
    SETDIJ:  cpu time    0.3812: real time    0.3883
    TRIAL :  cpu time    9.8452: real time    9.9911
    CORREC:  cpu time    3.6241: real time    3.6294
    CHARGE:  cpu time    1.1387: real time    1.1391
    --------------------------------------------
      LOOP:  cpu time   15.2407: real time   15.4011

 eigenvalue-minimisations  :     0
 total energy-change (2. order) :-0.1277693E+00  (-0.3850629E-01)
 number of electron     179.9999996 magnetization      12.7803885
 augmentation part       57.9535115 magnetization       8.9949918

 Free energy of the ion-electron system (eV)
  ---------------------------------------------------
  alpha Z        PSCENC =       532.25742704
  Ewald energy   TEWEN  =     -8601.05107233
  -Hartree energ DENC   =     -1670.08455466
  -exchange      EXHF   =         0.00000000
  -V(xc)+E(xc)   XCENC  =      -666.07859658
  PAW double counting   =     12978.21614430   -12147.57376570
  entropy T*S    EENTRO =         0.00434914
  eigenvalues    EBANDS =       873.04656160
  atomic energy  EATOM  =      8465.11600846
  ---------------------------------------------------
  free energy    TOTEN  =      -236.14789832 eV

  energy without entropy =     -236.15224746  energy(sigma->0) =     -236.14934803


--------------------------------------------------------------------------------------------------------




--------------------------------------- Iteration      1(  20)  ---------------------------------------


    POTLOK:  cpu time    0.2491: real time    0.2490
    SETDIJ:  cpu time    0.3653: real time    0.3879
    TRIAL :  cpu time    9.8928: real time    9.9058
    CORREC:  cpu time    3.5774: real time    3.6282
    CHARGE:  cpu time    1.1176: real time    1.1176
    --------------------------------------------
      LOOP:  cpu time   15.2045: real time   15.2915

 eigenvalue-minimisations  :     0
 total energy-change (2. order) :-0.3837119E-01  (-0.3975054E-01)
 number of electron     179.9999996 magnetization      12.7355282
 augmentation part       57.8476681 magnetization       8.9873221

 Free energy of the ion-electron system (eV)
  ---------------------------------------------------
  alpha Z        PSCENC =       532.25742704
  Ewald energy   TEWEN  =     -8601.05107233
  -Hartree energ DENC   =     -1662.64717102
  -exchange      EXHF   =         0.00000000
  -V(xc)+E(xc)   XCENC  =      -666.28124104
  PAW double counting   =     12968.48183625   -12136.34872061
  entropy T*S    EENTRO =         0.00434147
  eigenvalues    EBANDS =       864.28231461
  atomic energy  EATOM  =      8465.11600846
  ---------------------------------------------------
  free energy    TOTEN  =      -236.18626951 eV

  energy without entropy =     -236.19061097  energy(sigma->0) =     -236.18771666


--------------------------------------------------------------------------------------------------------




--------------------------------------- Iteration      1(  21)  ---------------------------------------


    POTLOK:  cpu time    0.2474: real time    0.2474
    SETDIJ:  cpu time    0.3506: real time    0.3509
    TRIAL :  cpu time   10.4808: real time   10.4925
    CORREC:  cpu time    3.5693: real time    3.5817
    CHARGE:  cpu time    1.1203: real time    1.1211
    --------------------------------------------
      LOOP:  cpu time   15.7725: real time   15.7979

 eigenvalue-minimisations  :     0
 total energy-change (2. order) :-0.3973886E-01  (-0.3675026E-01)
 number of electron     179.9999996 magnetization      12.6741905
 augmentation part       57.8862072 magnetization       8.9772642

 Free energy of the ion-electron system (eV)
  ---------------------------------------------------
  alpha Z        PSCENC =       532.25742704
  Ewald energy   TEWEN  =     -8601.05107233
  -Hartree energ DENC   =     -1658.75208316
  -exchange      EXHF   =         0.00000000
  -V(xc)+E(xc)   XCENC  =      -666.34516024
  PAW double counting   =     12969.69267964   -12136.70475013
  entropy T*S    EENTRO =         0.00461358
  eigenvalues    EBANDS =       859.55660088
  atomic energy  EATOM  =      8465.11600846
  ---------------------------------------------------
  free energy    TOTEN  =      -236.22600837 eV

  energy without entropy =     -236.23062195  energy(sigma->0) =     -236.22754623


--------------------------------------------------------------------------------------------------------




--------------------------------------- Iteration      1(  22)  ---------------------------------------


    POTLOK:  cpu time    0.2498: real time    0.2498
    SETDIJ:  cpu time    0.3221: real time    0.3222
    TRIAL :  cpu time    9.8826: real time   10.7829
    CORREC:  cpu time    3.5940: real time    3.6031
    CHARGE:  cpu time    1.1344: real time    1.1825
    --------------------------------------------
      LOOP:  cpu time   15.1845: real time   16.1425

 eigenvalue-minimisations  :     0
 total energy-change (2. order) :-0.3673403E-01  (-0.1491588E-01)
 number of electron     179.9999996 magnetization      12.6416172
 augmentation part       57.9682092 magnetization       8.9679924

 Free energy of the ion-electron system (eV)
  ---------------------------------------------------
  alpha Z        PSCENC =       532.25742704
  Ewald energy   TEWEN  =     -8601.05107233
  -Hartree energ DENC   =     -1662.85068153
  -exchange      EXHF   =         0.00000000
  -V(xc)+E(xc)   XCENC  =      -666.12253529
  PAW double counting   =     12986.33147520   -12154.13040734
  entropy T*S    EENTRO =         0.00469826
  eigenvalues    EBANDS =       864.18242981
  atomic energy  EATOM  =      8465.11600846
  ---------------------------------------------------
  free energy    TOTEN  =      -236.26274240 eV

  energy without entropy =     -236.26744066  energy(sigma->0) =     -236.26430849


--------------------------------------------------------------------------------------------------------




--------------------------------------- Iteration      1(  23)  ---------------------------------------


    POTLOK:  cpu time    0.2478: real time    0.2478
    SETDIJ:  cpu time    0.3283: real time    0.3283
    TRIAL :  cpu time    9.8365: real time    9.8723
    CORREC:  cpu time    3.6289: real time    3.6752
    CHARGE:  cpu time    1.1343: real time    1.1349
    --------------------------------------------
[...]
  8.438  14.380   0.001   0.000  -0.000   0.002   0.001  -0.001
 14.380  24.506   0.001   0.000  -0.001   0.003   0.001  -0.002
  0.001   0.001   1.996   0.000   0.000   5.749   0.000   0.000
  0.000   0.000   0.000   1.995   0.000   0.000   5.747   0.000
 -0.000  -0.001   0.000   0.000   1.996   0.000   0.000   5.749
  0.002   0.003   5.749   0.000   0.000  16.474   0.000   0.000
  0.001   0.001   0.000   5.747   0.000   0.000  16.469   0.001
 -0.001  -0.002   0.000   0.000   5.749   0.000   0.001  16.474
 total augmentation occupancy for first ion, spin component:           1
  4.380  -1.252   0.002   0.000  -0.003   0.001  -0.000  -0.000
 -1.252   0.377  -0.005  -0.000   0.004   0.000  -0.000  -0.000
  0.002  -0.005   1.417  -0.009  -0.006  -0.101   0.000   0.000
  0.000  -0.000  -0.009   1.505  -0.000   0.000  -0.102  -0.000
 -0.003   0.004  -0.006  -0.000   1.420   0.000  -0.000  -0.101
  0.001   0.000  -0.101   0.000   0.000   0.008  -0.000  -0.000
 -0.000  -0.000   0.000  -0.102  -0.000  -0.000   0.007   0.000
 -0.000  -0.000   0.000  -0.000  -0.101  -0.000   0.000   0.008
 total augmentation occupancy for first ion, spin component:           2
 -0.006   0.001  -0.002  -0.055  -0.003   0.000   0.002  -0.000
  0.001  -0.001  -0.000  -0.008  -0.002   0.000   0.001   0.000
 -0.002  -0.000  -0.006   0.048   0.002   0.000  -0.001  -0.000
 -0.055  -0.008   0.048   0.002  -0.047  -0.001  -0.000   0.001
 -0.003  -0.002   0.002  -0.047  -0.002  -0.000   0.001  -0.000
  0.000   0.000   0.000  -0.001  -0.000  -0.000  -0.000   0.000
  0.002   0.001  -0.001  -0.000   0.001  -0.000  -0.000   0.000
 -0.000   0.000  -0.000   0.001  -0.000   0.000   0.000   0.000


------------------------ aborting loop because EDIFF is reached ----------------------------------------


 


 total charge     
 
# of ion       s       p       d       tot
------------------------------------------
    1        0.405   0.429   0.000   0.835
    2        0.405   0.429   0.000   0.834
    3        0.405   0.430   0.000   0.835
    4        0.405   0.430   0.000   0.835
    5        0.405   0.428   0.000   0.833
    6        0.405   0.428   0.000   0.833
    7        0.404   0.427   0.000   0.831
    8        0.404   0.427   0.000   0.831
    9        0.405   0.425   0.000   0.830
   10        0.405   0.425   0.000   0.830
   11        0.405   0.426   0.000   0.831
   12        0.405   0.426   0.000   0.831
   13        0.406   0.428   0.000   0.834
   14        0.406   0.427   0.000   0.833
   15        0.405   0.426   0.000   0.831
   16        0.405   0.427   0.000   0.832
   17        0.405   0.428   0.000   0.832
   18        0.405   0.428   0.000   0.832
   19        0.333   0.358   5.120   5.811
   20        0.332   0.355   5.135   5.823
   21        0.334   0.348   5.144   5.826
   22        0.334   0.358   5.126   5.818
   23        0.330   0.356   5.134   5.820
   24        0.336   0.352   5.128   5.816
   25        0.336   0.353   5.129   5.818
   26        0.332   0.352   5.139   5.824
   27        0.334   0.353   5.139   5.826
   28        0.332   0.351   5.146   5.828
   29        0.332   0.348   5.148   5.828
   30        0.333   0.356   5.137   5.826
   31        0.333   0.354   5.136   5.822
   32        0.330   0.356   5.138   5.824
   33        0.338   0.354   5.120   5.812
   34        0.338   0.358   5.112   5.809
   35        0.330   0.357   5.139   5.825
   36        0.335   0.356   5.120   5.811
--------------------------------------------------
tot         13.292  14.067  92.391 119.749
 


 magnetization (x)
 
# of ion       s       p       d       tot
------------------------------------------
    1       -0.001  -0.001   0.000  -0.002
    2       -0.001  -0.001   0.000  -0.002
    3       -0.001   0.000   0.000  -0.001
    4       -0.001   0.001   0.000  -0.000
    5       -0.001  -0.001   0.000  -0.002
    6       -0.001   0.000   0.000  -0.001
    7       -0.011  -0.019   0.000  -0.030
    8       -0.012  -0.019   0.000  -0.031
    9       -0.014  -0.026   0.000  -0.040
   10       -0.014  -0.026   0.000  -0.039
   11       -0.014  -0.027   0.000  -0.040
   12       -0.013  -0.026   0.000  -0.040
   13       -0.008  -0.017   0.000  -0.025
   14       -0.008  -0.017   0.000  -0.026
   15       -0.006  -0.010   0.000  -0.016
   16       -0.006  -0.010   0.000  -0.016
   17       -0.006  -0.011   0.000  -0.017
   18       -0.006  -0.011   0.000  -0.016
   19        0.014   0.028   2.356   2.399
   20       -0.026  -0.028  -2.231  -2.285
   21        0.027   0.007   2.357   2.390
   22        0.036   0.030   2.297   2.363
   23        0.006   0.010   2.190   2.206
   24       -0.023  -0.011  -2.482  -2.516
   25        0.021   0.024   2.394   2.439
   26        0.016   0.009   2.294   2.319
   27        0.020   0.022   2.235   2.277
   28        0.015   0.008   2.212   2.234
   29        0.013   0.003   2.278   2.294
   30        0.021   0.029   2.085   2.135
   31       -0.015  -0.030  -2.199  -2.244
   32        0.029   0.035   2.186   2.250
   33       -0.030  -0.012  -2.576  -2.618
   34       -0.034  -0.026  -2.536  -2.596
   35        0.024   0.031   2.094   2.148
   36       -0.016  -0.026  -2.443  -2.484
--------------------------------------------------
tot         -0.026  -0.118  12.512  12.368
 
    FORLOC:  cpu time    0.0284: real time    0.0284
    FORNL :  cpu time   13.7417: real time   13.8405
    STRESS:  cpu time   18.6519: real time   18.7767
    FORCOR:  cpu time    0.2714: real time    0.2714
    OFIELD:  cpu time    0.0017: real time    0.0017

  FORCE on cell =-STRESS in cart. coord.  units (eV):
  Direction    XX          YY          ZZ          XY          YZ          ZX
  --------------------------------------------------------------------------------------
  Alpha Z   532.25743   532.25743   532.25743
  Ewald   -2702.40749 -2702.40749 -3196.26924    -0.00000    -0.00000    -0.00000
  Hartree   720.68110   722.24453   224.20139    -0.04885    -0.00000    -0.00000
  E(xc)    -760.09868  -760.52031  -760.05729     0.01304     0.00000    -0.00000
  Local     250.90211   245.68124  1264.87830     0.19262    -0.00000    -0.00000
  n-local  -110.58101  -111.68099  -120.41903    -0.25604    -0.39749    -0.01735
  augment   520.58941   522.35493   514.00802     0.01348     0.00001     0.00001
  Kinetic  1554.71969  1557.97715  1541.29938    -0.00450     1.35987    -0.16107
  Fock        0.00000     0.00000     0.00000     0.00000     0.00000     0.00000
  -------------------------------------------------------------------------------------
  Total       6.06255     5.90648    -0.10104    -0.09025     0.00000     0.00000
  in kB      20.52357    19.99523    -0.34204    -0.30552     0.00000     0.00000
  external pressure =       13.39 kB  Pullay stress =        0.00 kB


 VOLUME and BASIS-vectors are now :
 -----------------------------------------------------------------------------
  energy-cutoff  :      404.80
  volume of cell :      473.27
      direct lattice vectors                 reciprocal lattice vectors
     8.250148166  0.000000000  0.000000000     0.121209944  0.000000000  0.000000000
     0.000000000  8.250148166  0.000000000     0.000000000  0.121209944  0.000000000
     0.000000000  0.000000000  6.953274261     0.000000000  0.000000000  0.143817137

  length of vectors
     8.250148166  8.250148166  6.953274261     0.121209944  0.121209944  0.143817137


 FORCES acting on ions:
    Electron-Ion                     Ewald-Force                    Non-Local-Force
 -----------------------------------------------------------------------------------------------
   0.240E+00 -.311E+00 0.837E-02   -.239E-08 -.239E-08 0.411E-08   -.578E-01 0.104E+00 -.166E-02
   0.240E+00 -.311E+00 -.837E-02   -.239E-08 -.239E-08 0.411E-08   -.578E-01 0.104E+00 0.166E-02
   0.526E-01 0.140E+00 0.144E+00   -.239E-08 -.802E-09 0.411E-08   -.984E-01 -.276E-01 -.537E-01
   0.526E-01 0.140E+00 -.144E+00   -.239E-08 -.802E-09 0.411E-08   -.984E-01 -.276E-01 0.537E-01
   0.657E-01 0.135E+00 0.637E-01   -.239E-08 0.631E-08 0.411E-08   -.816E-01 -.607E-01 -.211E-01
   0.657E-01 0.135E+00 -.637E-01   -.239E-08 0.631E-08 0.411E-08   -.816E-01 -.607E-01 0.211E-01
   -.677E-01 -.173E-01 -.209E-03   -.802E-09 -.239E-08 0.411E-08   0.954E-01 -.306E-03 0.805E-01
   -.677E-01 -.173E-01 0.209E-03   -.802E-09 -.239E-08 0.411E-08   0.954E-01 -.306E-03 -.805E-01
   0.201E-01 0.283E-01 0.262E-01   -.802E-09 -.802E-09 0.411E-08   0.327E-01 0.546E-01 0.181E-02
   0.201E-01 0.283E-01 -.262E-01   -.802E-09 -.802E-09 0.411E-08   0.327E-01 0.546E-01 -.181E-02
   0.617E-01 -.108E-01 -.897E-02   -.802E-09 0.631E-08 0.411E-08   0.320E-01 -.649E-01 0.718E-01
   0.617E-01 -.108E-01 0.897E-02   -.802E-09 0.631E-08 0.411E-08   0.320E-01 -.649E-01 -.718E-01
   -.155E+00 -.323E-01 -.417E-01   0.631E-08 -.239E-08 0.411E-08   -.757E-02 0.355E-01 0.246E-01
   -.155E+00 -.323E-01 0.417E-01   0.631E-08 -.239E-08 0.411E-08   -.757E-02 0.355E-01 -.246E-01
   -.486E-01 -.497E-01 -.335E-02   0.631E-08 -.802E-09 0.411E-08   0.491E-02 -.583E-02 -.640E-01
   -.486E-01 -.497E-01 0.335E-02   0.631E-08 -.802E-09 0.411E-08   0.491E-02 -.583E-02 0.640E-01
   -.126E+00 0.857E-01 -.121E-01   0.631E-08 0.631E-08 0.411E-08   0.282E-01 -.199E-01 0.119E-01
   -.126E+00 0.857E-01 0.121E-01   0.631E-08 0.631E-08 0.411E-08   0.282E-01 -.199E-01 -.119E-01
   0.475E+00 -.173E+00 -.301E-09   -.169E-07 -.169E-07 -.411E-08   -.248E+00 0.759E-01 0.000E+00
   -.151E-02 -.419E+00 -.270E-08   -.169E-07 -.169E-07 -.411E-08   -.648E-02 0.189E+00 0.000E+00
   0.223E+00 0.731E-01 -.257E-08   -.169E-07 0.802E-09 -.411E-08   -.269E-01 -.306E-01 0.000E+00
   0.577E+00 0.619E-01 -.327E-08   -.169E-07 0.802E-09 -.411E-08   -.278E+00 -.112E+00 0.000E+00
   -.253E+00 0.815E-01 -.231E-08   -.169E-07 0.130E-07 -.411E-08   0.281E+00 -.170E-01 0.000E+00
   -.599E+00 0.415E+00 -.180E-08   -.169E-07 0.130E-07 -.411E-08   0.442E+00 -.320E+00 0.000E+00
   -.440E+00 -.756E-01 -.433E-09   0.802E-09 -.169E-07 -.411E-08   0.166E+00 0.572E-01 0.000E+00
   0.541E+00 0.147E+00 -.241E-08   0.802E-09 -.169E-07 -.411E-08   -.384E+00 -.131E+00 0.000E+00
   -.256E+00 0.899E-01 -.288E-08   0.802E-09 0.802E-09 -.411E-08   0.216E+00 -.813E-01 0.000E+00
   -.360E+00 -.852E-01 -.312E-08   0.802E-09 0.802E-09 -.411E-08   0.305E+00 0.474E-01 0.000E+00
   0.145E+00 -.287E-01 -.247E-08   0.802E-09 0.130E-07 -.411E-08   -.182E+00 0.362E-01 0.000E+00
   -.122E+00 -.197E-01 -.138E-08   0.802E-09 0.130E-07 -.411E-08   0.393E-01 0.509E-01 0.000E+00
   -.135E+00 0.584E+00 0.238E-08   0.130E-07 -.169E-07 -.411E-08   0.155E-01 -.267E+00 0.000E+00
   -.617E+00 0.299E+00 -.525E-08   0.130E-07 -.169E-07 -.411E-08   0.231E+00 -.174E+00 0.000E+00
   0.183E+00 -.505E+00 0.113E-09   0.130E-07 0.802E-09 -.411E-08   -.280E+00 0.233E+00 0.000E+00
   0.269E-01 0.616E+00 -.578E-08   0.130E-07 0.802E-09 -.411E-08   0.679E-01 -.290E+00 0.000E+00
   0.843E-01 -.354E+00 0.388E-09   0.130E-07 0.130E-07 -.411E-08   -.166E-01 0.263E+00 0.000E+00
   0.537E+00 -.633E+00 -.439E-08   0.130E-07 0.130E-07 -.411E-08   -.340E+00 0.430E+00 0.000E+00
 -----------------------------------------------------------------------------------------------
   0.102E+00 0.113E-01 -.749E-07   -.197E-14 0.275E-13 0.265E-14   -.102E+00 -.113E-01 0.000E+00
 
 
 POSITION                                       TOTAL-FORCE (eV/Angst)
 -----------------------------------------------------------------------------------
      0.00000      0.00000      0.00000         0.186892     -0.216209      0.006648
      0.00000      0.00000      3.47664         0.186892     -0.216209     -0.006648
      0.00000      2.75005      0.00000        -0.038145      0.114336      0.094172
      0.00000      2.75005      3.47664        -0.038145      0.114336     -0.094172
      0.00000      5.50010      0.00000        -0.009542      0.080485      0.043986
      0.00000      5.50010      3.47664        -0.009542      0.080485     -0.043986
      2.75005      0.00000      0.00000         0.018450     -0.017281      0.072325
      2.75005      0.00000      3.47664         0.018450     -0.017281     -0.072325
      2.75005      2.75005      0.00000         0.049374      0.077540      0.027189
      2.75005      2.75005      3.47664         0.049374      0.077540     -0.027189
      2.75005      5.50010      0.00000         0.090681     -0.069932      0.055374
      2.75005      5.50010      3.47664         0.090681     -0.069932     -0.055374
      5.50010      0.00000      0.00000        -0.161162      0.000563     -0.019832
      5.50010      0.00000      3.47664        -0.161162      0.000563      0.019832
      5.50010      2.75005      0.00000        -0.043334     -0.055746     -0.062074
      5.50010      2.75005      3.47664        -0.043334     -0.055746      0.062074
      5.50010      5.50010      0.00000        -0.099206      0.068097     -0.002118
      5.50010      5.50010      3.47664        -0.099206      0.068097      0.002118
      1.37502      1.37502      1.73832         0.235091     -0.098391      0.000000
      1.37502      1.37502      5.21496        -0.010784     -0.230922      0.000000
      1.37502      4.12507      1.73832         0.199386      0.040877      0.000000
      1.37502      4.12507      5.21496         0.309403     -0.050056      0.000000
      1.37502      6.87512      1.73832         0.025560      0.067096      0.000000
      1.37502      6.87512      5.21496        -0.169039      0.097874      0.000000
      4.12507      1.37502      1.73832        -0.284570     -0.019213      0.000000
      4.12507      1.37502      5.21496         0.166775      0.019150      0.000000
      4.12507      4.12507      1.73832        -0.041935      0.008768      0.000000
      4.12507      4.12507      5.21496        -0.057008     -0.040066      0.000000
      4.12507      6.87512      1.73832        -0.034017      0.008260      0.000000
      4.12507      6.87512      5.21496        -0.085423      0.030685      0.000000
      6.87512      1.37502      1.73832        -0.122444      0.326311      0.000000
      6.87512      1.37502      5.21496        -0.396351      0.134432      0.000000
      6.87512      4.12507      1.73832        -0.090111     -0.286801      0.000000
      6.87512      4.12507      5.21496         0.098240      0.341248      0.000000
      6.87512      6.87512      1.73832         0.065631     -0.100488      0.000000
      6.87512      6.87512      5.21496         0.203578     -0.212469      0.000000
 -----------------------------------------------------------------------------------
    total drift:                                0.000011      0.000003     -0.000000


--------------------------------------------------------------------------------------------------------



  FREE ENERGIE OF THE ION-ELECTRON SYSTEM (eV)
  ---------------------------------------------------
  free  energy   TOTEN  =      -236.32093475 eV

  energy  without entropy=     -236.32589814  energy(sigma->0) =     -236.32258921
 


--------------------------------------------------------------------------------------------------------


    POTLOK:  cpu time    0.6524: real time    0.6524


--------------------------------------------------------------------------------------------------------


     LOOP+:  cpu time 1111.5147: real time 1134.7336
    4ORBIT:  cpu time    0.0000: real time    0.0000
 


 total charge     
 
# of ion       s       p       d       tot
------------------------------------------
    1        0.405   0.429   0.000   0.835
    2        0.405   0.429   0.000   0.834
    3        0.405   0.430   0.000   0.835
    4        0.405   0.430   0.000   0.835
    5        0.405   0.428   0.000   0.833
    6        0.405   0.428   0.000   0.833
    7        0.404   0.427   0.000   0.831
    8        0.404   0.427   0.000   0.831
    9        0.405   0.425   0.000   0.830
   10        0.405   0.425   0.000   0.830
   11        0.405   0.426   0.000   0.831
   12        0.405   0.426   0.000   0.831
   13        0.406   0.428   0.000   0.834
   14        0.406   0.427   0.000   0.833
   15        0.405   0.426   0.000   0.831
   16        0.405   0.427   0.000   0.832
   17        0.405   0.428   0.000   0.832
   18        0.405   0.428   0.000   0.832
   19        0.333   0.358   5.120   5.811
   20        0.332   0.355   5.135   5.823
   21        0.334   0.348   5.144   5.826
   22        0.334   0.358   5.126   5.818
   23        0.330   0.356   5.134   5.820
   24        0.336   0.352   5.128   5.816
   25        0.336   0.353   5.129   5.818
   26        0.332   0.352   5.139   5.824
   27        0.334   0.353   5.139   5.826
   28        0.332   0.351   5.146   5.828
   29        0.332   0.348   5.148   5.828
   30        0.333   0.356   5.137   5.826
   31        0.333   0.354   5.136   5.822
   32        0.330   0.356   5.138   5.824
   33        0.338   0.354   5.120   5.812
   34        0.338   0.358   5.112   5.809
   35        0.330   0.357   5.139   5.825
   36        0.335   0.356   5.120   5.811
--------------------------------------------------
tot         13.292  14.067  92.391 119.749
 


 magnetization (x)
 
# of ion       s       p       d       tot
------------------------------------------
    1       -0.001  -0.001   0.000  -0.002
    2       -0.001  -0.001   0.000  -0.002
    3       -0.001   0.000   0.000  -0.001
    4       -0.001   0.001   0.000  -0.000
    5       -0.001  -0.001   0.000  -0.002
    6       -0.001   0.000   0.000  -0.001
    7       -0.011  -0.019   0.000  -0.030
    8       -0.012  -0.019   0.000  -0.031
    9       -0.014  -0.026   0.000  -0.040
   10       -0.014  -0.026   0.000  -0.039
   11       -0.014  -0.027   0.000  -0.040
   12       -0.013  -0.026   0.000  -0.040
   13       -0.008  -0.017   0.000  -0.025
   14       -0.008  -0.017   0.000  -0.026
   15       -0.006  -0.010   0.000  -0.016
   16       -0.006  -0.010   0.000  -0.016
   17       -0.006  -0.011   0.000  -0.017
   18       -0.006  -0.011   0.000  -0.016
   19        0.014   0.028   2.356   2.399
   20       -0.026  -0.028  -2.231  -2.285
   21        0.027   0.007   2.357   2.390
   22        0.036   0.030   2.297   2.363
   23        0.006   0.010   2.190   2.206
   24       -0.023  -0.011  -2.482  -2.516
   25        0.021   0.024   2.394   2.439
   26        0.016   0.009   2.294   2.319
   27        0.020   0.022   2.235   2.277
   28        0.015   0.008   2.212   2.234
   29        0.013   0.003   2.278   2.294
   30        0.021   0.029   2.085   2.135
   31       -0.015  -0.030  -2.199  -2.244
   32        0.029   0.035   2.186   2.250
   33       -0.030  -0.012  -2.576  -2.618
   34       -0.034  -0.026  -2.536  -2.596
   35        0.024   0.031   2.094   2.148
   36       -0.016  -0.026  -2.443  -2.484
--------------------------------------------------
tot         -0.026  -0.118  12.512  12.368
 

 total amount of memory used by VASP MPI-rank0   786703. kBytes
=======================================================================

   base      :      30000. kBytes
   nonl-proj :      34307. kBytes
   fftplans  :      21726. kBytes
   grid      :      14732. kBytes
   one-center:        279. kBytes
   wavefun   :     685659. kBytes
 
  
  
 General timing and accounting informations for this job:
 ========================================================
  
                  Total CPU time used (sec):     1139.525
                            User time (sec):     1118.198
                          System time (sec):       21.326
                         Elapsed time (sec):     1165.677
  
                   Maximum memory used (kb):      929668.
                   Average memory used (kb):           0.
  
                          Minor page faults:       500936
                          Major page faults:           20
                 Voluntary context switches:         4768
