   36   36    1    2
  0.1314651E+02  0.8250148E-09  0.8250148E-09  0.6953274E-09  0.2000000E-15
  1.000000000000000E-004
  CAR 
 AlMn_pv                                 
    180     52    104
 
  0.0000000E+00  0.0000000E+00  0.0000000E+00  0.6666667E-02
    1       -2.509101     -2.531113   1.000000   1.000000
    2       -0.377317     -0.360352   1.000000   1.000000
    3       -0.329636     -0.354539   1.000000   1.000000
    4       -0.300463     -0.344902   1.000000   1.000000
    5       -0.291679     -0.337520   1.000000   1.000000
    6       -0.126332     -0.118864   1.000000   1.000000
    7        1.386683      1.329912   1.000000   1.000000
    8        1.407865      1.354965   1.000000   1.000000
    9        1.422483      1.366941   1.000000   1.000000
   10        1.428536      1.381290   1.000000   1.000000
   11        1.438154      1.412043   1.000000   1.000000
   12        1.574739      1.531128   1.000000   1.000000
   13        1.613009      1.544627   1.000000   1.000000
   14        1.613382      1.592522   1.000000   1.000000
   15        1.652712      1.610504   1.000000   1.000000
   16        2.771029      2.692168   1.000000   1.000000
   17        2.808434      2.718166   1.000000   1.000000
   18        2.864584      2.754934   1.000000   1.000000
   19        2.902313      2.779176   1.000000   1.000000
   20        3.485416      3.461864   1.000000   1.000000
   21        3.588093      3.493450   1.000000   1.000000
   22        3.641160      3.526661   1.000000   1.000000
   23        3.656628      3.564525   1.000000   1.000000
   24        4.184049      4.031597   1.000000   1.000000
   25        4.293531      4.147041   1.000000   1.000000
   26        4.387617      4.256120   1.000000   1.000000
   27        4.545152      4.371956   1.000000   1.000000
   28        4.622366      4.503637   1.000000   1.000000
   29        4.670305      4.534541   1.000000   1.000000
   30        4.714952      4.558730   1.000000   1.000000
   31        4.758649      4.602967   1.000000   1.000000
   32        4.795398      4.621807   1.000000   1.000000
   33        4.795833      4.623321   1.000000   1.000000
   34        4.923355      4.646234   1.000000   1.000000
   35        4.955013      4.734983   1.000000   1.000000
   36        5.000701      4.795616   1.000000   1.000000
   37        5.066325      4.814190   1.000000   1.000000
   38        5.127649      4.873633   1.000000   1.000000
   39        5.280619      4.922200   1.000000   1.000000
   40        5.293267      5.025131   1.000000   1.000000
   41        5.324378      5.199661   1.000000   1.000000
   42        5.400003      5.221832   1.000000   1.000000
   43        5.450734      5.263825   1.000000   1.000000
   44        5.504431      5.318369   1.000000   1.000000
   45        5.557063      5.339301   1.000000   1.000000
   46        5.585593      5.380316   1.000000   1.000000
   47        5.632124      5.399019   1.000000   1.000000
   48        5.679825      5.415516   1.000000   1.000000
   49        5.699764      5.450533   1.000000   1.000000
   50        5.740072      5.451369   1.000000   1.000000
   51        5.813152      5.477253   1.000000   1.000000
   52        5.883073      5.553319   1.000000   1.000000
   53        5.955135      5.664440   1.000000   1.000000
   54        5.965826      5.707281   1.000000   1.000000
   55        6.146643      5.750820   1.000000   1.000000
   56        6.236563      5.764595   1.000000   1.000000
   57        6.261959      5.839313   1.000000   1.000000
   58        6.262777      5.844465   1.000000   1.000000
   59        6.386118      5.876316   1.000000   1.000000
   60        6.388343      5.914549   1.000000   1.000000
   61        6.455148      6.069303   1.000000   1.000000
   62        6.524075      6.124622   1.000000   1.000000
   63        6.539801      6.255991   1.000000   1.000000
   64        6.554249      6.309496   1.000000   1.000000
   65        6.576969      6.345557   1.000000   1.000000
   66        6.616227      6.346025   1.000000   1.000000
   67        6.626945      6.371873   1.000000   1.000000
   68        6.655695      6.374757   1.000000   1.000000
   69        6.682287      6.386732   1.000000   1.000000
   70        6.734906      6.408473   1.000000   1.000000
   71        6.750619      6.462772   1.000000   1.000000
   72        6.805670      6.493531   1.000000   1.000000
   73        6.923095      6.546611   1.000000   1.000000
   74        6.989691      6.548490   1.000000   1.000000
   75        7.043414      6.653823   1.000003   1.000000
   76        7.174744      6.659314   1.000167   1.000000
   77        7.318790      6.692723   1.004405   1.000000
   78        7.322556      6.736828   1.004728   1.000000
   79        7.337871      6.737157   1.006198   1.000000
   80        7.500870      6.760751   1.035246   1.000000
   81        7.536848      6.891438   1.031679   1.000000
   82        7.589426      6.925572   0.994903   1.000000
   83        7.636225      7.016965   0.913120   1.000001
   84        7.712081      7.052388   0.670425   1.000004
   85        7.785578      7.091232   0.365429   1.000015
   86        7.828029      7.099718   0.206771   1.000019
   87        7.926615      7.273135  -0.005224   1.001792
   88        8.009500      7.352893  -0.035052   1.007970
   89        8.059121      7.365908  -0.026272   1.009787
   90        8.135835      7.408130  -0.010510   1.017551
   91        8.157975      7.448446  -0.007378   1.026548
   92        8.189165      7.522074  -0.004291   1.034624
   93        8.252846      7.524128  -0.001161   1.034371
   94        8.313746      7.556077  -0.000271   1.023462
   95        8.387374      7.790932  -0.000035   0.345072
   96        8.392286      7.851130  -0.000030   0.136536
   97        8.487240      7.942863  -0.000001  -0.018856
   98        8.511218      8.022903  -0.000001  -0.033428
   99        8.608990      8.053289  -0.000000  -0.027443
  100        8.646235      8.078689  -0.000000  -0.021749
  101        8.743488      8.115643  -0.000000  -0.013895
  102        8.800261      8.177655  -0.000000  -0.005277
  103        8.851850      8.224585  -0.000000  -0.002136
  104        8.932885      8.644330  -0.000000  -0.000000
 
  0.2000000E+00  0.0000000E+00  0.0000000E+00  0.1333333E-01
    1       -2.418603     -2.440563   1.000000   1.000000
    2       -1.092553     -1.114676   1.000000   1.000000
    3       -0.267863     -0.276468   1.000000   1.000000
    4       -0.215842     -0.257179   1.000000   1.000000
    5       -0.059676     -0.053832   1.000000   1.000000
    6        0.581284      0.552326   1.000000   1.000000
    7        0.895837      0.872215   1.000000   1.000000
    8        0.933011      0.914013   1.000000   1.000000
    9        0.968053      0.920108   1.000000   1.000000
   10        1.451173      1.403890   1.000000   1.000000
   11        1.495859      1.452244   1.000000   1.000000
   12        1.526668      1.471689   1.000000   1.000000
   13        1.967812      1.881649   1.000000   1.000000
   14        2.336815      2.264182   1.000000   1.000000
   15        2.355328      2.275538   1.000000   1.000000
   16        2.361328      2.306604   1.000000   1.000000
   17        2.380195      2.316201   1.000000   1.000000
   18        2.865323      2.794448   1.000000   1.000000
   19        3.290015      3.156306   1.000000   1.000000
   20        3.363846      3.208103   1.000000   1.000000
   21        3.611261      3.539479   1.000000   1.000000
   22        3.708015      3.617118   1.000000   1.000000
   23        3.778609      3.711061   1.000000   1.000000
   24        4.158435      4.016428   1.000000   1.000000
   25        4.250966      4.110355   1.000000   1.000000
   26        4.322762      4.204682   1.000000   1.000000
   27        4.368202      4.267001   1.000000   1.000000
   28        4.581326      4.330736   1.000000   1.000000
   29        4.619343      4.463372   1.000000   1.000000
   30        4.686454      4.476963   1.000000   1.000000
   31        4.687448      4.525139   1.000000   1.000000
   32        4.745476      4.547270   1.000000   1.000000
   33        4.799955      4.620360   1.000000   1.000000
   34        4.824550      4.652919   1.000000   1.000000
   35        4.998948      4.763285   1.000000   1.000000
   36        5.023334      4.826629   1.000000   1.000000
   37        5.124098      4.900310   1.000000   1.000000
   38        5.135098      4.929174   1.000000   1.000000
   39        5.189866      4.959492   1.000000   1.000000
   40        5.230816      4.997377   1.000000   1.000000
   41        5.262748      5.045795   1.000000   1.000000
   42        5.306397      5.219307   1.000000   1.000000
   43        5.366286      5.221923   1.000000   1.000000
   44        5.461569      5.273606   1.000000   1.000000
   45        5.578814      5.347816   1.000000   1.000000
   46        5.593727      5.364808   1.000000   1.000000
   47        5.632390      5.370229   1.000000   1.000000
   48        5.675405      5.387049   1.000000   1.000000
   49        5.731710      5.491223   1.000000   1.000000
   50        5.823564      5.508032   1.000000   1.000000
   51        5.869454      5.536789   1.000000   1.000000
   52        5.888615      5.630553   1.000000   1.000000
   53        5.941781      5.642594   1.000000   1.000000
   54        5.949192      5.702262   1.000000   1.000000
   55        6.139935      5.796040   1.000000   1.000000
   56        6.254665      5.831714   1.000000   1.000000
   57        6.281627      5.837408   1.000000   1.000000
   58        6.306520      5.897815   1.000000   1.000000
   59        6.321121      5.936540   1.000000   1.000000
   60        6.405100      5.976775   1.000000   1.000000
   61        6.408775      6.084844   1.000000   1.000000
   62        6.455658      6.104543   1.000000   1.000000
   63        6.502141      6.213247   1.000000   1.000000
   64        6.563062      6.255630   1.000000   1.000000
   65        6.566692      6.271135   1.000000   1.000000
   66        6.622118      6.308967   1.000000   1.000000
   67        6.638476      6.327055   1.000000   1.000000
   68        6.682237      6.362223   1.000000   1.000000
   69        6.689484      6.381108   1.000000   1.000000
   70        6.781292      6.390651   1.000000   1.000000
   71        6.791323      6.451053   1.000000   1.000000
   72        6.830803      6.482209   1.000000   1.000000
   73        6.930577      6.490899   1.000000   1.000000
   74        6.984385      6.502335   1.000000   1.000000
   75        7.032968      6.633431   1.000002   1.000000
   76        7.251028      6.660615   1.001099   1.000000
   77        7.266329      6.670317   1.001543   1.000000
   78        7.292161      6.695923   1.002644   1.000000
   79        7.406672      6.770693   1.017131   1.000000
   80        7.417988      6.784707   1.019594   1.000000
   81        7.515216      6.811371   1.035273   1.000000
   82        7.571309      6.853601   1.013015   1.000000
   83        7.621351      6.929161   0.944945   1.000000
   84        7.705193      6.978329   0.697034   1.000000
   85        7.789153      7.062574   0.351077   1.000006
   86        7.812478      7.068315   0.261047   1.000007
   87        7.908129      7.177563   0.017470   1.000182
   88        7.951508      7.324505  -0.024164   1.004900
   89        8.071291      7.369849  -0.023501   1.010349
   90        8.151771      7.413647  -0.008204   1.018710
   91        8.166299      7.460608  -0.006438   1.029328
   92        8.192501      7.542790  -0.004019   1.029681
   93        8.224333      7.548034  -0.002155   1.027567
   94        8.256178      7.688203  -0.001082   0.759654
   95        8.359769      7.799750  -0.000078   0.310979
   96        8.407363      7.942991  -0.000019  -0.019129
   97        8.421021      8.000420  -0.000013  -0.035437
   98        8.489594      8.042573  -0.000001  -0.029811
   99        8.588353      8.048863  -0.000000  -0.028529
  100        8.650490      8.102536  -0.000000  -0.016522
  101        8.702981      8.118670  -0.000000  -0.013318
  102        8.744075      8.195215  -0.000000  -0.003811
  103        8.817129      8.357075  -0.000000  -0.000083
  104        8.965404      8.395539  -0.000000  -0.000026
 
  0.4000000E+00  0.0000000E+00  0.0000000E+00  0.1333333E-01
    1       -2.148865     -2.170596   1.000000   1.000000
    2       -1.703375     -1.725608   1.000000   1.000000
    3       -0.020710     -0.030199   1.000000   1.000000
    4        0.027502     -0.013957   1.000000   1.000000
    5        0.138152      0.138488   1.000000   1.000000
    6        0.385166      0.371872   1.000000   1.000000
    7        0.431113      0.385484   1.000000   1.000000
    8        0.461379      0.454063   1.000000   1.000000
    9        1.598624      1.562860   1.000000   1.000000
   10        1.639936      1.586624   1.000000   1.000000
   11        1.677322      1.648701   1.000000   1.000000
   12        1.807183      1.732997   1.000000   1.000000
   13        1.948724      1.885631   1.000000   1.000000
   14        1.986869      1.945431   1.000000   1.000000
   15        2.261394      2.187702   1.000000   1.000000
   16        2.407170      2.266680   1.000000   1.000000
   17        2.698046      2.661120   1.000000   1.000000
   18        2.963666      2.868693   1.000000   1.000000
   19        3.097976      2.988561   1.000000   1.000000
   20        3.643220      3.455853   1.000000   1.000000
   21        3.807785      3.616075   1.000000   1.000000
   22        3.848477      3.728207   1.000000   1.000000
   23        3.860743      3.764880   1.000000   1.000000
   24        4.054075      3.950757   1.000000   1.000000
   25        4.098175      3.977565   1.000000   1.000000
   26        4.181684      4.068501   1.000000   1.000000
   27        4.240484      4.123003   1.000000   1.000000
   28        4.373609      4.162888   1.000000   1.000000
   29        4.398938      4.239219   1.000000   1.000000
   30        4.555629      4.376559   1.000000   1.000000
   31        4.588206      4.442598   1.000000   1.000000
   32        4.659814      4.531295   1.000000   1.000000
   33        4.735121      4.627551   1.000000   1.000000
   34        4.832788      4.676723   1.000000   1.000000
   35        4.945112      4.755562   1.000000   1.000000
   36        5.075221      4.792401   1.000000   1.000000
   37        5.104985      4.932587   1.000000   1.000000
   38        5.160854      4.992690   1.000000   1.000000
   39        5.172581      4.993951   1.000000   1.000000
   40        5.235705      5.063124   1.000000   1.000000
   41        5.268814      5.084687   1.000000   1.000000
   42        5.301612      5.099443   1.000000   1.000000
   43        5.399158      5.251913   1.000000   1.000000
   44        5.519621      5.264434   1.000000   1.000000
   45        5.567424      5.346349   1.000000   1.000000
   46        5.603883      5.366804   1.000000   1.000000
   47        5.636597      5.371867   1.000000   1.000000
   48        5.653226      5.435359   1.000000   1.000000
   49        5.713762      5.474413   1.000000   1.000000
   50        5.793052      5.524125   1.000000   1.000000
   51        5.828675      5.593844   1.000000   1.000000
   52        5.906720      5.627026   1.000000   1.000000
   53        5.968604      5.642294   1.000000   1.000000
   54        5.975006      5.704046   1.000000   1.000000
   55        6.143231      5.761446   1.000000   1.000000
   56        6.161888      5.836309   1.000000   1.000000
   57        6.192530      5.911777   1.000000   1.000000
   58        6.257043      5.958111   1.000000   1.000000
   59        6.282142      5.965081   1.000000   1.000000
   60        6.331256      6.028121   1.000000   1.000000
   61        6.369034      6.100916   1.000000   1.000000
   62        6.422731      6.130383   1.000000   1.000000
   63        6.462518      6.188285   1.000000   1.000000
   64        6.539427      6.190461   1.000000   1.000000
   65        6.580733      6.225369   1.000000   1.000000
   66        6.629199      6.238613   1.000000   1.000000
   67        6.642593      6.247240   1.000000   1.000000
   68        6.713886      6.308852   1.000000   1.000000
   69        6.771559      6.342200   1.000000   1.000000
   70        6.776771      6.356209   1.000000   1.000000
   71        6.825754      6.386777   1.000000   1.000000
   72        6.946405      6.448768   1.000000   1.000000
   73        6.989208      6.450771   1.000000   1.000000
   74        7.033357      6.486227   1.000002   1.000000
   75        7.100858      6.556997   1.000020   1.000000
   76        7.139490      6.624444   1.000063   1.000000
   77        7.255587      6.635247   1.001218   1.000000
   78        7.311152      6.693927   1.003827   1.000000
   79        7.412133      6.734934   1.018311   1.000000
   80        7.497976      6.774322   1.035072   1.000000
   81        7.546762      6.791814   1.028217   1.000000
   82        7.552665      6.832657   1.025489   1.000000
   83        7.639590      6.910677   0.905120   1.000000
   84        7.668619      6.929905   0.825034   1.000000
   85        7.719545      6.990555   0.640147   1.000000
   86        7.769700      7.000693   0.430521   1.000001
   87        7.868255      7.241917   0.091827   1.000891
   88        8.012377      7.262636  -0.034770   1.001422
   89        8.013199      7.277489  -0.034687   1.001956
   90        8.072391      7.374220  -0.023259   1.011114
   91        8.111811      7.480525  -0.014701   1.033065
   92        8.204836      7.558561  -0.003190   1.022042
   93        8.243838      7.562664  -0.001429   1.019414
   94        8.250530      7.824170  -0.001225   0.221638
   95        8.297875      7.832843  -0.000403   0.191411
   96        8.315139      7.948375  -0.000260  -0.022620
   97        8.377602      7.982464  -0.000046  -0.034475
   98        8.413123      7.992822  -0.000016  -0.035351
   99        8.520689      8.059102  -0.000000  -0.026316
  100        8.660988      8.144137  -0.000000  -0.008844
  101        8.682770      8.189175  -0.000000  -0.004238
  102        8.738530      8.214295  -0.000000  -0.002479
  103        8.761323      8.289992  -0.000000  -0.000485
  104        8.965879      8.303893  -0.000000  -0.000322
 
  0.0000000E+00  0.2000000E+00  0.0000000E+00  0.1333333E-01
    1       -2.418620     -2.440593   1.000000   1.000000
    2       -1.092755     -1.114727   1.000000   1.000000
    3       -0.249971     -0.271944   1.000000   1.000000
    4       -0.233919     -0.261457   1.000000   1.000000
    5       -0.059928     -0.053647   1.000000   1.000000
    6        0.581001      0.552142   1.000000   1.000000
    7        0.891572      0.874696   1.000000   1.000000
    8        0.945608      0.914617   1.000000   1.000000
    9        0.955979      0.919353   1.000000   1.000000
   10        1.473671      1.424344   1.000000   1.000000
   11        1.486374      1.437869   1.000000   1.000000
   12        1.526160      1.451989   1.000000   1.000000
   13        1.958250      1.894486   1.000000   1.000000
   14        2.343892      2.279839   1.000000   1.000000
   15        2.354427      2.288037   1.000000   1.000000
   16        2.367249      2.292161   1.000000   1.000000
   17        2.376313      2.298006   1.000000   1.000000
   18        2.867963      2.795652   1.000000   1.000000
   19        3.305897      3.180595   1.000000   1.000000
   20        3.327428      3.195433   1.000000   1.000000
   21        3.644792      3.557185   1.000000   1.000000
   22        3.669843      3.592278   1.000000   1.000000
   23        3.771874      3.709361   1.000000   1.000000
   24        4.153620      4.012412   1.000000   1.000000
   25        4.238203      4.106714   1.000000   1.000000
   26        4.355255      4.217817   1.000000   1.000000
   27        4.374951      4.269807   1.000000   1.000000
   28        4.580157      4.333682   1.000000   1.000000
   29        4.620262      4.479381   1.000000   1.000000
   30        4.683154      4.482159   1.000000   1.000000
   31        4.703106      4.495101   1.000000   1.000000
   32        4.738228      4.529456   1.000000   1.000000
   33        4.752361      4.623399   1.000000   1.000000
   34        4.836706      4.654260   1.000000   1.000000
   35        4.936918      4.746599   1.000000   1.000000
   36        4.996109      4.826074   1.000000   1.000000
   37        5.158840      4.925300   1.000000   1.000000
   38        5.177464      4.925505   1.000000   1.000000
   39        5.179683      4.976323   1.000000   1.000000
   40        5.211769      4.981820   1.000000   1.000000
   41        5.303870      5.048861   1.000000   1.000000
   42        5.364210      5.218857   1.000000   1.000000
   43        5.451839      5.223202   1.000000   1.000000
   44        5.482568      5.273254   1.000000   1.000000
   45        5.549610      5.295140   1.000000   1.000000
   46        5.560696      5.373305   1.000000   1.000000
   47        5.646129      5.434250   1.000000   1.000000
   48        5.671036      5.439443   1.000000   1.000000
   49        5.736052      5.479438   1.000000   1.000000
   50        5.806169      5.505777   1.000000   1.000000
   51        5.842993      5.551562   1.000000   1.000000
   52        5.904751      5.620822   1.000000   1.000000
   53        5.921843      5.660088   1.000000   1.000000
   54        5.968531      5.698804   1.000000   1.000000
   55        6.155732      5.759535   1.000000   1.000000
   56        6.236919      5.766402   1.000000   1.000000
   57        6.266362      5.818696   1.000000   1.000000
   58        6.285753      5.873624   1.000000   1.000000
   59        6.358771      5.875552   1.000000   1.000000
   60        6.389412      5.944684   1.000000   1.000000
   61        6.414423      6.072558   1.000000   1.000000
   62        6.477530      6.145357   1.000000   1.000000
   63        6.511154      6.195731   1.000000   1.000000
   64        6.514853      6.285127   1.000000   1.000000
   65        6.559825      6.311818   1.000000   1.000000
   66        6.619413      6.336419   1.000000   1.000000
   67        6.653541      6.355962   1.000000   1.000000
   68        6.681010      6.367764   1.000000   1.000000
   69        6.699754      6.386037   1.000000   1.000000
   70        6.769899      6.386946   1.000000   1.000000
   71        6.803630      6.444594   1.000000   1.000000
   72        6.836326      6.492694   1.000000   1.000000
   73        6.926734      6.519323   1.000000   1.000000
   74        6.935688      6.583006   1.000000   1.000000
   75        7.032505      6.590106   1.000002   1.000000
   76        7.125733      6.674909   1.000042   1.000000
   77        7.307129      6.678470   1.003543   1.000000
   78        7.377736      6.725398   1.011628   1.000000
   79        7.379384      6.743569   1.011932   1.000000
   80        7.412754      6.744028   1.018403   1.000000
   81        7.480798      6.843040   1.033031   1.000000
   82        7.503313      6.869661   1.035370   1.000000
   83        7.656509      6.903298   0.860879   1.000000
   84        7.687380      6.963854   0.762955   1.000000
   85        7.787943      7.052463   0.355860   1.000004
   86        7.857467      7.097247   0.118610   1.000018
   87        7.940197      7.187542  -0.016883   1.000236
   88        8.016245      7.306658  -0.034416   1.003527
   89        8.054387      7.421384  -0.027366   1.020446
   90        8.120684      7.429156  -0.013014   1.022145
   91        8.204767      7.520734  -0.003203   1.034797
   92        8.218168      7.526192  -0.002451   1.034050
   93        8.243816      7.561167  -0.001422   1.020334
   94        8.258176      7.703819  -0.001033   0.701400
   95        8.323140      7.779586  -0.000212   0.391314
   96        8.382362      7.836056  -0.000040   0.181189
   97        8.465147      7.868342  -0.000003   0.090855
   98        8.503454      7.969973  -0.000001  -0.031825
   99        8.533250      8.050396  -0.000000  -0.028247
  100        8.577166      8.063333  -0.000000  -0.025338
  101        8.713500      8.102982  -0.000000  -0.016532
  102        8.731411      8.156698  -0.000000  -0.007551
  103        8.779751      8.254516  -0.000000  -0.001507
  104        8.926048      8.435430  -0.000000  -0.000008
 
  0.2000000E+00  0.2000000E+00  0.0000000E+00  0.1333333E-01
    1       -2.328403     -2.350314   1.000000   1.000000
    2       -1.021145     -1.031209   1.000000   1.000000
    3       -0.991443     -1.026836   1.000000   1.000000
    4        0.006619      0.011246   1.000000   1.000000
    5        0.241319      0.212351   1.000000   1.000000
    6        0.646780      0.629723   1.000000   1.000000
    7        0.674271      0.634645   1.000000   1.000000
    8        0.954343      0.925327   1.000000   1.000000
    9        0.962166      0.948507   1.000000   1.000000
   10        1.617512      1.544905   1.000000   1.000000
   11        1.768246      1.700891   1.000000   1.000000
   12        1.772295      1.751333   1.000000   1.000000
   13        1.868923      1.823220   1.000000   1.000000
   14        2.021200      1.944130   1.000000   1.000000
   15        2.039642      1.957798   1.000000   1.000000
   16        2.865604      2.761619   1.000000   1.000000
   17        2.913084      2.795076   1.000000   1.000000
   18        2.915541      2.825677   1.000000   1.000000
   19        2.929240      2.869251   1.000000   1.000000
   20        2.984819      2.878895   1.000000   1.000000
   21        3.745638      3.578236   1.000000   1.000000
   22        3.812945      3.742487   1.000000   1.000000
   23        3.831509      3.757834   1.000000   1.000000
   24        3.908131      3.809999   1.000000   1.000000
   25        4.229513      4.109322   1.000000   1.000000
   26        4.388577      4.142970   1.000000   1.000000
   27        4.410090      4.309120   1.000000   1.000000
   28        4.436610      4.318262   1.000000   1.000000
   29        4.467088      4.355776   1.000000   1.000000
   30        4.585263      4.369327   1.000000   1.000000
   31        4.590442      4.436823   1.000000   1.000000
   32        4.792105      4.497812   1.000000   1.000000
   33        4.803295      4.557244   1.000000   1.000000
   34        4.825738      4.684049   1.000000   1.000000
   35        4.855697      4.701857   1.000000   1.000000
   36        4.978444      4.782654   1.000000   1.000000
   37        5.051956      4.850586   1.000000   1.000000
   38        5.052065      4.862946   1.000000   1.000000
   39        5.186188      5.030566   1.000000   1.000000
   40        5.226730      5.083109   1.000000   1.000000
   41        5.353107      5.175429   1.000000   1.000000
   42        5.370853      5.182575   1.000000   1.000000
   43        5.453049      5.237291   1.000000   1.000000
   44        5.506119      5.279241   1.000000   1.000000
   45        5.559964      5.319867   1.000000   1.000000
   46        5.567977      5.320800   1.000000   1.000000
   47        5.628580      5.405774   1.000000   1.000000
   48        5.733556      5.496066   1.000000   1.000000
   49        5.820566      5.505197   1.000000   1.000000
   50        5.839011      5.573018   1.000000   1.000000
   51        5.862551      5.597207   1.000000   1.000000
   52        5.889527      5.634969   1.000000   1.000000
   53        5.934975      5.666353   1.000000   1.000000
   54        5.940823      5.705282   1.000000   1.000000
   55        6.172362      5.709429   1.000000   1.000000
   56        6.242593      5.802142   1.000000   1.000000
   57        6.276638      5.839512   1.000000   1.000000
   58        6.278688      5.924690   1.000000   1.000000
   59        6.355150      5.951776   1.000000   1.000000
   60        6.419287      5.980138   1.000000   1.000000
   61        6.423343      6.046419   1.000000   1.000000
   62        6.476071      6.150540   1.000000   1.000000
   63        6.513517      6.186189   1.000000   1.000000
   64        6.577976      6.251457   1.000000   1.000000
   65        6.578470      6.266481   1.000000   1.000000
   66        6.608291      6.280103   1.000000   1.000000
   67        6.628402      6.318934   1.000000   1.000000
   68        6.671887      6.345597   1.000000   1.000000
   69        6.769604      6.360364   1.000000   1.000000
   70        6.778829      6.388019   1.000000   1.000000
   71        6.798542      6.451334   1.000000   1.000000
   72        6.866601      6.468969   1.000000   1.000000
   73        6.913525      6.553334   1.000000   1.000000
   74        6.982771      6.558429   1.000000   1.000000
   75        6.992528      6.633452   1.000001   1.000000
   76        7.139480      6.662921   1.000063   1.000000
   77        7.239827      6.670349   1.000855   1.000000
   78        7.293967      6.693612   1.002741   1.000000
   79        7.299970      6.726798   1.003085   1.000000
   80        7.418892      6.758082   1.019804   1.000000
   81        7.516122      6.809456   1.035215   1.000000
   82        7.536199      6.841573   1.031843   1.000000
   83        7.576828      6.878485   1.008225   1.000000
   84        7.685510      6.962270   0.769561   1.000000
   85        7.719511      7.001829   0.640644   1.000001
   86        7.797544      7.048780   0.318224   1.000004
   87        7.891298      7.109127   0.044158   1.000026
   88        7.965389      7.265984  -0.030308   1.001537
   89        8.034943      7.318947  -0.031457   1.004422
   90        8.052266      7.444323  -0.027894   1.025773
   91        8.179184      7.475673  -0.005139   1.032192
   92        8.196987      7.490230  -0.003703   1.034356