       N       E                     dE             d eps       ncg     rms          ort
DAV:   1     0.136987100320E+04    0.13699E+04   -0.57694E+04  5408   0.151E+03
DAV:   2    -0.355238654623E+02   -0.14054E+04   -0.13857E+04  5408   0.470E+02
DAV:   3    -0.231855084009E+03   -0.19633E+03   -0.18264E+03  5408   0.187E+02
DAV:   4    -0.264659438977E+03   -0.32804E+02   -0.30201E+02  5408   0.808E+01
DAV:   5    -0.268928089403E+03   -0.42687E+01   -0.40470E+01  5408   0.236E+01
DAV:   6    -0.269498971388E+03   -0.57088E+00   -0.54542E+00  5408   0.671E+00
DAV:   7    -0.269607747313E+03   -0.10878E+00   -0.10453E+00  5408   0.234E+00
DAV:   8    -0.269632552433E+03   -0.24805E-01   -0.23951E-01  5408   0.796E-01
SDA:   9    -0.614095139800E+02    0.20822E+03   -0.23951E-01  5408   0.236E+04 0.000E+00
CGA:  10    -0.206089892312E+03   -0.14468E+03   -0.14504E+03  5408   0.158E+03 0.424E+03
CGA:  11    -0.217124946495E+03   -0.11035E+02   -0.10977E+02  5408   0.546E+02 0.411E+01
CGA:  12    -0.224974395667E+03   -0.78494E+01   -0.78566E+01  5408   0.987E+02-0.101E+00
CGA:  13    -0.232562579982E+03   -0.75882E+01   -0.76376E+01  5408   0.165E+02 0.568E+00
CGA:  14    -0.233747688219E+03   -0.11851E+01   -0.11999E+01  5408   0.566E+01-0.962E-01
CGA:  15    -0.234459216581E+03   -0.71153E+00   -0.71288E+00  5408   0.763E+01 0.583E-02
CGA:  16    -0.235135066932E+03   -0.67585E+00   -0.67749E+00  5408   0.272E+01-0.170E-02
CGA:  17    -0.235352221149E+03   -0.21715E+00   -0.21715E+00  5408   0.144E+01 0.133E-02
CGA:  18    -0.235567748964E+03   -0.21553E+00   -0.21547E+00  5408   0.178E+01-0.262E-02
CGA:  19    -0.235741112648E+03   -0.17336E+00   -0.17419E+00  5408   0.780E+00-0.360E-02
CGA:  20    -0.235810001656E+03   -0.68889E-01   -0.68941E-01  5408   0.502E+00-0.876E-03
CGA:  21    -0.235899700298E+03   -0.89699E-01   -0.89638E-01  5408   0.820E+00 0.148E-02
CGA:  22    -0.235984873196E+03   -0.85173E-01   -0.85192E-01  5408   0.361E+00-0.699E-03
CGA:  23    -0.236021358611E+03   -0.36485E-01   -0.36470E-01  5408   0.245E+00-0.440E-03
CGA:  24    -0.236058057364E+03   -0.36699E-01   -0.36697E-01  5408   0.339E+00-0.117E-02
CGA:  25    -0.236095984740E+03   -0.37927E-01   -0.37953E-01  5408   0.227E+00-0.400E-03
CGA:  26    -0.236124368003E+03   -0.28383E-01   -0.28359E-01  5408   0.225E+00-0.490E-03
CGA:  27    -0.236153424113E+03   -0.29056E-01   -0.29048E-01  5408   0.177E+00-0.637E-04
CGA:  28    -0.236171181517E+03   -0.17757E-01   -0.17734E-01  5408   0.924E-01 0.629E-03
CGA:  29    -0.236182960656E+03   -0.11779E-01   -0.11788E-01  5408   0.861E-01 0.592E-03
CGA:  30    -0.236194041447E+03   -0.11081E-01   -0.11088E-01  5408   0.791E-01 0.540E-03
CGA:  31    -0.236203292317E+03   -0.92509E-02   -0.92655E-02  5408   0.604E-01 0.564E-03
CGA:  32    -0.236212835767E+03   -0.95434E-02   -0.95393E-02  5408   0.671E-01 0.364E-03
CGA:  33    -0.236219635919E+03   -0.68002E-02   -0.68238E-02  5408   0.398E-01 0.486E-03
CGA:  34    -0.236224027221E+03   -0.43913E-02   -0.43967E-02  5408   0.291E-01 0.275E-03
CGA:  35    -0.236228082809E+03   -0.40556E-02   -0.40556E-02  5408   0.250E-01 0.320E-03
CGA:  36    -0.236231119663E+03   -0.30369E-02   -0.30400E-02  5408   0.166E-01 0.151E-03
CGA:  37    -0.236233220382E+03   -0.21007E-02   -0.21024E-02  5408   0.191E-01 0.105E-03
CGA:  38    -0.236236286258E+03   -0.30659E-02   -0.30649E-02  5408   0.199E-01 0.201E-04
CGA:  39    -0.236238173527E+03   -0.18873E-02   -0.18896E-02  5408   0.844E-02 0.366E-04
SDA:  40    -0.236239118490E+03   -0.94496E-03   -0.94537E-03  5408   0.694E-02 0.164E-04
CGA:  41    -0.236239691106E+03   -0.57262E-03   -0.57219E-03  5408   0.740E-02-0.124E-04
CGA:  42    -0.236240925009E+03   -0.12339E-02   -0.12355E-02  5408   0.466E-02-0.445E-04
CGA:  43    -0.236241666679E+03   -0.74167E-03   -0.74190E-03  5408   0.590E-02-0.906E-05
CGA:  44    -0.236242211659E+03   -0.54498E-03   -0.54442E-03  5408   0.309E-02-0.525E-05
CGA:  45    -0.236242697310E+03   -0.48565E-03   -0.48587E-03  5408   0.442E-02-0.102E-04
CGA:  46    -0.236243271701E+03   -0.57439E-03   -0.57429E-03  5408   0.186E-02-0.222E-04
CGA:  47    -0.236243795383E+03   -0.52368E-03   -0.52384E-03  5408   0.406E-02-0.167E-05
CGA:  48    -0.236244194372E+03   -0.39899E-03   -0.39890E-03  5408   0.202E-02 0.295E-05
CGA:  49    -0.236244441966E+03   -0.24759E-03   -0.24756E-03  5408   0.296E-02-0.574E-06
CGA:  50    -0.236244828627E+03   -0.38666E-03   -0.38663E-03  5408   0.118E-02 0.345E-05
CGA:  51    -0.236244947688E+03   -0.11906E-03   -0.11917E-03  5408   0.102E-02 0.267E-05
CGA:  52    -0.236245234456E+03   -0.28677E-03   -0.28463E-03  5408   0.629E-03 0.173E-04
CGA:  53    -0.236245312473E+03   -0.78018E-04   -0.78089E-04  5408   0.765E-03 0.234E-05
CGA:  54    -0.236245848074E+03   -0.53560E-03   -0.48466E-03  5408  -0.193E-02 0.149E-03
CGA:  55    -0.236243202153E+03    0.26459E-02   -0.79102E-04  5408   0.717E-01-0.180E-01
CGA:  56    -0.236245785582E+03   -0.25834E-02   -0.25405E-02  5408   0.192E-03 0.896E-03
CGA:  57    -0.236245788381E+03   -0.27985E-05   -0.13998E-05  5408   0.150E-04 0.149E-04
CGA:  58    -0.236245789402E+03   -0.10218E-05   -0.11048E-07  5408   0.134E-03-0.245E-05
CGA:  59    -0.236246999705E+03   -0.12103E-02   -0.37653E-08  5408  -0.208E-01-0.346E-01
CGA:  60    -0.236245833992E+03    0.11657E-02    0.19049E-02  5408  -0.391E-03-0.283E-02
CGA:  61    -0.236245630990E+03    0.20300E-03   -0.43605E-04  5408   0.201E-02-0.114E-02
CGA:  62    -0.236245708487E+03   -0.77498E-04   -0.77569E-04  5408   0.708E-04-0.151E-05
CGA:  63    -0.236245711765E+03   -0.32775E-05   -0.32759E-05  5408   0.109E-04-0.933E-06
CGA:  64    -0.236245878686E+03   -0.16692E-03    0.43159E-04  5408   0.167E-03 0.402E-03
CGA:  65    -0.236245881565E+03   -0.28792E-05   -0.16271E-05  5408  -0.570E-04 0.293E-04
CGA:  66    -0.236245718668E+03    0.16290E-03   -0.16194E-05  5408   0.146E-02-0.735E-03
CGA:  67    -0.236245783742E+03   -0.65074E-04   -0.65041E-04  5408   0.465E-04-0.366E-06
CGA:  68    -0.236245784801E+03   -0.10589E-05   -0.10692E-05  5408  -0.136E-04-0.368E-06
CGA:  69    -0.236245778531E+03    0.62697E-05   -0.88307E-05  5408   0.111E-04-0.171E-04
CGA:  70    -0.236245778927E+03   -0.39579E-06   -0.40096E-06  5408   0.520E-05-0.125E-06
CGA:  71    -0.236245779678E+03   -0.75142E-06   -0.81994E-06  5408   0.728E-04 0.598E-06
CGA:  72    -0.236245755037E+03    0.24641E-04   -0.13293E-09  5408   0.149E-03 0.330E-04
CGA:  73    -0.236244657603E+03    0.10974E-02   -0.28227E-09  5408   0.535E-02-0.451E-03
CGA:  74    -0.236245552811E+03   -0.89521E-03   -0.89631E-03  5408   0.138E-02 0.688E-04
CGA:  75    -0.236245620984E+03   -0.68173E-04   -0.67398E-04  5408   0.338E-03-0.465E-05
CGA:  76    -0.236245673252E+03   -0.52268E-04   -0.52168E-04  5408   0.513E-03-0.823E-05
CGA:  77    -0.236245721456E+03   -0.48204E-04   -0.46755E-04  5408   0.220E-03-0.649E-05
CGA:  78    -0.236245743594E+03   -0.22139E-04   -0.21816E-04  5408   0.292E-03-0.400E-05
CGA:  79    -0.236245824947E+03   -0.81353E-04   -0.80807E-04  5408   0.374E-03 0.187E-04
CGA:  80    -0.236245825336E+03   -0.38888E-06   -0.21442E-06  5408   0.356E-03 0.392E-03
CGA:  81    -0.236245840134E+03   -0.14798E-04   -0.14818E-04  5408   0.500E-04 0.124E-06
CGA:  82    -0.236245848083E+03   -0.79487E-05   -0.79527E-05  5408   0.103E-03-0.209E-06
CGA:  83    -0.236245862288E+03   -0.14206E-04   -0.14140E-04  5408   0.531E-04-0.141E-05
CGA:  84    -0.236245865963E+03   -0.36749E-05   -0.36766E-05  5408   0.352E-04 0.103E-06
CGA:  85    -0.236245874565E+03   -0.86019E-05   -0.86321E-05  5408   0.113E-03-0.423E-06
CGA:  86    -0.236245864130E+03    0.10435E-04   -0.28199E-08  5408   0.120E-03 0.108E-03
CGA:  87    -0.236245870635E+03   -0.65049E-05   -0.65366E-05  5408   0.421E-04 0.343E-06
CGA:  88    -0.236245876408E+03   -0.57731E-05   -0.57740E-05  5408   0.523E-04 0.418E-07
CGA:  89    -0.236245881339E+03   -0.49308E-05   -0.48150E-05  5408   0.256E-04-0.107E-05
CGA:  90    -0.236245884665E+03   -0.33262E-05   -0.33158E-05  5408   0.391E-04-0.181E-05
CGA:  91    -0.236245889631E+03   -0.49655E-05   -0.49629E-05  5408   0.430E-04-0.300E-05
CGA:  92    -0.236245893844E+03   -0.42129E-05   -0.43824E-05  5408   0.385E-04 0.321E-05
CGA:  93    -0.236246134951E+03   -0.24111E-03   -0.71011E-05  5408  -0.178E-02 0.972E-02
CGA:  94    -0.236245916746E+03    0.21821E-03    0.22557E-03  5408  -0.973E-04-0.298E-03
CGA:  95    -0.236245883618E+03    0.33128E-04   -0.11837E-03  5408   0.414E-03-0.179E-03
CGA:  96    -0.236245899011E+03   -0.15393E-04   -0.15322E-04  5408   0.813E-05 0.137E-05
CGA:  97    -0.236245899486E+03   -0.47513E-06   -0.41515E-06  5408   0.474E-05 0.770E-06
CGA:  98    -0.236245901390E+03   -0.19037E-05    0.75842E-06  5408   0.161E-04 0.690E-05
CGA:  99    -0.236245902315E+03   -0.92498E-06   -0.92452E-06  5408   0.725E-05 0.243E-07
CGA: 100    -0.236245903762E+03   -0.14469E-05   -0.14335E-05  5408   0.203E-04 0.228E-06
   1 F= -.23624590E+03 E0= -.23625239E+03  d E =0.194599E-01  mag=    -9.6367
