 vasp.5.4.4.18Apr17-6-g9f103f2a35 (build Dec 20 2018 12:05:58) complex          
  
 executed on             LinuxIFC date 2019.06.20  15:05:55
 running on   32 total cores
 distrk:  each k-point on    8 cores,    4 groups
 distr:  one band on NCORES_PER_BAND=   4 cores,    2 groups


--------------------------------------------------------------------------------------------------------


 INCAR:
 POTCAR:    PAW_PBE Al 04Jan2001                  
 POTCAR:    PAW_PBE Mn 06Sep2000                  

 ----------------------------------------------------------------------------- 
|                                                                             |
|           W    W    AA    RRRRR   N    N  II  N    N   GGGG   !!!           |
|           W    W   A  A   R    R  NN   N  II  NN   N  G    G  !!!           |
|           W    W  A    A  R    R  N N  N  II  N N  N  G       !!!           |
|           W WW W  AAAAAA  RRRRR   N  N N  II  N  N N  G  GGG   !            |
|           WW  WW  A    A  R   R   N   NN  II  N   NN  G    G                |
|           W    W  A    A  R    R  N    N  II  N    N   GGGG   !!!           |
|                                                                             |
|      You have enabled k-point parallelism (KPAR>1).                         |
|      This developmental code was originally  written by Paul Kent at ORNL,  |
|      and carefully double checked in Vienna.                                |
|      GW as well as linear response parallelism added by Martijn Marsman     |
|      and Georg Kresse.                                                      |
|      Carefully verify results versus KPAR=1.                                |
|      Report problems to Paul Kent and Vienna.                               |
|                                                                             |
 ----------------------------------------------------------------------------- 

 POTCAR:    PAW_PBE Al 04Jan2001                  
   VRHFIN =Al: s2p1                                                             
   LEXCH  = PE                                                                  
   EATOM  =    53.5387 eV,    3.9350 Ry                                         
                                                                                
   TITEL  = PAW_PBE Al 04Jan2001                                                
   LULTRA =        F    use ultrasoft PP ?                                      
   IUNSCR =        1    unscreen: 0-lin 1-nonlin 2-no                           
   RPACOR =    1.500    partial core radius                                     
   POMASS =   26.981; ZVAL   =    3.000    mass and valenz                      
   RCORE  =    1.900    outmost cutoff radius                                   
   RWIGS  =    2.650; RWIGS  =    1.402    wigner-seitz radius (au A)           
   ENMAX  =  240.300; ENMIN  =  180.225 eV                                      
   ICORE  =        2    local potential                                         
   LCOR   =        T    correct aug charges                                     
   LPAW   =        T    paw PP                                                  
   EAUG   =  291.052                                                            
   DEXC   =    0.000                                                            
   RMAX   =    1.939    core radius for proj-oper                               
   RAUG   =    1.300    factor for augmentation sphere                          
   RDEP   =    1.966    radius for radial grids                                 
   RDEPT  =    1.856    core radius for aug-charge                              
                                                                                
   Atomic configuration                                                         
    6 entries                                                                   
     n  l   j            E        occ.                                          
     1  0  0.50     -1511.1048   2.0000                                         
     2  0  0.50      -108.1629   2.0000                                         
     2  1  1.50       -69.6402   6.0000                                         
     3  0  0.50        -7.7528   2.0000                                         
     3  1  1.50        -2.7121   1.0000                                         
     3  2  2.50        -2.7212   0.0000                                         
   Description                                                                  
     l       E           TYP  RCUT    TYP  RCUT                                 
     0     -7.7528455     23  1.900                                             
     0     -3.3096929     23  1.900                                             
     1     -2.7120682     23  1.900                                             
     1     13.6058260     23  1.900                                             
     2     -2.7211652      7  1.900                                             
  local pseudopotential read in
  partial core-charges read in
  partial kinetic energy density read in
  atomic valenz-charges read in
  non local Contribution for L=           0  read in
    real space projection operators read in
  non local Contribution for L=           0  read in
    real space projection operators read in
  non local Contribution for L=           1  read in
    real space projection operators read in
  non local Contribution for L=           1  read in
    real space projection operators read in
    PAW grid and wavefunctions read in
 
   number of l-projection  operators is LMAX  =           4
   number of lm-projection operators is LMMAX =           8
 
 POTCAR:    PAW_PBE Mn 06Sep2000                  
   VRHFIN =Mn: d6 s1                                                            
   LEXCH  = PE                                                                  
   EATOM  =   416.7541 eV,   30.6306 Ry                                         
                                                                                
   TITEL  = PAW_PBE Mn 06Sep2000                                                
   LULTRA =        F    use ultrasoft PP ?                                      
   IUNSCR =        1    unscreen: 0-lin 1-nonlin 2-no                           
   RPACOR =    2.000    partial core radius                                     
   POMASS =   54.938; ZVAL   =    7.000    mass and valenz                      
   RCORE  =    2.300    outmost cutoff radius                                   
   RWIGS  =    2.500; RWIGS  =    1.323    wigner-seitz radius (au A)           
   ENMAX  =  269.864; ENMIN  =  202.398 eV                                      
   RCLOC  =    1.725    cutoff for local pot                                    
   LCOR   =        T    correct aug charges                                     
   LPAW   =        T    paw PP                                                  
   EAUG   =  500.711                                                            
   DEXC   =    0.000                                                            
   RMAX   =    2.343    core radius for proj-oper                               
   RAUG   =    1.300    factor for augmentation sphere                          
   RDEP   =    2.338    radius for radial grids                                 
   RDEPT  =    1.911    core radius for aug-charge                              
                                                                                
   Atomic configuration                                                         
    9 entries                                                                   
     n  l   j            E        occ.                                          
     1  0  0.50     -6424.8288   2.0000                                         
     2  0  0.50      -739.1154   2.0000                                         
     2  1  1.50      -625.3949   6.0000                                         
     3  0  0.50       -81.6100   2.0000                                         
     3  1  1.50       -50.4667   6.0000                                         
     3  2  2.50        -3.3745   6.0000                                         
     4  0  0.50        -4.1331   1.0000                                         
     4  1  0.50        -4.0817   0.0000                                         
     4  3  2.50        -1.3606   0.0000                                         
   Description                                                                  
     l       E           TYP  RCUT    TYP  RCUT                                 
     2     -3.3744664     23  2.300                                             
     2     -4.7350490     23  2.300                                             
     0     -4.1331408     23  2.300                                             
     0      7.6656614     23  2.300                                             
     1     -2.7211652     23  2.300                                             
     1     20.4087390     23  2.300                                             
  local pseudopotential read in
  partial core-charges read in
  partial kinetic energy density read in
  atomic valenz-charges read in
  non local Contribution for L=           2  read in
    real space projection operators read in
  non local Contribution for L=           2  read in
    real space projection operators read in
  non local Contribution for L=           0  read in
    real space projection operators read in
  non local Contribution for L=           0  read in
    real space projection operators read in
  non local Contribution for L=           1  read in
    real space projection operators read in
  non local Contribution for L=           1  read in
    real space projection operators read in
    PAW grid and wavefunctions read in
 
   number of l-projection  operators is LMAX  =           6
   number of lm-projection operators is LMMAX =          18
 

 ----------------------------------------------------------------------------- 
|                                                                             |
|  ADVICE TO THIS USER RUNNING 'VASP/VAMP'   (HEAR YOUR MASTER'S VOICE ...):  |
|                                                                             |
|      You have a (more or less) 'large supercell' and for larger cells       |
|      it might be more efficient to use real space projection opertators     |
|      So try LREAL= Auto  in the INCAR   file.                               |
|      Mind:          For very  accurate calculation you might also keep the  |
|      reciprocal projection scheme          (i.e. LREAL=.FALSE.)             |
|                                                                             |
 ----------------------------------------------------------------------------- 

  PAW_PBE Al 04Jan2001                  :
 energy of atom  1       EATOM=  -53.5387
 kinetic energy error for atom=    0.0005 (will be added to EATOM!!)
  PAW_PBE Mn 06Sep2000                  :
 energy of atom  2       EATOM= -416.7541
 kinetic energy error for atom=    0.0080 (will be added to EATOM!!)
 
 
 POSCAR: NewRef: 18, @ ['Mn', array([1.37502469, 
  positions in cartesian coordinates
  velocities in cartesian coordinates
  No initial velocities read in
 exchange correlation table for  LEXCH =        8
   RHO(1)=    0.500       N(1)  =     2000
   RHO(2)=  100.500       N(2)  =     4000
 


--------------------------------------------------------------------------------------------------------


 ion  position               nearest neighbor table
   1  0.000  0.000  0.000-  20 2.61  24 2.61  32 2.61  36 2.61  31 2.61  23 2.61  35 2.61  19 2.61
                             3 2.75   7 2.75   5 2.75  13 2.75
   2  0.000  0.000  0.500-  19 2.61  23 2.61  31 2.61  35 2.61  20 2.61  32 2.61  24 2.61  36 2.61
                             4 2.75   8 2.75   6 2.75  14 2.75
   3  0.000  0.333  0.000-  20 2.61  32 2.61  22 2.61  34 2.61  19 2.61  31 2.61  33 2.61  21 2.61
                             9 2.75   1 2.75   5 2.75  15 2.75
   4  0.000  0.333  0.500-  19 2.61  31 2.61  21 2.61  33 2.61  32 2.61  20 2.61  22 2.61  34 2.61
                            10 2.75   2 2.75   6 2.75  16 2.75
   5  0.000  0.667  0.000-  22 2.61  34 2.61  24 2.61  36 2.61  21 2.61  33 2.61  35 2.61  23 2.61
                             3 2.75  11 2.75   1 2.75  17 2.75
   6  0.000  0.667  0.500-  21 2.61  33 2.61  23 2.61  35 2.61  34 2.61  22 2.61  24 2.61  36 2.61
                             4 2.75  12 2.75   2 2.75  18 2.75
   7  0.333  0.000  0.000-  20 2.61  24 2.61  26 2.61  30 2.61  23 2.61  19 2.61  29 2.61  25 2.61
                            13 2.75   1 2.75   9 2.75  11 2.75
   8  0.333  0.000  0.500-  19 2.61  23 2.61  25 2.61  29 2.61  20 2.61  24 2.61  26 2.61  30 2.61
                            14 2.75   2 2.75  10 2.75  12 2.75
   9  0.333  0.333  0.000-  20 2.61  22 2.61  26 2.61  19 2.61  28 2.61  21 2.61  25 2.61  27 2.61
                             3 2.75   7 2.75  11 2.75  15 2.75
  10  0.333  0.333  0.500-  19 2.61  21 2.61  25 2.61  20 2.61  27 2.61  26 2.61  22 2.61  28 2.61
                             4 2.75   8 2.75  12 2.75  16 2.75
  11  0.333  0.667  0.000-  22 2.61  24 2.61  28 2.61  21 2.61  30 2.61  23 2.61  27 2.61  29 2.61
                            17 2.75   5 2.75   9 2.75   7 2.75
  12  0.333  0.667  0.500-  21 2.61  23 2.61  27 2.61  22 2.61  29 2.61  28 2.61  24 2.61  30 2.61
                            18 2.75   6 2.75  10 2.75   8 2.75
  13  0.667  0.000  0.000-  26 2.61  30 2.61  32 2.61  36 2.61  29 2.61  25 2.61  35 2.61  31 2.61
                             7 2.75  15 2.75   1 2.75  17 2.75
  14  0.667  0.000  0.500-  25 2.61  29 2.61  31 2.61  35 2.61  26 2.61  30 2.61  32 2.61  36 2.61
                             8 2.75  16 2.75   2 2.75  18 2.75
  15  0.667  0.333  0.000-  26 2.61  28 2.61  32 2.61  25 2.61  34 2.61  27 2.61  31 2.61  33 2.61
                            17 2.75   9 2.75  13 2.75   3 2.75
  16  0.667  0.333  0.500-  25 2.61  27 2.61  31 2.61  26 2.61  33 2.61  32 2.61  28 2.61  34 2.61
                            18 2.75  10 2.75  14 2.75   4 2.75
  17  0.667  0.667  0.000-  28 2.61  30 2.61  34 2.61  27 2.61  36 2.61  29 2.61  33 2.61  35 2.61
                            11 2.75  15 2.75  13 2.75   5 2.75
  18  0.667  0.667  0.500-  27 2.61  29 2.61  33 2.61  28 2.61  35 2.61  34 2.61  30 2.61  36 2.61
                            12 2.75  16 2.75  14 2.75   6 2.75
  19  0.167  0.167  0.250-  10 2.61   8 2.61   4 2.61   9 2.61   2 2.61   7 2.61   3 2.61   1 2.61
                            21 2.75  25 2.75  23 2.75  31 2.75
  20  0.167  0.167  0.750-   9 2.61   7 2.61   3 2.61  10 2.61   1 2.61   4 2.61   8 2.61   2 2.61
                            22 2.75  26 2.75  24 2.75  32 2.75
  21  0.167  0.500  0.250-  12 2.61  10 2.61   6 2.61  11 2.61   4 2.61   9 2.61   5 2.61   3 2.61
                            19 2.75  23 2.75  27 2.75  33 2.75
  22  0.167  0.500  0.750-  11 2.61   9 2.61   5 2.61  12 2.61   3 2.61   6 2.61  10 2.61   4 2.61
                            20 2.75  24 2.75  28 2.75  34 2.75
  23  0.167  0.833  0.250-   8 2.61  12 2.61   2 2.61   6 2.61  11 2.61   7 2.61   5 2.61   1 2.61
                            21 2.75  29 2.75  19 2.75  35 2.75
  24  0.167  0.833  0.750-   7 2.61  11 2.61   1 2.61   5 2.61   8 2.61  12 2.61   2 2.61   6 2.61
                            22 2.75  30 2.75  20 2.75  36 2.75
  25  0.500  0.167  0.250-  16 2.61  14 2.61  10 2.61  15 2.61   8 2.61  13 2.61   9 2.61   7 2.61
                            19 2.75  27 2.75  31 2.75  29 2.75
  26  0.500  0.167  0.750-  15 2.61  13 2.61   9 2.61  16 2.61   7 2.61  10 2.61  14 2.61   8 2.61
                            20 2.75  28 2.75  32 2.75  30 2.75
  27  0.500  0.500  0.250-  18 2.61  16 2.61  12 2.61  17 2.61  10 2.61  15 2.61  11 2.61   9 2.61
                            21 2.75  25 2.75  29 2.75  33 2.75
  28  0.500  0.500  0.750-  17 2.61  15 2.61  11 2.61  18 2.61   9 2.61  12 2.61  16 2.61  10 2.61
                            22 2.75  26 2.75  30 2.75  34 2.75
  29  0.500  0.833  0.250-  14 2.61  18 2.61   8 2.61  12 2.61  17 2.61  13 2.61  11 2.61   7 2.61
                            23 2.75  27 2.75  35 2.75  25 2.75
  30  0.500  0.833  0.750-  13 2.61  17 2.61   7 2.61  11 2.61  14 2.61  18 2.61   8 2.61  12 2.61
                            24 2.75  28 2.75  36 2.75  26 2.75
  31  0.833  0.167  0.250-   4 2.61  16 2.61  14 2.61   2 2.61  15 2.61   3 2.61  13 2.61   1 2.61
                            25 2.75  33 2.75  19 2.75  35 2.75
  32  0.833  0.167  0.750-   3 2.61  15 2.61  13 2.61   1 2.61   4 2.61  16 2.61   2 2.61  14 2.61
                            26 2.75  34 2.75  20 2.75  36 2.75
  33  0.833  0.500  0.250-   6 2.61  18 2.61  16 2.61   4 2.61  17 2.61   5 2.61  15 2.61   3 2.61
                            27 2.75  31 2.75  35 2.75  21 2.75
  34  0.833  0.500  0.750-   5 2.61  17 2.61  15 2.61   3 2.61   6 2.61  18 2.61   4 2.61  16 2.61
                            28 2.75  32 2.75  36 2.75  22 2.75
  35  0.833  0.833  0.250-   2 2.61   6 2.61  14 2.61  18 2.61  13 2.61   5 2.61  17 2.61   1 2.61
                            29 2.75  33 2.75  31 2.75  23 2.75
  36  0.833  0.833  0.750-   1 2.61   5 2.61  13 2.61  17 2.61   2 2.61  14 2.61   6 2.61  18 2.61
                            30 2.75  34 2.75  32 2.75  24 2.75
 
  LATTYP: Found a simple tetragonal cell.
 ALAT       =     8.2501481662
 C/A-ratio  =     0.8428059861
  
  Lattice vectors:
  
 A1 = (   8.2501481662,   0.0000000000,   0.0000000000)
 A2 = (   0.0000000000,   8.2501481662,   0.0000000000)
 A3 = (   0.0000000000,   0.0000000000,   6.9532742610)


Analysis of symmetry for initial positions (statically):
=====================================================================
 Subroutine PRICEL returns following result:
 
  LATTYP: Found a simple tetragonal cell.
 ALAT       =     2.7500493888
 C/A-ratio  =     1.2642089792
  
  Lattice vectors:
  
 A1 = (   2.7500493888,   0.0000000000,   0.0000000000)
 A2 = (   0.0000000000,   2.7500493888,   0.0000000000)
 A3 = (   0.0000000000,   0.0000000000,   3.4766371305)
 
  18 primitive cells build up your supercell.
 

 Routine SETGRP: Setting up the symmetry group for a 
 simple tetragonal supercell.


 Subroutine GETGRP returns: Found 16 space group operations
 (whereof 16 operations were pure point group operations)
 out of a pool of 16 trial point group operations.


The static configuration has the point symmetry D_4h.


Analysis of symmetry for dynamics (positions and initial velocities):
=====================================================================
 Subroutine PRICEL returns following result:
 
  LATTYP: Found a simple tetragonal cell.
 ALAT       =     2.7500493888
 C/A-ratio  =     1.2642089792
  
  Lattice vectors:
  
 A1 = (   2.7500493888,   0.0000000000,   0.0000000000)
 A2 = (   0.0000000000,   2.7500493888,   0.0000000000)
 A3 = (   0.0000000000,   0.0000000000,   3.4766371305)
 
  18 primitive cells build up your supercell.
 

 Routine SETGRP: Setting up the symmetry group for a 
 simple tetragonal supercell.


 Subroutine GETGRP returns: Found 16 space group operations
 (whereof 16 operations were pure point group operations)
 out of a pool of 16 trial point group operations.


The dynamic configuration has the point symmetry D_4h.


Analysis of structural, dynamic, and magnetic symmetry:
=====================================================================
 Subroutine PRICEL returns:
 Original cell was already a primitive cell.
 

 Routine SETGRP: Setting up the symmetry group for a 
 simple tetragonal supercell.


 Subroutine GETGRP returns: Found  2 space group operations
 (whereof  1 operations were pure point group operations)
 out of a pool of 16 trial point group operations.


The magnetic configuration has the point symmetry C_1 .
 The point group associated with its full space group is C_1h.


 Subroutine INISYM returns: Found  2 space group operations
 (whereof  1 operations are pure point group operations),
 and found     1 'primitive' translations

 
 
 KPOINTS: automatic KPOINTS                       

Automatic generation of k-mesh.
 generate k-points for:    5    5    6
Space group operators:
 irot       det(A)        alpha          n_x          n_y          n_z        tau_x        tau_y        tau_z
    1     1.000000     0.000001     1.000000     0.000000     0.000000     0.000000     0.000000     0.000000
    2    -1.000000   179.999999     0.000000     0.000000     1.000000     0.000000     0.000000     0.500000
 
 Subroutine IBZKPT returns following result:
 ===========================================
 
 Found     52 irreducible k-points:
 
 Following reciprocal coordinates:
            Coordinates               Weight
  0.000000  0.000000  0.000000      1.000000
  0.200000  0.000000  0.000000      2.000000
  0.400000  0.000000  0.000000      2.000000
  0.000000  0.200000  0.000000      2.000000
  0.200000  0.200000  0.000000      2.000000
  0.400000  0.200000  0.000000      2.000000
 -0.400000  0.200000  0.000000      2.000000
 -0.200000  0.200000  0.000000      2.000000
  0.000000  0.400000  0.000000      2.000000
  0.200000  0.400000  0.000000      2.000000
  0.400000  0.400000  0.000000      2.000000
 -0.400000  0.400000  0.000000      2.000000
 -0.200000  0.400000  0.000000      2.000000
  0.000000  0.000000  0.166667      2.000000
  0.200000  0.000000  0.166667      4.000000
  0.400000  0.000000  0.166667      4.000000
  0.000000  0.200000  0.166667      4.000000
  0.200000  0.200000  0.166667      4.000000
  0.400000  0.200000  0.166667      4.000000
 -0.400000  0.200000  0.166667      4.000000
 -0.200000  0.200000  0.166667      4.000000
  0.000000  0.400000  0.166667      4.000000
  0.200000  0.400000  0.166667      4.000000
  0.400000  0.400000  0.166667      4.000000
 -0.400000  0.400000  0.166667      4.000000
 -0.200000  0.400000  0.166667      4.000000
  0.000000  0.000000  0.333333      2.000000
  0.200000  0.000000  0.333333      4.000000
  0.400000  0.000000  0.333333      4.000000
  0.000000  0.200000  0.333333      4.000000
  0.200000  0.200000  0.333333      4.000000
  0.400000  0.200000  0.333333      4.000000
 -0.400000  0.200000  0.333333      4.000000
 -0.200000  0.200000  0.333333      4.000000
  0.000000  0.400000  0.333333      4.000000
  0.200000  0.400000  0.333333      4.000000
  0.400000  0.400000  0.333333      4.000000
 -0.400000  0.400000  0.333333      4.000000
 -0.200000  0.400000  0.333333      4.000000
  0.000000  0.000000  0.500000      1.000000
  0.200000  0.000000  0.500000      2.000000
  0.400000  0.000000  0.500000      2.000000
  0.000000  0.200000  0.500000      2.000000
  0.200000  0.200000  0.500000      2.000000
  0.400000  0.200000  0.500000      2.000000
 -0.400000  0.200000  0.500000      2.000000
 -0.200000  0.200000  0.500000      2.000000
  0.000000  0.400000  0.500000      2.000000
  0.200000  0.400000  0.500000      2.000000
  0.400000  0.400000  0.500000      2.000000
 -0.400000  0.400000  0.500000      2.000000
 -0.200000  0.400000  0.500000      2.000000
 
 Following cartesian coordinates:
            Coordinates               Weight
  0.000000  0.000000  0.000000      1.000000
  0.024242  0.000000  0.000000      2.000000
  0.048484  0.000000  0.000000      2.000000
  0.000000  0.024242  0.000000      2.000000
  0.024242  0.024242  0.000000      2.000000
  0.048484  0.024242  0.000000      2.000000
 -0.048484  0.024242  0.000000      2.000000
 -0.024242  0.024242  0.000000      2.000000
  0.000000  0.048484  0.000000      2.000000
  0.024242  0.048484  0.000000      2.000000
  0.048484  0.048484  0.000000      2.000000
 -0.048484  0.048484  0.000000      2.000000
 -0.024242  0.048484  0.000000      2.000000
  0.000000  0.000000  0.023970      2.000000
  0.024242  0.000000  0.023970      4.000000
  0.048484  0.000000  0.023970      4.000000
  0.000000  0.024242  0.023970      4.000000
  0.024242  0.024242  0.023970      4.000000
  0.048484  0.024242  0.023970      4.000000
 -0.048484  0.024242  0.023970      4.000000
 -0.024242  0.024242  0.023970      4.000000
  0.000000  0.048484  0.023970      4.000000
  0.024242  0.048484  0.023970      4.000000
  0.048484  0.048484  0.023970      4.000000
 -0.048484  0.048484  0.023970      4.000000
 -0.024242  0.048484  0.023970      4.000000
  0.000000  0.000000  0.047939      2.000000
  0.024242  0.000000  0.047939      4.000000
  0.048484  0.000000  0.047939      4.000000
  0.000000  0.024242  0.047939      4.000000
  0.024242  0.024242  0.047939      4.000000
  0.048484  0.024242  0.047939      4.000000
 -0.048484  0.024242  0.047939      4.000000
 -0.024242  0.024242  0.047939      4.000000
  0.000000  0.048484  0.047939      4.000000
  0.024242  0.048484  0.047939      4.000000
  0.048484  0.048484  0.047939      4.000000
 -0.048484  0.048484  0.047939      4.000000
 -0.024242  0.048484  0.047939      4.000000
  0.000000  0.000000  0.071909      1.000000
  0.024242  0.000000  0.071909      2.000000
  0.048484  0.000000  0.071909      2.000000
  0.000000  0.024242  0.071909      2.000000
  0.024242  0.024242  0.071909      2.000000
  0.048484  0.024242  0.071909      2.000000
 -0.048484  0.024242  0.071909      2.000000
 -0.024242  0.024242  0.071909      2.000000
  0.000000  0.048484  0.071909      2.000000
  0.024242  0.048484  0.071909      2.000000
  0.048484  0.048484  0.071909      2.000000
 -0.048484  0.048484  0.071909      2.000000
 -0.024242  0.048484  0.071909      2.000000
 


--------------------------------------------------------------------------------------------------------




 Dimension of arrays:
   k-points           NKPTS =     52   k-points in BZ     NKDIM =     52   number of bands    NBANDS=    104
   number of dos      NEDOS =    301   number of ions     NIONS =     36
   non local maximal  LDIM  =      6   non local SUM 2l+1 LMDIM =     18
   total plane-waves  NPLWV = 139968
   max r-space proj   IRMAX =      1   max aug-charges    IRDMAX=  92271
   dimension x,y,z NGX =    54 NGY =   54 NGZ =   48
   dimension x,y,z NGXF=   108 NGYF=  108 NGZF=   96
   support grid    NGXF=   216 NGYF=  216 NGZF=  192
   ions per type =              18  18
   NGX,Y,Z   is equivalent  to a cutoff of  10.88, 10.88, 11.48 a.u.
   NGXF,Y,Z  is equivalent  to a cutoff of  21.76, 21.76, 22.95 a.u.

 SYSTEM =  AlMn_pv                                 
 POSCAR =  NewRef: 18, @ ['Mn', array([1.37502469, 

 Startparameter for this run:
   NWRITE =      2    write-flag & timer
   PREC   = accura    normal or accurate (medium, high low for compatibility)
   ISTART =      0    job   : 0-new  1-cont  2-samecut
   ICHARG =      2    charge: 1-file 2-atom 10-const
   ISPIN  =      2    spin polarized calculation?
   LNONCOLLINEAR =      F non collinear calculations
   LSORBIT =      F    spin-orbit coupling
   INIWAV =      1    electr: 0-lowe 1-rand  2-diag
   LASPH  =      F    aspherical Exc in radial PAW
   METAGGA=      F    non-selfconsistent MetaGGA calc.

 Electronic Relaxation 1
   ENCUT  =  404.8 eV  29.75 Ry    5.45 a.u.  13.53 13.53 11.41*2*pi/ulx,y,z
   ENINI  =  404.8     initial cutoff
   ENAUG  =  500.7 eV  augmentation charge cutoff
   NELM   =    100;   NELMIN=  4; NELMDL= -8     # of ELM steps 
   EDIFF  = 0.1E-06   stopping-criterion for ELM
   LREAL  =      F    real-space projection
   NLSPLINE    = F    spline interpolate recip. space projectors
   LCOMPAT=      F    compatible to vasp.4.4
   GGA_COMPAT  = T    GGA compatible to vasp.4.4-vasp.4.6
   LMAXPAW     = -100 max onsite density
   LMAXMIX     =    2 max onsite mixed and CHGCAR
   VOSKOWN=      0    Vosko Wilk Nusair interpolation
   ROPT   =    0.00000   0.00000
 Ionic relaxation
   EDIFFG = 0.1E-05   stopping-criterion for IOM
   NSW    =      0    number of steps for IOM
   NBLOCK =      1;   KBLOCK =      1    inner block; outer block 
   IBRION =     -1    ionic relax: 0-MD 1-quasi-New 2-CG
   NFREE  =      0    steps in history (QN), initial steepest desc. (CG)
   ISIF   =      2    stress and relaxation
   IWAVPR =     10    prediction:  0-non 1-charg 2-wave 3-comb
   ISYM   =      2    0-nonsym 1-usesym 2-fastsym
   LCORR  =      T    Harris-Foulkes like correction to forces

   POTIM  = 0.2000    time-step for ionic-motion
   TEIN   =    0.0    initial temperature
   TEBEG  =    0.0;   TEEND  =   0.0 temperature during run
   SMASS  =  -3.00    Nose mass-parameter (am)
   estimated Nose-frequenzy (Omega)   =  0.10E-29 period in steps =****** mass=  -0.156E-26a.u.
   SCALEE = 1.0000    scale energy and forces
   NPACO  =    256;   APACO  = 16.0  distance and # of slots for P.C.
   PSTRESS=    0.0 pullay stress

  Mass of Ions in am
   POMASS =  26.98 54.94
  Ionic Valenz
   ZVAL   =   3.00  7.00
  Atomic Wigner-Seitz radii
   RWIGS  =  -1.00 -1.00
  virtual crystal weights 
   VCA    =   1.00  1.00
   NELECT =     180.0000    total number of electrons
   NUPDOWN=      -1.0000    fix difference up-down

 DOS related values:
   EMIN   =  10.00;   EMAX   =-10.00  energy-range for DOS
   EFERMI =   0.00
   ISMEAR =     1;   SIGMA  =   0.20  broadening in eV -4-tet -1-fermi 0-gaus

 Electronic relaxation 2 (details)
   IALGO  =     58    algorithm
   LDIAG  =      T    sub-space diagonalisation (order eigenvalues)
   LSUBROT=      F    optimize rotation matrix (better conditioning)
   TURBO    =      0    0=normal 1=particle mesh
   IRESTART =      0    0=no restart 2=restart with 2 vectors
   NREBOOT  =      0    no. of reboots
   NMIN     =      0    reboot dimension
   EREF     =   0.00    reference energy to select bands
   IMIX   =      4    mixing-type and parameters
     AMIX     =   0.40;   BMIX     =  1.00
     AMIX_MAG =   1.60;   BMIX_MAG =  1.00
     AMIN     =   0.10
     WC   =   100.;   INIMIX=   1;  MIXPRE=   1;  MAXMIX= -45

 Intra band minimization:
   WEIMIN = 0.0000     energy-eigenvalue tresh-hold
   EBREAK =  0.24E-09  absolut break condition
   DEPER  =   0.30     relativ break condition  

   TIME   =   0.40     timestep for ELM

  volume/ion in A,a.u.               =      13.15        88.72
  Fermi-wavevector in a.u.,A,eV,Ry     =   1.186118  2.241439 19.141722  1.406877
  Thomas-Fermi vector in A             =   2.322298
 
 Write flags
   LWAVE        =      F    write WAVECAR
   LDOWNSAMPLE  =      F    k-point downsampling of WAVECAR
   LCHARG       =      F    write CHGCAR
   LVTOT        =      F    write LOCPOT, total local potential
   LVHAR        =      F    write LOCPOT, Hartree potential only
   LELF         =      F    write electronic localiz. function (ELF)
   LORBIT       =     10    0 simple, 1 ext, 2 COOP (PROOUT), +10 PAW based schemes


 Dipole corrections
   LMONO  =      F    monopole corrections only (constant potential shift)
   LDIPOL =      F    correct potential (dipole corrections)
   IDIPOL =      0    1-x, 2-y, 3-z, 4-all directions 
   EPSILON=  1.0000000 bulk dielectric constant

 Exchange correlation treatment:
   GGA     =    --    GGA type
   LEXCH   =     8    internal setting for exchange type
   VOSKOWN=      0    Vosko Wilk Nusair interpolation
   LHFCALC =     F    Hartree Fock is set to
   LHFONE  =     F    Hartree Fock one center treatment
   AEXX    =    0.0000 exact exchange contribution

 Linear response parameters
   LEPSILON=     F    determine dielectric tensor
   LRPA    =     F    only Hartree local field effects (RPA)
   LNABLA  =     F    use nabla operator in PAW spheres
   LVEL    =     F    velocity operator in full k-point grid
   LINTERFAST=   F  fast interpolation
   KINTER  =     0    interpolate to denser k-point grid
   CSHIFT  =0.1000    complex shift for real part using Kramers Kronig
   OMEGAMAX=  -1.0    maximum frequency
   DEG_THRESHOLD= 0.2000000E-02 threshold for treating states as degnerate
   RTIME   =   -0.100 relaxation time in fs
  (WPLASMAI=    0.000 imaginary part of plasma frequency in eV, 0.658/RTIME)
   DFIELD  = 0.0000000 0.0000000 0.0000000 field for delta impulse in time
 
 Orbital magnetization related:
   ORBITALMAG=     F  switch on orbital magnetization
   LCHIMAG   =     F  perturbation theory with respect to B field
   DQ        =  0.001000  dq finite difference perturbation B field
   LLRAUG    =     F  two centre corrections for induced B field



--------------------------------------------------------------------------------------------------------


 Static calculation
 charge density and potential will be updated during run
 spin polarized calculation
 Conjugate gradient for all bands (Freysoldt, et al. PRB 79, 241103 (2009))
 preconditioned conjugated gradient                                        
 perform sub-space diagonalisation
    before iterative eigenvector-optimisation
 modified Broyden-mixing scheme, WC =      100.0
 initial mixing is a Kerker type mixing with AMIX =  0.4000 and BMIX =      1.0000
 Hartree-type preconditioning will be used
 using additional bands           14
 reciprocal scheme for non local part
 use partial core corrections
 no Harris-corrections to forces 
 use gradient corrections 
 use of overlap-Matrix (Vanderbilt PP)
 Methfessel and Paxton  Order N= 1 SIGMA  =   0.20


--------------------------------------------------------------------------------------------------------


  energy-cutoff  :      404.80
  volume of cell :      473.27
      direct lattice vectors                 reciprocal lattice vectors
     8.250148166  0.000000000  0.000000000     0.121209944  0.000000000  0.000000000
     0.000000000  8.250148166  0.000000000     0.000000000  0.121209944  0.000000000
     0.000000000  0.000000000  6.953274261     0.000000000  0.000000000  0.143817137

  length of vectors
     8.250148166  8.250148166  6.953274261     0.121209944  0.121209944  0.143817137


 
 k-points in units of 2pi/SCALE and weight: automatic KPOINTS                       
   0.00000000  0.00000000  0.00000000       0.007
   0.02424199  0.00000000  0.00000000       0.013
   0.04848398  0.00000000  0.00000000       0.013
   0.00000000  0.02424199  0.00000000       0.013
   0.02424199  0.02424199  0.00000000       0.013
   0.04848398  0.02424199  0.00000000       0.013
  -0.04848398  0.02424199  0.00000000       0.013
  -0.02424199  0.02424199  0.00000000       0.013
   0.00000000  0.04848398  0.00000000       0.013
   0.02424199  0.04848398  0.00000000       0.013
   0.04848398  0.04848398  0.00000000       0.013
  -0.04848398  0.04848398  0.00000000       0.013
  -0.02424199  0.04848398  0.00000000       0.013
   0.00000000  0.00000000  0.02396952       0.013
   0.02424199  0.00000000  0.02396952       0.027
   0.04848398  0.00000000  0.02396952       0.027
   0.00000000  0.02424199  0.02396952       0.027
   0.02424199  0.02424199  0.02396952       0.027
   0.04848398  0.02424199  0.02396952       0.027
  -0.04848398  0.02424199  0.02396952       0.027
  -0.02424199  0.02424199  0.02396952       0.027
   0.00000000  0.04848398  0.02396952       0.027
   0.02424199  0.04848398  0.02396952       0.027
   0.04848398  0.04848398  0.02396952       0.027
  -0.04848398  0.04848398  0.02396952       0.027
  -0.02424199  0.04848398  0.02396952       0.027
   0.00000000  0.00000000  0.04793905       0.013
   0.02424199  0.00000000  0.04793905       0.027
   0.04848398  0.00000000  0.04793905       0.027
   0.00000000  0.02424199  0.04793905       0.027
   0.02424199  0.02424199  0.04793905       0.027
   0.04848398  0.02424199  0.04793905       0.027
  -0.04848398  0.02424199  0.04793905       0.027
  -0.02424199  0.02424199  0.04793905       0.027
   0.00000000  0.04848398  0.04793905       0.027
   0.02424199  0.04848398  0.04793905       0.027
   0.04848398  0.04848398  0.04793905       0.027
  -0.04848398  0.04848398  0.04793905       0.027
  -0.02424199  0.04848398  0.04793905       0.027
   0.00000000  0.00000000  0.07190857       0.007
   0.02424199  0.00000000  0.07190857       0.013
   0.04848398  0.00000000  0.07190857       0.013
   0.00000000  0.02424199  0.07190857       0.013
   0.02424199  0.02424199  0.07190857       0.013
   0.04848398  0.02424199  0.07190857       0.013
  -0.04848398  0.02424199  0.07190857       0.013
  -0.02424199  0.02424199  0.07190857       0.013
   0.00000000  0.04848398  0.07190857       0.013
   0.02424199  0.04848398  0.07190857       0.013
   0.04848398  0.04848398  0.07190857       0.013
  -0.04848398  0.04848398  0.07190857       0.013
  -0.02424199  0.04848398  0.07190857       0.013
 
 k-points in reciprocal lattice and weights: automatic KPOINTS                       
   0.00000000  0.00000000  0.00000000       0.007
   0.20000000  0.00000000  0.00000000       0.013
   0.40000000  0.00000000  0.00000000       0.013
   0.00000000  0.20000000  0.00000000       0.013
   0.20000000  0.20000000  0.00000000       0.013
   0.40000000  0.20000000  0.00000000       0.013
  -0.40000000  0.20000000  0.00000000       0.013
  -0.20000000  0.20000000  0.00000000       0.013
   0.00000000  0.40000000  0.00000000       0.013
   0.20000000  0.40000000  0.00000000       0.013
   0.40000000  0.40000000  0.00000000       0.013
  -0.40000000  0.40000000  0.00000000       0.013
  -0.20000000  0.40000000  0.00000000       0.013
   0.00000000  0.00000000  0.16666667       0.013
   0.20000000  0.00000000  0.16666667       0.027
   0.40000000  0.00000000  0.16666667       0.027
   0.00000000  0.20000000  0.16666667       0.027
   0.20000000  0.20000000  0.16666667       0.027
   0.40000000  0.20000000  0.16666667       0.027
  -0.40000000  0.20000000  0.16666667       0.027
  -0.20000000  0.20000000  0.16666667       0.027
   0.00000000  0.40000000  0.16666667       0.027
   0.20000000  0.40000000  0.16666667       0.027
   0.40000000  0.40000000  0.16666667       0.027
  -0.40000000  0.40000000  0.16666667       0.027
  -0.20000000  0.40000000  0.16666667       0.027
   0.00000000  0.00000000  0.33333333       0.013
   0.20000000  0.00000000  0.33333333       0.027
   0.40000000  0.00000000  0.33333333       0.027
   0.00000000  0.20000000  0.33333333       0.027
   0.20000000  0.20000000  0.33333333       0.027
   0.40000000  0.20000000  0.33333333       0.027
  -0.40000000  0.20000000  0.33333333       0.027
  -0.20000000  0.20000000  0.33333333       0.027
   0.00000000  0.40000000  0.33333333       0.027
   0.20000000  0.40000000  0.33333333       0.027
   0.40000000  0.40000000  0.33333333       0.027
  -0.40000000  0.40000000  0.33333333       0.027
  -0.20000000  0.40000000  0.33333333       0.027
   0.00000000  0.00000000  0.50000000       0.007
   0.20000000  0.00000000  0.50000000       0.013
   0.40000000  0.00000000  0.50000000       0.013
   0.00000000  0.20000000  0.50000000       0.013
   0.20000000  0.20000000  0.50000000       0.013
   0.40000000  0.20000000  0.50000000       0.013
  -0.40000000  0.20000000  0.50000000       0.013
  -0.20000000  0.20000000  0.50000000       0.013
   0.00000000  0.40000000  0.50000000       0.013
   0.20000000  0.40000000  0.50000000       0.013
   0.40000000  0.40000000  0.50000000       0.013
  -0.40000000  0.40000000  0.50000000       0.013
  -0.20000000  0.40000000  0.50000000       0.013
 
 position of ions in fractional coordinates (direct lattice) 
   0.00000000  0.00000000  0.00000000
   0.00000000  0.00000000  0.50000000
   0.00000000  0.33333333  0.00000000
   0.00000000  0.33333333  0.50000000
   0.00000000  0.66666667  0.00000000
   0.00000000  0.66666667  0.50000000
   0.33333333  0.00000000  0.00000000
   0.33333333  0.00000000  0.50000000
   0.33333333  0.33333333  0.00000000
   0.33333333  0.33333333  0.50000000
   0.33333333  0.66666667  0.00000000
   0.33333333  0.66666667  0.50000000
   0.66666667  0.00000000  0.00000000
   0.66666667  0.00000000  0.50000000
   0.66666667  0.33333333  0.00000000
   0.66666667  0.33333333  0.50000000
   0.66666667  0.66666667  0.00000000
   0.66666667  0.66666667  0.50000000
   0.16666667  0.16666667  0.25000000
   0.16666667  0.16666667  0.75000000
   0.16666667  0.50000000  0.25000000
   0.16666667  0.50000000  0.75000000
   0.16666667  0.83333333  0.25000000
   0.16666667  0.83333333  0.75000000
   0.50000000  0.16666667  0.25000000
   0.50000000  0.16666667  0.75000000
   0.50000000  0.50000000  0.25000000
   0.50000000  0.50000000  0.75000000
   0.50000000  0.83333333  0.25000000
   0.50000000  0.83333333  0.75000000
   0.83333333  0.16666667  0.25000000
   0.83333333  0.16666667  0.75000000
   0.83333333  0.50000000  0.25000000
   0.83333333  0.50000000  0.75000000
   0.83333333  0.83333333  0.25000000
   0.83333333  0.83333333  0.75000000
 
 position of ions in cartesian coordinates  (Angst):
   0.00000000  0.00000000  0.00000000
   0.00000000  0.00000000  3.47663713
   0.00000000  2.75004939  0.00000000
   0.00000000  2.75004939  3.47663713
   0.00000000  5.50009878  0.00000000
   0.00000000  5.50009878  3.47663713
   2.75004939  0.00000000  0.00000000
   2.75004939  0.00000000  3.47663713
   2.75004939  2.75004939  0.00000000
   2.75004939  2.75004939  3.47663713
   2.75004939  5.50009878  0.00000000
   2.75004939  5.50009878  3.47663713
   5.50009878  0.00000000  0.00000000
   5.50009878  0.00000000  3.47663713
   5.50009878  2.75004939  0.00000000
   5.50009878  2.75004939  3.47663713
   5.50009878  5.50009878  0.00000000
   5.50009878  5.50009878  3.47663713
   1.37502469  1.37502469  1.73831857
   1.37502469  1.37502469  5.21495570
   1.37502469  4.12507408  1.73831857
   1.37502469  4.12507408  5.21495570
   1.37502469  6.87512347  1.73831857
   1.37502469  6.87512347  5.21495570
   4.12507408  1.37502469  1.73831857
   4.12507408  1.37502469  5.21495570
   4.12507408  4.12507408  1.73831857
   4.12507408  4.12507408  5.21495570
   4.12507408  6.87512347  1.73831857
   4.12507408  6.87512347  5.21495570
   6.87512347  1.37502469  1.73831857
   6.87512347  1.37502469  5.21495570
   6.87512347  4.12507408  1.73831857
   6.87512347  4.12507408  5.21495570
   6.87512347  6.87512347  1.73831857
   6.87512347  6.87512347  5.21495570
 


--------------------------------------------------------------------------------------------------------


 k-point  1 :   0.0000 0.0000 0.0000  plane waves:    8799
 k-point  2 :   0.2000 0.0000 0.0000  plane waves:    8753
 k-point  3 :   0.4000 0.0000 0.0000  plane waves:    8757
 k-point  4 :   0.0000 0.2000 0.0000  plane waves:    8753
 k-point  5 :   0.2000 0.2000 0.0000  plane waves:    8767
 k-point  6 :   0.4000 0.2000 0.0000  plane waves:    8761
 k-point  7 :  -0.4000 0.2000 0.0000  plane waves:    8761
 k-point  8 :  -0.2000 0.2000 0.0000  plane waves:    8767
 k-point  9 :   0.0000 0.4000 0.0000  plane waves:    8757
 k-point 10 :   0.2000 0.4000 0.0000  plane waves:    8761
 k-point 11 :   0.4000 0.4000 0.0000  plane waves:    8731
 k-point 12 :  -0.4000 0.4000 0.0000  plane waves:    8731
 k-point 13 :  -0.2000 0.4000 0.0000  plane waves:    8761
 k-point 14 :   0.0000 0.0000 0.1667  plane waves:    8763
 k-point 15 :   0.2000 0.0000 0.1667  plane waves:    8771
 k-point 16 :   0.4000 0.0000 0.1667  plane waves:    8747
 k-point 17 :   0.0000 0.2000 0.1667  plane waves:    8771
 k-point 18 :   0.2000 0.2000 0.1667  plane waves:    8764
 k-point 19 :   0.4000 0.2000 0.1667  plane waves:    8768
 k-point 20 :  -0.4000 0.2000 0.1667  plane waves:    8768
 k-point 21 :  -0.2000 0.2000 0.1667  plane waves:    8764
 k-point 22 :   0.0000 0.4000 0.1667  plane waves:    8747
 k-point 23 :   0.2000 0.4000 0.1667  plane waves:    8768
 k-point 24 :   0.4000 0.4000 0.1667  plane waves:    8740
 k-point 25 :  -0.4000 0.4000 0.1667  plane waves:    8740
 k-point 26 :  -0.2000 0.4000 0.1667  plane waves:    8768
 k-point 27 :   0.0000 0.0000 0.3333  plane waves:    8743
 k-point 28 :   0.2000 0.0000 0.3333  plane waves:    8736
 k-point 29 :   0.4000 0.0000 0.3333  plane waves:    8753
 k-point 30 :   0.0000 0.2000 0.3333  plane waves:    8736
 k-point 31 :   0.2000 0.2000 0.3333  plane waves:    8753
 k-point 32 :   0.4000 0.2000 0.3333  plane waves:    8743
 k-point 33 :  -0.4000 0.2000 0.3333  plane waves:    8743
 k-point 34 :  -0.2000 0.2000 0.3333  plane waves:    8753
 k-point 35 :   0.0000 0.4000 0.3333  plane waves:    8753
 k-point 36 :   0.2000 0.4000 0.3333  plane waves:    8743
 k-point 37 :   0.4000 0.4000 0.3333  plane waves:    8755
 k-point 38 :  -0.4000 0.4000 0.3333  plane waves:    8755
 k-point 39 :  -0.2000 0.4000 0.3333  plane waves:    8743
 k-point 40 :   0.0000 0.0000 0.5000  plane waves:    8742
 k-point 41 :   0.2000 0.0000 0.5000  plane waves:    8756
 k-point 42 :   0.4000 0.0000 0.5000  plane waves:    8744
 k-point 43 :   0.0000 0.2000 0.5000  plane waves:    8756
 k-point 44 :   0.2000 0.2000 0.5000  plane waves:    8762
 k-point 45 :   0.4000 0.2000 0.5000  plane waves:    8732
 k-point 46 :  -0.4000 0.2000 0.5000  plane waves:    8732
 k-point 47 :  -0.2000 0.2000 0.5000  plane waves:    8762
 k-point 48 :   0.0000 0.4000 0.5000  plane waves:    8744
 k-point 49 :   0.2000 0.4000 0.5000  plane waves:    8732
 k-point 50 :   0.4000 0.4000 0.5000  plane waves:    8736
 k-point 51 :  -0.4000 0.4000 0.5000  plane waves:    8736
 k-point 52 :  -0.2000 0.4000 0.5000  plane waves:    8732

 maximum and minimum number of plane-waves per node :      2210     2164

 maximum number of plane-waves:      8799
 maximum index in each direction: 
   IXMAX=   13   IYMAX=   13   IZMAX=   11
   IXMIN=  -13   IYMIN=  -13   IZMIN=  -11


 parallel 3D FFT for wavefunctions:
    minimum data exchange during FFTs selected (reduces bandwidth)
 parallel 3D FFT for charge:
    minimum data exchange during FFTs selected (reduces bandwidth)


 total amount of memory used by VASP MPI-rank0   705355. kBytes
=======================================================================

   base      :      30000. kBytes
   nonl-proj :      34307. kBytes
   fftplans  :      21726. kBytes
   grid      :      14732. kBytes
   one-center:        279. kBytes
   wavefun   :     604311. kBytes
 
     INWAV:  cpu time    0.0001: real time    0.0001
 Broyden mixing: mesh for mixing (old mesh)
   NGX = 27   NGY = 27   NGZ = 23
  (NGX  =108   NGY  =108   NGZ  = 96)
  gives a total of  16767 points

 initial charge density was supplied:
 charge density of overlapping atoms calculated
 number of electron     180.0000000 magnetization     -12.0000000
 keeping initial charge density in first step


--------------------------------------------------------------------------------------------------------


 Maximum index for augmentation-charges        11261 (set IRDMAX)


--------------------------------------------------------------------------------------------------------


 First call to EWALD:  gamma=   0.227
 Maximum number of real-space cells 3x 3x 3
 Maximum number of reciprocal cells 3x 3x 3

    FEWALD:  cpu time    0.0055: real time    0.0055


--------------------------------------- Iteration      1(   1)  ---------------------------------------


    POTLOK:  cpu time    0.2533: real time    0.2533
    SETDIJ:  cpu time    0.3194: real time    0.3194
    TRIAL :  cpu time   17.1140: real time   17.1991
    CORREC:  cpu time    0.0057: real time    0.0066
    --------------------------------------------
      LOOP:  cpu time   17.8950: real time   17.9894

 eigenvalue-minimisations  : 21632
 total energy-change (2. order) : 0.1369871E+04  (-0.5769449E+04)
 number of electron     180.0000000 magnetization     -12.0000000
 augmentation part      180.0000000 magnetization     -12.0000000

 Free energy of the ion-electron system (eV)
  ---------------------------------------------------
  alpha Z        PSCENC =       532.25742704
  Ewald energy   TEWEN  =     -8601.05107233
  -Hartree energ DENC   =     -1903.73857242
  -exchange      EXHF   =         0.00000000
  -V(xc)+E(xc)   XCENC  =      -664.60702757
  PAW double counting   =      8494.55058411    -7650.81563588
  entropy T*S    EENTRO =         0.00360014
  eigenvalues    EBANDS =      2698.15569165
  atomic energy  EATOM  =      8465.11600846
  ---------------------------------------------------
  free energy    TOTEN  =      1369.87100320 eV

  energy without entropy =     1369.86740306  energy(sigma->0) =     1369.86980316


--------------------------------------------------------------------------------------------------------




--------------------------------------- Iteration      1(   2)  ---------------------------------------


    TRIAL :  cpu time   17.5924: real time   17.7524
    CORREC:  cpu time    0.0079: real time    0.0080
    --------------------------------------------
      LOOP:  cpu time   17.6015: real time   17.7638

 eigenvalue-minimisations  : 21632
 total energy-change (2. order) :-0.1405395E+04  (-0.1385738E+04)
 number of electron     180.0000000 magnetization     -12.0000000
 augmentation part      180.0000000 magnetization     -12.0000000

 Free energy of the ion-electron system (eV)
  ---------------------------------------------------
  alpha Z        PSCENC =       532.25742704
  Ewald energy   TEWEN  =     -8601.05107233
  -Hartree energ DENC   =     -1903.73857242
  -exchange      EXHF   =         0.00000000
  -V(xc)+E(xc)   XCENC  =      -664.60702757
  PAW double counting   =      8494.55058411    -7650.81563588
  entropy T*S    EENTRO =        -0.00066715
  eigenvalues    EBANDS =      1292.76509028
  atomic energy  EATOM  =      8465.11600846
  ---------------------------------------------------
  free energy    TOTEN  =       -35.52386546 eV

  energy without entropy =      -35.52319831  energy(sigma->0) =      -35.52364308


--------------------------------------------------------------------------------------------------------




--------------------------------------- Iteration      1(   3)  ---------------------------------------


    TRIAL :  cpu time   24.0611: real time   24.3621
    CORREC:  cpu time    0.0090: real time    0.0099
    --------------------------------------------
      LOOP:  cpu time   24.0710: real time   24.3753

 eigenvalue-minimisations  : 33632
 total energy-change (2. order) :-0.1963312E+03  (-0.1826420E+03)
 number of electron     180.0000000 magnetization     -12.0000000
 augmentation part      180.0000000 magnetization     -12.0000000

 Free energy of the ion-electron system (eV)
  ---------------------------------------------------
  alpha Z        PSCENC =       532.25742704
  Ewald energy   TEWEN  =     -8601.05107233
  -Hartree energ DENC   =     -1903.73857242
  -exchange      EXHF   =         0.00000000
  -V(xc)+E(xc)   XCENC  =      -664.60702757
  PAW double counting   =      8494.55058411    -7650.81563588
  entropy T*S    EENTRO =        -0.00488443
  eigenvalues    EBANDS =      1096.43808901
  atomic energy  EATOM  =      8465.11600846
  ---------------------------------------------------
  free energy    TOTEN  =      -231.85508401 eV

  energy without entropy =     -231.85019958  energy(sigma->0) =     -231.85345586


--------------------------------------------------------------------------------------------------------




--------------------------------------- Iteration      1(   4)  ---------------------------------------


    TRIAL :  cpu time   25.4919: real time   25.7001
    CORREC:  cpu time    0.0098: real time    0.0099
    --------------------------------------------
      LOOP:  cpu time   25.5047: real time   25.7131

 eigenvalue-minimisations  : 35896
 total energy-change (2. order) :-0.3280435E+02  (-0.3020092E+02)
 number of electron     180.0000000 magnetization     -12.0000000
 augmentation part      180.0000000 magnetization     -12.0000000

 Free energy of the ion-electron system (eV)
  ---------------------------------------------------
  alpha Z        PSCENC =       532.25742704
  Ewald energy   TEWEN  =     -8601.05107233
  -Hartree energ DENC   =     -1903.73857242
  -exchange      EXHF   =         0.00000000
  -V(xc)+E(xc)   XCENC  =      -664.60702757
  PAW double counting   =      8494.55058411    -7650.81563588
  entropy T*S    EENTRO =         0.00576757
  eigenvalues    EBANDS =      1063.62308204
  atomic energy  EATOM  =      8465.11600846
  ---------------------------------------------------
  free energy    TOTEN  =      -264.65943898 eV

  energy without entropy =     -264.66520655  energy(sigma->0) =     -264.66136150


--------------------------------------------------------------------------------------------------------




--------------------------------------- Iteration      1(   5)  ---------------------------------------


    TRIAL :  cpu time   26.4426: real time   26.6901
    CORREC:  cpu time    0.0098: real time    0.0105
    --------------------------------------------
      LOOP:  cpu time   26.4532: real time   26.7037

 eigenvalue-minimisations  : 36776
 total energy-change (2. order) :-0.4268650E+01  (-0.4047020E+01)
 number of electron     180.0000000 magnetization     -12.0000000
 augmentation part      180.0000000 magnetization     -12.0000000

 Free energy of the ion-electron system (eV)
  ---------------------------------------------------
  alpha Z        PSCENC =       532.25742704
  Ewald energy   TEWEN  =     -8601.05107233
  -Hartree energ DENC   =     -1903.73857242
  -exchange      EXHF   =         0.00000000
  -V(xc)+E(xc)   XCENC  =      -664.60702757
  PAW double counting   =      8494.55058411    -7650.81563588
  entropy T*S    EENTRO =         0.00891392
  eigenvalues    EBANDS =      1059.35128526
  atomic energy  EATOM  =      8465.11600846
  ---------------------------------------------------
  free energy    TOTEN  =      -268.92808940 eV

  energy without entropy =     -268.93700332  energy(sigma->0) =     -268.93106071


--------------------------------------------------------------------------------------------------------




--------------------------------------- Iteration      1(   6)  ---------------------------------------


    TRIAL :  cpu time   25.8155: real time   26.0038
    CORREC:  cpu time    0.0102: real time    0.0103
    --------------------------------------------
      LOOP:  cpu time   25.8267: real time   26.0174

 eigenvalue-minimisations  : 36568
 total energy-change (2. order) :-0.5708820E+00  (-0.5454212E+00)
 number of electron     180.0000000 magnetization     -12.0000000
 augmentation part      180.0000000 magnetization     -12.0000000

 Free energy of the ion-electron system (eV)
  ---------------------------------------------------
  alpha Z        PSCENC =       532.25742704
  Ewald energy   TEWEN  =     -8601.05107233
  -Hartree energ DENC   =     -1903.73857242
  -exchange      EXHF   =         0.00000000
  -V(xc)+E(xc)   XCENC  =      -664.60702757
  PAW double counting   =      8494.55058411    -7650.81563588
  entropy T*S    EENTRO =         0.01126445
  eigenvalues    EBANDS =      1058.77805275
  atomic energy  EATOM  =      8465.11600846
  ---------------------------------------------------
  free energy    TOTEN  =      -269.49897139 eV

  energy without entropy =     -269.51023584  energy(sigma->0) =     -269.50272620


--------------------------------------------------------------------------------------------------------




--------------------------------------- Iteration      1(   7)  ---------------------------------------


    TRIAL :  cpu time   26.5197: real time   26.8683
    CORREC:  cpu time    0.0102: real time    0.0102
    --------------------------------------------
      LOOP:  cpu time   26.5307: real time   26.8818

 eigenvalue-minimisations  : 37432
 total energy-change (2. order) :-0.1087759E+00  (-0.1045319E+00)
 number of electron     180.0000000 magnetization     -12.0000000
 augmentation part      180.0000000 magnetization     -12.0000000

 Free energy of the ion-electron system (eV)
  ---------------------------------------------------
  alpha Z        PSCENC =       532.25742704
  Ewald energy   TEWEN  =     -8601.05107233
  -Hartree energ DENC   =     -1903.73857242
  -exchange      EXHF   =         0.00000000
  -V(xc)+E(xc)   XCENC  =      -664.60702757
  PAW double counting   =      8494.55058411    -7650.81563588
  entropy T*S    EENTRO =         0.01262564
  eigenvalues    EBANDS =      1058.66791563
  atomic energy  EATOM  =      8465.11600846
  ---------------------------------------------------
  free energy    TOTEN  =      -269.60774731 eV

  energy without entropy =     -269.62037296  energy(sigma->0) =     -269.61195586


--------------------------------------------------------------------------------------------------------




--------------------------------------- Iteration      1(   8)  ---------------------------------------


    TRIAL :  cpu time   25.4647: real time   25.6286
    CORREC:  cpu time    0.0097: real time    0.0105
    CHARGE:  cpu time    1.0434: real time    1.0441
    --------------------------------------------
      LOOP:  cpu time   26.5197: real time   26.6874

 eigenvalue-minimisations  : 35696
 total energy-change (2. order) :-0.2480512E-01  (-0.2395096E-01)
 number of electron     179.9999997 magnetization      -8.2956254
 augmentation part       42.6075664 magnetization      -4.8638681

 Free energy of the ion-electron system (eV)
  ---------------------------------------------------
  alpha Z        PSCENC =       532.25742704
  Ewald energy   TEWEN  =     -8601.05107233
  -Hartree energ DENC   =     -1903.73857242
  -exchange      EXHF   =         0.00000000
  -V(xc)+E(xc)   XCENC  =      -664.60702757
  PAW double counting   =      8494.55058411    -7650.81563588
  entropy T*S    EENTRO =         0.01315735
  eigenvalues    EBANDS =      1058.64257880
  atomic energy  EATOM  =      8465.11600846
  ---------------------------------------------------
  free energy    TOTEN  =      -269.63255243 eV

  energy without entropy =     -269.64570979  energy(sigma->0) =     -269.63693822


--------------------------------------------------------------------------------------------------------




--------------------------------------- Iteration      1(   9)  ---------------------------------------


    POTLOK:  cpu time    0.2519: real time    0.2523
    SETDIJ:  cpu time    0.3202: real time    0.3208
    TRIAL :  cpu time    8.4425: real time    8.4923
    CORREC:  cpu time    3.2059: real time    3.2729
    CHARGE:  cpu time    1.0383: real time    1.0385
    --------------------------------------------
      LOOP:  cpu time   13.2743: real time   13.3934

 eigenvalue-minimisations  :     0
 total energy-change (2. order) : 0.2082230E+03  (-0.1450448E+03)
 number of electron     179.9999997 magnetization      -8.6024327
 augmentation part       54.0038186 magnetization      -5.6243777

 Free energy of the ion-electron system (eV)
  ---------------------------------------------------
  alpha Z        PSCENC =       532.25742704
  Ewald energy   TEWEN  =     -8601.05107233
  -Hartree energ DENC   =      -844.86650429
  -exchange      EXHF   =         0.00000000
  -V(xc)+E(xc)   XCENC  =      -694.64827335
  PAW double counting   =     12755.39902022   -11808.65624948
  entropy T*S    EENTRO =        -0.00173203
  eigenvalues    EBANDS =       135.02697240
  atomic energy  EATOM  =      8465.11600846
  ---------------------------------------------------
  free energy    TOTEN  =       -61.40951398 eV

  energy without entropy =      -61.40778195  energy(sigma->0) =      -61.40893664


--------------------------------------------------------------------------------------------------------




--------------------------------------- Iteration      1(  10)  ---------------------------------------


    POTLOK:  cpu time    0.2479: real time    0.2480
    SETDIJ:  cpu time    0.3285: real time    0.3288
    TRIAL :  cpu time    8.9973: real time    9.0499
    CORREC:  cpu time    3.1746: real time    3.1815
    CHARGE:  cpu time    1.0403: real time    1.0406
    --------------------------------------------
      LOOP:  cpu time   13.7917: real time   13.8521

 eigenvalue-minimisations  :     0
 total energy-change (2. order) :-0.1446804E+03  (-0.1097750E+02)
 number of electron     179.9999996 magnetization      -8.6763980
 augmentation part       57.4457828 magnetization      -5.8847106

 Free energy of the ion-electron system (eV)
  ---------------------------------------------------
  alpha Z        PSCENC =       532.25742704
  Ewald energy   TEWEN  =     -8601.05107233
  -Hartree energ DENC   =     -1353.43816367
  -exchange      EXHF   =         0.00000000
  -V(xc)+E(xc)   XCENC  =      -677.45337608
  PAW double counting   =     13537.11837538   -12701.59914602
  entropy T*S    EENTRO =        -0.00707517
  eigenvalues    EBANDS =       592.96178695
  atomic energy  EATOM  =      8465.11600846
  ---------------------------------------------------
  free energy    TOTEN  =      -206.08989231 eV

  energy without entropy =     -206.08281715  energy(sigma->0) =     -206.08753392


--------------------------------------------------------------------------------------------------------




--------------------------------------- Iteration      1(  11)  ---------------------------------------


    POTLOK:  cpu time    0.2485: real time    0.2485
    SETDIJ:  cpu time    0.3167: real time    0.3232
    TRIAL :  cpu time    8.4112: real time    8.6132
    CORREC:  cpu time    3.2422: real time    3.2556
    CHARGE:  cpu time    1.0434: real time    1.0436
    --------------------------------------------
      LOOP:  cpu time   13.2695: real time   13.4928

 eigenvalue-minimisations  :     0
 total energy-change (2. order) :-0.1103505E+02  (-0.7856626E+01)
 number of electron     179.9999996 magnetization      -8.8633612
 augmentation part       59.0474746 magnetization      -6.1450328

 Free energy of the ion-electron system (eV)
  ---------------------------------------------------
  alpha Z        PSCENC =       532.25742704
  Ewald energy   TEWEN  =     -8601.05107233
  -Hartree energ DENC   =     -1545.25767744
  -exchange      EXHF   =         0.00000000
  -V(xc)+E(xc)   XCENC  =      -670.55855192
  PAW double counting   =     14350.13468171   -13550.62964876
  entropy T*S    EENTRO =        -0.00475823
  eigenvalues    EBANDS =       802.87096191
  atomic energy  EATOM  =      8465.11600846
  ---------------------------------------------------
  free energy    TOTEN  =      -217.12494649 eV

  energy without entropy =     -217.12018827  energy(sigma->0) =     -217.12336042


--------------------------------------------------------------------------------------------------------




--------------------------------------- Iteration      1(  12)  ---------------------------------------


    POTLOK:  cpu time    0.2498: real time    0.2499
    SETDIJ:  cpu time    0.3211: real time    0.3212
    TRIAL :  cpu time    8.4395: real time    8.5135
    CORREC:  cpu time    3.2238: real time    3.2410
    CHARGE:  cpu time    1.0393: real time    1.0533
    --------------------------------------------
      LOOP:  cpu time   13.2873: real time   13.3942

 eigenvalue-minimisations  :     0
 total energy-change (2. order) :-0.7849449E+01  (-0.7637646E+01)
 number of electron     179.9999996 magnetization      -8.8807094
 augmentation part       58.4062520 magnetization      -6.2011372

 Free energy of the ion-electron system (eV)
  ---------------------------------------------------
  alpha Z        PSCENC =       532.25742704
  Ewald energy   TEWEN  =     -8601.05107233
  -Hartree energ DENC   =     -1681.36679421
  -exchange      EXHF   =         0.00000000
  -V(xc)+E(xc)   XCENC  =      -666.06474677
  PAW double counting   =     14488.95431939   -13695.71581673
  entropy T*S    EENTRO =        -0.00738995
  eigenvalues    EBANDS =       932.90103772
  atomic energy  EATOM  =      8465.11600846
  ---------------------------------------------------
  free energy    TOTEN  =      -224.97439567 eV

  energy without entropy =     -224.96700572  energy(sigma->0) =     -224.97193235


--------------------------------------------------------------------------------------------------------




--------------------------------------- Iteration      1(  13)  ---------------------------------------


    POTLOK:  cpu time    0.2487: real time    0.2488
    SETDIJ:  cpu time    0.3203: real time    0.3205
    TRIAL :  cpu time    8.4701: real time    8.5458
    CORREC:  cpu time    3.2054: real time    3.2303
    CHARGE:  cpu time    1.0400: real time    1.0406
    --------------------------------------------
      LOOP:  cpu time   13.2891: real time   13.3916

 eigenvalue-minimisations  :     0
 total energy-change (2. order) :-0.7588184E+01  (-0.1199873E+01)
 number of electron     179.9999997 magnetization      -8.8928088
 augmentation part       57.4320292 magnetization      -6.1506465

 Free energy of the ion-electron system (eV)
  ---------------------------------------------------
  alpha Z        PSCENC =       532.25742704
  Ewald energy   TEWEN  =     -8601.05107233
  -Hartree energ DENC   =     -1705.94747405
  -exchange      EXHF   =         0.00000000
  -V(xc)+E(xc)   XCENC  =      -665.69217588
  PAW double counting   =     14262.34963638   -13445.35334381
  entropy T*S    EENTRO =        -0.00493754
  eigenvalues    EBANDS =       925.76580416
  atomic energy  EATOM  =      8465.11600846
  ---------------------------------------------------
  free energy    TOTEN  =      -232.56257998 eV

  energy without entropy =     -232.55764244  energy(sigma->0) =     -232.56093414


--------------------------------------------------------------------------------------------------------




--------------------------------------- Iteration      1(  14)  ---------------------------------------


    POTLOK:  cpu time    0.2489: real time    0.2490
    SETDIJ:  cpu time    0.3179: real time    0.3180
    TRIAL :  cpu time    8.7600: real time    8.8714
    CORREC:  cpu time    3.4948: real time    3.5161
    CHARGE:  cpu time    1.0256: real time    1.0259
    --------------------------------------------
      LOOP:  cpu time   13.8493: real time   13.9855

 eigenvalue-minimisations  :     0
 total energy-change (2. order) :-0.1185108E+01  (-0.7128783E+00)
 number of electron     179.9999996 magnetization      -8.7706960
 augmentation part       57.1831490 magnetization      -6.0258315

 Free energy of the ion-electron system (eV)
  ---------------------------------------------------
  alpha Z        PSCENC =       532.25742704
  Ewald energy   TEWEN  =     -8601.05107233
  -Hartree energ DENC   =     -1658.93316014
  -exchange      EXHF   =         0.00000000
  -V(xc)+E(xc)   XCENC  =      -667.50194506
  PAW double counting   =     13962.55397303   -13130.84676314
  entropy T*S    EENTRO =        -0.00266557
  eigenvalues    EBANDS =       864.66278146
  atomic energy  EATOM  =      8465.11600846
  ---------------------------------------------------
  free energy    TOTEN  =      -233.74768822 eV

  energy without entropy =     -233.74502265  energy(sigma->0) =     -233.74679970


--------------------------------------------------------------------------------------------------------




--------------------------------------- Iteration      1(  15)  ---------------------------------------


    POTLOK:  cpu time    0.2495: real time    0.2497
    SETDIJ:  cpu time    0.3162: real time    0.3164
    TRIAL :  cpu time    8.4307: real time    8.5698
    CORREC:  cpu time    3.1910: real time    3.2491
    CHARGE:  cpu time    1.0461: real time    1.0465
    --------------------------------------------
      LOOP:  cpu time   13.2472: real time   13.4464

 eigenvalue-minimisations  :     0
 total energy-change (2. order) :-0.7115284E+00  (-0.6774888E+00)
 number of electron     179.9999996 magnetization      -8.8203955
 augmentation part       57.5944834 magnetization      -6.0122805

 Free energy of the ion-electron system (eV)
  ---------------------------------------------------
  alpha Z        PSCENC =       532.25742704
  Ewald energy   TEWEN  =     -8601.05107233
  -Hartree energ DENC   =     -1639.71091024
  -exchange      EXHF   =         0.00000000
  -V(xc)+E(xc)   XCENC  =      -668.25445144
  PAW double counting   =     13518.86282674   -12681.37673136
  entropy T*S    EENTRO =        -0.00087692
  eigenvalues    EBANDS =       839.70035212
  atomic energy  EATOM  =      8465.11600846
  ---------------------------------------------------
  free energy    TOTEN  =      -234.45921658 eV

  energy without entropy =     -234.45833966  energy(sigma->0) =     -234.45892427


--------------------------------------------------------------------------------------------------------




--------------------------------------- Iteration      1(  16)  ---------------------------------------


    POTLOK:  cpu time    0.2481: real time    0.2482
    SETDIJ:  cpu time    0.3358: real time    0.3358
    TRIAL :  cpu time    8.4387: real time    8.4744
    CORREC:  cpu time    3.1624: real time    3.2090
    CHARGE:  cpu time    1.0422: real time    1.0424
    --------------------------------------------
      LOOP:  cpu time   13.2506: real time   13.3339

 eigenvalue-minimisations  :     0
 total energy-change (2. order) :-0.6758504E+00  (-0.2171476E+00)
 number of electron     179.9999996 magnetization      -8.7532020
 augmentation part       58.0194992 magnetization      -6.0109017

 Free energy of the ion-electron system (eV)
  ---------------------------------------------------
  alpha Z        PSCENC =       532.25742704
  Ewald energy   TEWEN  =     -8601.05107233
  -Hartree energ DENC   =     -1651.62193970
  -exchange      EXHF   =         0.00000000
  -V(xc)+E(xc)   XCENC  =      -667.83844228
  PAW double counting   =     13118.38337533   -12282.67953256
  entropy T*S    EENTRO =         0.00227291
  eigenvalues    EBANDS =       852.29998603
  atomic energy  EATOM  =      8465.11600846
  ---------------------------------------------------
  free energy    TOTEN  =      -235.13506693 eV

  energy without entropy =     -235.13733984  energy(sigma->0) =     -235.13582457


--------------------------------------------------------------------------------------------------------




--------------------------------------- Iteration      1(  17)  ---------------------------------------


    POTLOK:  cpu time    0.2492: real time    0.2493
    SETDIJ:  cpu time    0.3200: real time    0.3200
    TRIAL :  cpu time    8.4710: real time    8.5056
    CORREC:  cpu time    3.1977: real time    3.2145
    CHARGE:  cpu time    1.0402: real time    1.0514
    --------------------------------------------
      LOOP:  cpu time   13.2859: real time   13.3496

 eigenvalue-minimisations  :     0
 total energy-change (2. order) :-0.2171542E+00  (-0.2154736E+00)
 number of electron     179.9999996 magnetization      -8.7871469
 augmentation part       58.2761575 magnetization      -6.0829756

 Free energy of the ion-electron system (eV)
  ---------------------------------------------------
  alpha Z        PSCENC =       532.25742704
  Ewald energy   TEWEN  =     -8601.05107233
  -Hartree energ DENC   =     -1670.11284168
  -exchange      EXHF   =         0.00000000
  -V(xc)+E(xc)   XCENC  =      -667.10027703
  PAW double counting   =     13027.68512590   -12196.12018751
  entropy T*S    EENTRO =         0.00337708
  eigenvalues    EBANDS =       873.97132310
  atomic energy  EATOM  =      8465.11600846
  ---------------------------------------------------
  free energy    TOTEN  =      -235.35222115 eV

  energy without entropy =     -235.35559823  energy(sigma->0) =     -235.35334684


--------------------------------------------------------------------------------------------------------




--------------------------------------- Iteration      1(  18)  ---------------------------------------


    POTLOK:  cpu time    0.2435: real time    0.2591
    SETDIJ:  cpu time    0.3401: real time    0.3401
    TRIAL :  cpu time    8.4548: real time    8.5291
    CORREC:  cpu time    3.1783: real time    3.2250
    CHARGE:  cpu time    1.0242: real time    1.0461
    --------------------------------------------
      LOOP:  cpu time   13.2447: real time   13.4040

 eigenvalue-minimisations  :     0
 total energy-change (2. order) :-0.2155278E+00  (-0.1741866E+00)
 number of electron     179.9999996 magnetization      -8.7634088
 augmentation part       58.1171122 magnetization      -6.1160453

 Free energy of the ion-electron system (eV)
  ---------------------------------------------------
  alpha Z        PSCENC =       532.25742704
  Ewald energy   TEWEN  =     -8601.05107233
  -Hartree energ DENC   =     -1679.77609093
  -exchange      EXHF   =         0.00000000
  -V(xc)+E(xc)   XCENC  =      -666.56361107
  PAW double counting   =     12967.83859391   -12139.10997062
  entropy T*S    EENTRO =         0.00733692
  eigenvalues    EBANDS =       885.71758950
  atomic energy  EATOM  =      8465.11600846
  ---------------------------------------------------
  free energy    TOTEN  =      -235.56774896 eV

  energy without entropy =     -235.57508588  energy(sigma->0) =     -235.57019460


--------------------------------------------------------------------------------------------------------




--------------------------------------- Iteration      1(  19)  ---------------------------------------


    POTLOK:  cpu time    0.2478: real time    0.2478
    SETDIJ:  cpu time    0.3206: real time    0.3206
    TRIAL :  cpu time    9.0862: real time    9.1169
    CORREC:  cpu time    3.1777: real time    3.1930
    CHARGE:  cpu time    0.9958: real time    1.0731
    --------------------------------------------
      LOOP:  cpu time   13.8294: real time   13.9555

 eigenvalue-minimisations  :     0
 total energy-change (2. order) :-0.1733637E+00  (-0.6894130E-01)
 number of electron     179.9999996 magnetization      -8.7884073
 augmentation part       57.9013334 magnetization      -6.1399684

 Free energy of the ion-electron system (eV)
  ---------------------------------------------------
  alpha Z        PSCENC =       532.25742704
  Ewald energy   TEWEN  =     -8601.05107233
  -Hartree energ DENC   =     -1669.11918028
  -exchange      EXHF   =         0.00000000
  -V(xc)+E(xc)   XCENC  =      -666.74009316
  PAW double counting   =     12923.89813814   -12093.60763167
  entropy T*S    EENTRO =         0.00716080
  eigenvalues    EBANDS =       873.49795424
  atomic energy  EATOM  =      8465.11600846
  ---------------------------------------------------
  free energy    TOTEN  =      -235.74111265 eV

  energy without entropy =     -235.74827345  energy(sigma->0) =     -235.74349958


--------------------------------------------------------------------------------------------------------




--------------------------------------- Iteration      1(  20)  ---------------------------------------


    POTLOK:  cpu time    0.2476: real time    0.2480
    SETDIJ:  cpu time    0.3163: real time    0.3165
    TRIAL :  cpu time    8.4145: real time    8.5472
    CORREC:  cpu time    3.2024: real time    3.2292
    CHARGE:  cpu time    1.0574: real time    1.0769
    --------------------------------------------
      LOOP:  cpu time   13.2404: real time   13.4214

 eigenvalue-minimisations  :     0
 total energy-change (2. order) :-0.6888901E-01  (-0.8963758E-01)
 number of electron     179.9999996 magnetization      -8.7843386
 augmentation part       57.7453834 magnetization      -6.1604263

 Free energy of the ion-electron system (eV)
  ---------------------------------------------------
  alpha Z        PSCENC =       532.25742704
  Ewald energy   TEWEN  =     -8601.05107233
  -Hartree energ DENC   =     -1658.09580437
  -exchange      EXHF   =         0.00000000
  -V(xc)+E(xc)   XCENC  =      -667.05675143
  PAW double counting   =     12907.07494512   -12074.58437613
  entropy T*S    EENTRO =         0.01002495
  eigenvalues    EBANDS =       860.52246120
  atomic energy  EATOM  =      8465.11600846
  ---------------------------------------------------
  free energy    TOTEN  =      -235.81000166 eV

  energy without entropy =     -235.82002661  energy(sigma->0) =     -235.81334331


--------------------------------------------------------------------------------------------------------




--------------------------------------- Iteration      1(  21)  ---------------------------------------


    POTLOK:  cpu time    0.2488: real time    0.2488
    SETDIJ:  cpu time    0.3211: real time    0.3212
    TRIAL :  cpu time    8.4541: real time    8.5167
    CORREC:  cpu time    3.1757: real time    3.1853
    CHARGE:  cpu time    1.0408: real time    1.0418
    --------------------------------------------
      LOOP:  cpu time   13.2552: real time   13.3305

 eigenvalue-minimisations  :     0
 total energy-change (2. order) :-0.8969864E-01  (-0.8519169E-01)
 number of electron     179.9999996 magnetization      -8.8421941
 augmentation part       57.8183019 magnetization      -6.2180227

 Free energy of the ion-electron system (eV)
  ---------------------------------------------------
  alpha Z        PSCENC =       532.25742704
  Ewald energy   TEWEN  =     -8601.05107233
  -Hartree energ DENC   =     -1652.77252367
  -exchange      EXHF   =         0.00000000
  -V(xc)+E(xc)   XCENC  =      -667.13890356
  PAW double counting   =     12912.00579884   -12078.21241137
  entropy T*S    EENTRO =         0.01021263
  eigenvalues    EBANDS =       853.88595134
  atomic energy  EATOM  =      8465.11600846
  ---------------------------------------------------
  free energy    TOTEN  =      -235.89970030 eV

  energy without entropy =     -235.90991292  energy(sigma->0) =     -235.90310451


--------------------------------------------------------------------------------------------------------




--------------------------------------- Iteration      1(  22)  ---------------------------------------


    POTLOK:  cpu time    0.2476: real time    0.2565
    SETDIJ:  cpu time    0.3623: real time    0.3624
    TRIAL :  cpu time    8.4880: real time    8.5361
    CORREC:  cpu time    3.1638: real time    3.1815
    CHARGE:  cpu time    1.0415: real time    1.0418
    --------------------------------------------
      LOOP:  cpu time   13.3060: real time   13.3815

 eigenvalue-minimisations  :     0
 total energy-change (2. order) :-0.8517290E-01  (-0.3647008E-01)
 number of electron     179.9999996 magnetization      -8.8525619
 augmentation part       57.9610021 magnetization      -6.2424765

 Free energy of the ion-electron system (eV)
  ---------------------------------------------------
  alpha Z        PSCENC =       532.25742704
  Ewald energy   TEWEN  =     -8601.05107233
  -Hartree energ DENC   =     -1659.93327634
  -exchange      EXHF   =         0.00000000
  -V(xc)+E(xc)   XCENC  =      -666.78453996
  PAW double counting   =     12945.80192582   -12113.27666341
  entropy T*S    EENTRO =         0.01211006
  eigenvalues    EBANDS =       861.87510490
  atomic energy  EATOM  =      8465.11600846
  ---------------------------------------------------
  free energy    TOTEN  =      -235.98487320 eV

  energy without entropy =     -235.99698325  energy(sigma->0) =     -235.98890988


--------------------------------------------------------------------------------------------------------




--------------------------------------- Iteration      1(  23)  ---------------------------------------


    POTLOK:  cpu time    0.2535: real time    0.2652
    SETDIJ:  cpu time    0.3167: real time    0.3398
    TRIAL :  cpu time    9.3445: real time    9.4263
    CORREC:  cpu time    3.1381: real time    3.1551
    CHARGE:  cpu time    1.0426: real time    1.0442
    --------------------------------------------
[...]
  8.437  14.377   0.000   0.000  -0.000   0.001   0.001  -0.001
 14.377  24.501   0.001   0.000  -0.000   0.002   0.001  -0.001
  0.000   0.001   1.996  -0.000  -0.000   5.748  -0.000  -0.000
  0.000   0.000  -0.000   1.995   0.000  -0.000   5.746   0.000
 -0.000  -0.000  -0.000   0.000   1.996  -0.000   0.000   5.748
  0.001   0.002   5.748  -0.000  -0.000  16.471  -0.000  -0.000
  0.001   0.001  -0.000   5.746   0.000  -0.000  16.467   0.000
 -0.001  -0.001  -0.000   0.000   5.748  -0.000   0.000  16.471
 total augmentation occupancy for first ion, spin component:           1
  4.377  -1.252  -0.000  -0.001   0.002   0.001   0.000  -0.001
 -1.252   0.377   0.000   0.002   0.001  -0.000  -0.000   0.000
 -0.000   0.000   1.410  -0.002  -0.000  -0.101   0.000   0.000
 -0.001   0.002  -0.002   1.509  -0.002  -0.000  -0.102   0.000
  0.002   0.001  -0.000  -0.002   1.421   0.000   0.000  -0.101
  0.001  -0.000  -0.101  -0.000   0.000   0.008   0.000  -0.000
  0.000  -0.000   0.000  -0.102   0.000   0.000   0.007   0.000
 -0.001   0.000   0.000   0.000  -0.101  -0.000   0.000   0.008
 total augmentation occupancy for first ion, spin component:           2
  0.013  -0.003  -0.038  -0.051   0.002   0.001   0.002  -0.000
 -0.003   0.001  -0.004  -0.008   0.000   0.000   0.001  -0.000
 -0.038  -0.004   0.011  -0.002   0.033  -0.000  -0.000  -0.001
 -0.051  -0.008  -0.002   0.003  -0.049  -0.000  -0.000   0.001
  0.002   0.000   0.033  -0.049  -0.002  -0.001   0.001   0.000
  0.001   0.000  -0.000  -0.000  -0.001   0.000   0.000  -0.000
  0.002   0.001  -0.000  -0.000   0.001   0.000   0.000   0.000
 -0.000  -0.000  -0.001   0.001   0.000  -0.000   0.000   0.000


------------------------ aborting loop because EDIFF is reached ----------------------------------------


 


 total charge     
 
# of ion       s       p       d       tot
------------------------------------------
    1        0.405   0.429   0.000   0.833
    2        0.404   0.429   0.000   0.833
    3        0.405   0.427   0.000   0.832
    4        0.405   0.428   0.000   0.832
    5        0.405   0.425   0.000   0.830
    6        0.406   0.424   0.000   0.830
    7        0.405   0.428   0.000   0.833
    8        0.405   0.428   0.000   0.833
    9        0.405   0.426   0.000   0.830
   10        0.405   0.426   0.000   0.831
   11        0.405   0.429   0.000   0.834
   12        0.405   0.429   0.000   0.834
   13        0.405   0.429   0.000   0.835
   14        0.405   0.429   0.000   0.834
   15        0.404   0.429   0.000   0.833
   16        0.405   0.429   0.000   0.833
   17        0.406   0.425   0.000   0.831
   18        0.406   0.425   0.000   0.831
   19        0.332   0.355   5.131   5.818
   20        0.334   0.354   5.134   5.822
   21        0.335   0.357   5.127   5.819
   22        0.332   0.345   5.155   5.832
   23        0.331   0.354   5.138   5.824
   24        0.332   0.360   5.118   5.810
   25        0.332   0.357   5.127   5.816
   26        0.336   0.356   5.122   5.814
   27        0.332   0.354   5.135   5.821
   28        0.333   0.361   5.117   5.810
   29        0.331   0.356   5.136   5.823
   30        0.329   0.348   5.162   5.839
   31        0.336   0.353   5.131   5.820
   32        0.340   0.361   5.106   5.806
   33        0.335   0.353   5.134   5.822
   34        0.333   0.353   5.140   5.825
   35        0.335   0.351   5.136   5.822
   36        0.335   0.357   5.120   5.813
--------------------------------------------------
tot         13.294  14.076  92.369 119.740
 


 magnetization (x)
 
# of ion       s       p       d       tot
------------------------------------------
    1        0.002   0.001   0.000   0.003
    2        0.002   0.002   0.000   0.003
    3        0.005   0.010   0.000   0.016
    4        0.005   0.011   0.000   0.016
    5        0.013   0.027   0.000   0.040
    6        0.013   0.027   0.000   0.040
    7        0.000  -0.001   0.000  -0.001
    8        0.000  -0.001   0.000  -0.001
    9        0.003   0.005   0.000   0.009
   10        0.003   0.005   0.000   0.009
   11        0.007   0.011   0.000   0.018
   12        0.007   0.011   0.000   0.019
   13        0.000   0.001   0.000   0.001
   14        0.001   0.001   0.000   0.001
   15        0.002   0.000   0.000   0.002
   16        0.002   0.000   0.000   0.002
   17        0.010   0.019   0.000   0.028
   18        0.010   0.019   0.000   0.028
   19        0.011   0.014   2.322   2.347
   20       -0.018  -0.016  -2.281  -2.315
   21       -0.028  -0.033  -2.235  -2.296
   22       -0.014   0.002  -2.261  -2.273
   23        0.030   0.034   2.212   2.277
   24       -0.014  -0.032  -2.345  -2.391
   25        0.008   0.021   2.301   2.329
   26       -0.028  -0.028  -2.441  -2.497
   27        0.030   0.035   2.298   2.364
   28       -0.014  -0.032  -2.362  -2.408
   29       -0.021  -0.037  -2.079  -2.137
   30        0.024   0.036   1.756   1.816
   31        0.030   0.011   2.435   2.476
   32        0.039   0.028   2.529   2.596
   33       -0.023  -0.014  -2.364  -2.400
   34       -0.021  -0.018  -2.252  -2.291
   35       -0.026  -0.008  -2.419  -2.453
   36       -0.033  -0.030  -2.453  -2.516
--------------------------------------------------
tot          0.018   0.082  -9.640  -9.540
 
    FORLOC:  cpu time    0.0282: real time    0.0282
    FORNL :  cpu time   12.3382: real time   12.3998
    STRESS:  cpu time   17.4124: real time   17.5483
    FORCOR:  cpu time    0.2691: real time    0.2691
    OFIELD:  cpu time    0.0017: real time    0.0017

  FORCE on cell =-STRESS in cart. coord.  units (eV):
  Direction    XX          YY          ZZ          XY          YZ          ZX
  --------------------------------------------------------------------------------------
  Alpha Z   532.25743   532.25743   532.25743
  Ewald   -2702.40749 -2702.40749 -3196.26924    -0.00000    -0.00000    -0.00000
  Hartree   721.41910   720.69715   224.51179     0.04982    -0.00000    -0.00000
  E(xc)    -760.34489  -760.07907  -760.14033    -0.06219    -0.00000    -0.00000
  Local     247.17490   249.98955  1264.10709    -0.23170    -0.00000    -0.00000
  n-local  -110.96309  -109.41691  -121.07764    -0.39138    -0.04283    -0.08865
  augment   521.79911   520.55336   514.55655     0.19802     0.00001     0.00001
  Kinetic  1556.98897  1555.41387  1541.28891     0.30711     0.62995     0.11717
  Fock        0.00000     0.00000     0.00000     0.00000     0.00000     0.00000
  -------------------------------------------------------------------------------------
  Total       5.92403     7.00788    -0.76544    -0.13032     0.00000     0.00000
  in kB      20.05466    23.72382    -2.59125    -0.44118     0.00000     0.00000
  external pressure =       13.73 kB  Pullay stress =        0.00 kB


 VOLUME and BASIS-vectors are now :
 -----------------------------------------------------------------------------
  energy-cutoff  :      404.80
  volume of cell :      473.27
      direct lattice vectors                 reciprocal lattice vectors
     8.250148166  0.000000000  0.000000000     0.121209944  0.000000000  0.000000000
     0.000000000  8.250148166  0.000000000     0.000000000  0.121209944  0.000000000
     0.000000000  0.000000000  6.953274261     0.000000000  0.000000000  0.143817137

  length of vectors
     8.250148166  8.250148166  6.953274261     0.121209944  0.121209944  0.143817137


 FORCES acting on ions:
    Electron-Ion                     Ewald-Force                    Non-Local-Force
 -----------------------------------------------------------------------------------------------
   0.119E+00 -.121E+00 0.529E-03   -.239E-08 -.239E-08 0.411E-08   -.527E-01 0.452E-01 0.730E-02
   0.119E+00 -.121E+00 -.529E-03   -.239E-08 -.239E-08 0.411E-08   -.527E-01 0.452E-01 -.730E-02
   -.234E-01 0.175E+00 0.672E-01   -.239E-08 -.802E-09 0.411E-08   0.933E-02 0.352E-02 -.469E-01
   -.234E-01 0.175E+00 -.672E-01   -.239E-08 -.802E-09 0.411E-08   0.933E-02 0.352E-02 0.469E-01
   0.305E-01 -.164E-01 -.454E-02   -.239E-08 0.631E-08 0.411E-08   -.778E-01 -.598E-01 -.406E-01
   0.305E-01 -.164E-01 0.454E-02   -.239E-08 0.631E-08 0.411E-08   -.778E-01 -.598E-01 0.406E-01
   -.229E+00 0.191E+00 -.341E-01   -.802E-09 -.239E-08 0.411E-08   0.108E+00 -.894E-01 0.297E-01
   -.229E+00 0.191E+00 0.341E-01   -.802E-09 -.239E-08 0.411E-08   0.108E+00 -.894E-01 -.297E-01
   0.138E+00 -.100E+00 -.592E-01   -.802E-09 -.802E-09 0.411E-08   -.433E-01 0.612E-01 0.154E-01
   0.138E+00 -.100E+00 0.592E-01   -.802E-09 -.802E-09 0.411E-08   -.433E-01 0.612E-01 -.154E-01
   -.111E+00 -.110E+00 -.133E+00   -.802E-09 0.631E-08 0.411E-08   0.376E-01 0.266E-01 0.254E-01
   -.111E+00 -.110E+00 0.133E+00   -.802E-09 0.631E-08 0.411E-08   0.376E-01 0.266E-01 -.254E-01
   0.968E-01 -.204E+00 0.142E+00   0.631E-08 -.239E-08 0.411E-08   -.541E-01 0.523E-01 -.255E-01
   0.968E-01 -.204E+00 -.142E+00   0.631E-08 -.239E-08 0.411E-08   -.541E-01 0.523E-01 0.255E-01
   -.953E-01 0.115E+00 -.128E-01   0.631E-08 -.802E-09 0.411E-08   0.241E-01 -.552E-01 0.507E-02
   -.953E-01 0.115E+00 0.128E-01   0.631E-08 -.802E-09 0.411E-08   0.241E-01 -.552E-01 -.507E-02
   0.623E-01 0.761E-01 -.304E-01   0.631E-08 0.631E-08 0.411E-08   0.454E-01 0.230E-01 0.929E-02
   0.623E-01 0.761E-01 0.304E-01   0.631E-08 0.631E-08 0.411E-08   0.454E-01 0.230E-01 -.929E-02
   0.178E+00 -.504E+00 -.352E-08   -.169E-07 -.169E-07 -.411E-08   -.102E+00 0.458E+00 0.000E+00
   0.306E+00 -.144E+00 -.195E-08   -.169E-07 -.169E-07 -.411E-08   -.295E+00 0.158E+00 0.000E+00
   -.719E+00 0.570E-02 -.329E-08   -.169E-07 0.802E-09 -.411E-08   0.403E+00 0.632E-01 0.000E+00
   -.511E-01 -.810E-01 -.211E-08   -.169E-07 0.802E-09 -.411E-08   0.597E-01 0.955E-01 0.000E+00
   -.264E+00 0.674E+00 -.301E-08   -.169E-07 0.130E-07 -.411E-08   0.254E+00 -.445E+00 0.000E+00
   -.578E+00 0.220E+00 -.489E-08   -.169E-07 0.130E-07 -.411E-08   0.481E+00 -.173E+00 0.000E+00
   -.190E+00 0.616E+00 0.195E-09   0.802E-09 -.169E-07 -.411E-08   0.118E+00 -.451E+00 0.000E+00
   -.317E+00 0.549E+00 -.315E-08   0.802E-09 -.169E-07 -.411E-08   0.135E+00 -.243E+00 0.000E+00
   0.910E-01 -.787E+00 0.302E-09   0.802E-09 0.802E-09 -.411E-08   -.115E+00 0.510E+00 0.000E+00
   0.109E+00 -.591E+00 -.349E-08   0.802E-09 0.802E-09 -.411E-08   -.158E+00 0.370E+00 0.000E+00
   0.704E+00 -.942E-01 0.650E-09   0.802E-09 0.130E-07 -.411E-08   -.391E+00 -.182E-01 0.000E+00
   0.331E+00 0.247E+00 -.594E-08   0.802E-09 0.130E-07 -.411E-08   -.272E+00 -.258E+00 0.000E+00
   -.242E-02 -.851E-01 -.121E-08   0.130E-07 -.169E-07 -.411E-08   0.184E-01 0.529E-01 0.000E+00
   -.540E-01 -.154E-01 -.171E-08   0.130E-07 -.169E-07 -.411E-08   0.302E-01 -.920E-02 0.000E+00
   0.524E+00 0.368E+00 -.129E-08   0.130E-07 0.802E-09 -.411E-08   -.244E+00 -.175E+00 0.000E+00
   -.306E-01 0.442E+00 -.213E-08   0.130E-07 0.802E-09 -.411E-08   0.407E-02 -.356E+00 0.000E+00
   -.484E+00 -.373E+00 -.878E-09   0.130E-07 0.130E-07 -.411E-08   0.260E+00 0.166E+00 0.000E+00
   0.463E+00 -.483E+00 -.471E-08   0.130E-07 0.130E-07 -.411E-08   -.170E+00 0.264E+00 0.000E+00
 -----------------------------------------------------------------------------------------------
   -.869E-02 -.224E-01 -.786E-07   -.197E-14 0.275E-13 0.265E-14   0.888E-02 0.224E-01 0.000E+00
 
 
 POSITION                                       TOTAL-FORCE (eV/Angst)
 -----------------------------------------------------------------------------------
      0.00000      0.00000      0.00000         0.071529     -0.080150      0.006710
      0.00000      0.00000      3.47664         0.071529     -0.080150     -0.006710
      0.00000      2.75005      0.00000        -0.014895      0.179179      0.025093
      0.00000      2.75005      3.47664        -0.014895      0.179179     -0.025093
      0.00000      5.50010      0.00000        -0.039969     -0.070229     -0.040688
      0.00000      5.50010      3.47664        -0.039969     -0.070229      0.040688
      2.75005      0.00000      0.00000        -0.130463      0.109384     -0.006844
      2.75005      0.00000      3.47664        -0.130463      0.109384      0.006844
      2.75005      2.75005      0.00000         0.099964     -0.044807     -0.043995
      2.75005      2.75005      3.47664         0.099964     -0.044807      0.043995
      2.75005      5.50010      0.00000        -0.076142     -0.084913     -0.109400
      2.75005      5.50010      3.47664        -0.076142     -0.084913      0.109400
      5.50010      0.00000      0.00000         0.046264     -0.157243      0.118851
      5.50010      0.00000      3.47664         0.046264     -0.157243     -0.118851
      5.50010      2.75005      0.00000        -0.074584      0.064966     -0.008499
      5.50010      2.75005      3.47664        -0.074584      0.064966      0.008499
      5.50010      5.50010      0.00000         0.102316      0.097764     -0.022010
      5.50010      5.50010      3.47664         0.102316      0.097764      0.022010
      1.37502      1.37502      1.73832         0.079915     -0.049335      0.000000
      1.37502      1.37502      5.21496         0.006647      0.012391      0.000000
      1.37502      4.12507      1.73832        -0.330712      0.073581      0.000000
      1.37502      4.12507      5.21496         0.005446      0.015842      0.000000
      1.37502      6.87512      1.73832        -0.010394      0.238294      0.000000
      1.37502      6.87512      5.21496        -0.106266      0.047887      0.000000
      4.12507      1.37502      1.73832        -0.076631      0.174407      0.000000
      4.12507      1.37502      5.21496        -0.177033      0.316859      0.000000
      4.12507      4.12507      1.73832        -0.026489     -0.292807      0.000000
      4.12507      4.12507      5.21496        -0.047217     -0.230312      0.000000
      4.12507      6.87512      1.73832         0.322387     -0.120108      0.000000
      4.12507      6.87512      5.21496         0.065523     -0.004914      0.000000
      6.87512      1.37502      1.73832         0.014877     -0.034325      0.000000
      6.87512      1.37502      5.21496        -0.027126     -0.028067      0.000000
      6.87512      4.12507      1.73832         0.291456      0.198512      0.000000
      6.87512      4.12507      5.21496        -0.023483      0.094852      0.000000
      6.87512      6.87512      1.73832        -0.234104     -0.214252      0.000000
      6.87512      6.87512      5.21496         0.305163     -0.226405      0.000000
 -----------------------------------------------------------------------------------
    total drift:                                0.000184      0.000072     -0.000000


--------------------------------------------------------------------------------------------------------



  FREE ENERGIE OF THE ION-ELECTRON SYSTEM (eV)
  ---------------------------------------------------
  free  energy   TOTEN  =      -236.24590376 eV

  energy  without entropy=     -236.26536366  energy(sigma->0) =     -236.25239039
 


--------------------------------------------------------------------------------------------------------


    POTLOK:  cpu time    1.5430: real time    1.5433


--------------------------------------------------------------------------------------------------------


     LOOP+:  cpu time 1464.0146: real time 1477.2941
    4ORBIT:  cpu time    0.0000: real time    0.0000
 


 total charge     
 
# of ion       s       p       d       tot
------------------------------------------
    1        0.405   0.429   0.000   0.833
    2        0.404   0.429   0.000   0.833
    3        0.405   0.427   0.000   0.832
    4        0.405   0.428   0.000   0.832
    5        0.405   0.425   0.000   0.830
    6        0.406   0.424   0.000   0.830
    7        0.405   0.428   0.000   0.833
    8        0.405   0.428   0.000   0.833
    9        0.405   0.426   0.000   0.830
   10        0.405   0.426   0.000   0.831
   11        0.405   0.429   0.000   0.834
   12        0.405   0.429   0.000   0.834
   13        0.405   0.429   0.000   0.835
   14        0.405   0.429   0.000   0.834
   15        0.404   0.429   0.000   0.833
   16        0.405   0.429   0.000   0.833
   17        0.406   0.425   0.000   0.831
   18        0.406   0.425   0.000   0.831
   19        0.332   0.355   5.131   5.818
   20        0.334   0.354   5.134   5.822
   21        0.335   0.357   5.127   5.819
   22        0.332   0.345   5.155   5.832
   23        0.331   0.354   5.138   5.824
   24        0.332   0.360   5.118   5.810
   25        0.332   0.357   5.127   5.816
   26        0.336   0.356   5.122   5.814
   27        0.332   0.354   5.135   5.821
   28        0.333   0.361   5.117   5.810
   29        0.331   0.356   5.136   5.823
   30        0.329   0.348   5.162   5.839
   31        0.336   0.353   5.131   5.820
   32        0.340   0.361   5.106   5.806
   33        0.335   0.353   5.134   5.822
   34        0.333   0.353   5.140   5.825
   35        0.335   0.351   5.136   5.822
   36        0.335   0.357   5.120   5.813
--------------------------------------------------
tot         13.294  14.076  92.369 119.740
 


 magnetization (x)
 
# of ion       s       p       d       tot
------------------------------------------
    1        0.002   0.001   0.000   0.003
    2        0.002   0.002   0.000   0.003
    3        0.005   0.010   0.000   0.016
    4        0.005   0.011   0.000   0.016
    5        0.013   0.027   0.000   0.040
    6        0.013   0.027   0.000   0.040
    7        0.000  -0.001   0.000  -0.001
    8        0.000  -0.001   0.000  -0.001
    9        0.003   0.005   0.000   0.009
   10        0.003   0.005   0.000   0.009
   11        0.007   0.011   0.000   0.018
   12        0.007   0.011   0.000   0.019
   13        0.000   0.001   0.000   0.001
   14        0.001   0.001   0.000   0.001
   15        0.002   0.000   0.000   0.002
   16        0.002   0.000   0.000   0.002
   17        0.010   0.019   0.000   0.028
   18        0.010   0.019   0.000   0.028
   19        0.011   0.014   2.322   2.347
   20       -0.018  -0.016  -2.281  -2.315
   21       -0.028  -0.033  -2.235  -2.296
   22       -0.014   0.002  -2.261  -2.273
   23        0.030   0.034   2.212   2.277
   24       -0.014  -0.032  -2.345  -2.391
   25        0.008   0.021   2.301   2.329
   26       -0.028  -0.028  -2.441  -2.497
   27        0.030   0.035   2.298   2.364
   28       -0.014  -0.032  -2.362  -2.408
   29       -0.021  -0.037  -2.079  -2.137
   30        0.024   0.036   1.756   1.816
   31        0.030   0.011   2.435   2.476
   32        0.039   0.028   2.529   2.596
   33       -0.023  -0.014  -2.364  -2.400
   34       -0.021  -0.018  -2.252  -2.291
   35       -0.026  -0.008  -2.419  -2.453
   36       -0.033  -0.030  -2.453  -2.516
--------------------------------------------------
tot          0.018   0.082  -9.640  -9.540
 

 total amount of memory used by VASP MPI-rank0   705355. kBytes
=======================================================================

   base      :      30000. kBytes
   nonl-proj :      34307. kBytes
   fftplans  :      21726. kBytes
   grid      :      14732. kBytes
   one-center:        279. kBytes
   wavefun   :     604311. kBytes
 
  
  
 General timing and accounting informations for this job:
 ========================================================
  
                  Total CPU time used (sec):     1488.213
                            User time (sec):     1462.880
                          System time (sec):       25.333
                         Elapsed time (sec):     1503.953
  
                   Maximum memory used (kb):      839956.
                   Average memory used (kb):           0.
  
                          Minor page faults:       501687
                          Major page faults:           16
                 Voluntary context switches:         5103
