       N       E                     dE             d eps       ncg     rms          rms(c)
DAV:   1     0.396901066593E+04    0.39690E+04   -0.14628E+05  6912   0.168E+03
DAV:   2     0.491273124683E+03   -0.34777E+04   -0.32162E+04  7440   0.448E+02
DAV:   3    -0.170329910148E+03   -0.66160E+03   -0.64196E+03  7496   0.214E+02
DAV:   4    -0.208811532876E+03   -0.38482E+02   -0.37760E+02  8024   0.557E+01
DAV:   5    -0.210298066152E+03   -0.14865E+01   -0.14794E+01  8704   0.111E+01    0.378E+01
DAV:   6    -0.182870541561E+03    0.27428E+02   -0.21183E+02  9696   0.647E+01    0.201E+01
DAV:   7    -0.182700621517E+03    0.16992E+00   -0.29703E+01  9576   0.400E+01    0.858E+00
DAV:   8    -0.183065665235E+03   -0.36504E+00   -0.43773E+00  8552   0.603E+00    0.459E+00
DAV:   9    -0.182960425294E+03    0.10524E+00   -0.63397E-01  9360   0.647E+00    0.210E+00
DAV:  10    -0.182985846135E+03   -0.25421E-01   -0.23891E-01  9248   0.269E+00    0.704E-01
DAV:  11    -0.182986815959E+03   -0.96982E-03   -0.41659E-02  9776   0.124E+00    0.241E-01
DAV:  12    -0.182990104621E+03   -0.32887E-02   -0.12505E-02  7568   0.413E-01    0.120E-01
DAV:  13    -0.182991062561E+03   -0.95794E-03   -0.20287E-03  8504   0.158E-01    0.475E-02
DAV:  14    -0.182991150174E+03   -0.87613E-04   -0.16972E-04  9048   0.613E-02    0.236E-02
DAV:  15    -0.182991171653E+03   -0.21479E-04   -0.43265E-05  8184   0.263E-02    0.119E-02
DAV:  16    -0.182991179772E+03   -0.81189E-05   -0.11631E-05  8736   0.210E-02    0.572E-03
DAV:  17    -0.182991181528E+03   -0.17556E-05   -0.42198E-06  9376   0.808E-03    0.261E-03
DAV:  18    -0.182991181809E+03   -0.28057E-06   -0.60987E-07  6848   0.378E-03    0.120E-03
DAV:  19    -0.182991181901E+03   -0.92517E-07   -0.12782E-07  4888   0.236E-03
   1 F= -.18299118E+03 E0= -.18299118E+03  d E =0.000000E+00  mag=     0.0000
