 vasp.5.4.4.18Apr17-6-g9f103f2a35 (build Dec 13 2018 10:28:32) complex          
  
 executed on             LinuxIFC date 2019.06.10  13:37:25
 running on   24 total cores
 distrk:  each k-point on    6 cores,    4 groups
 distr:  one band on NCORES_PER_BAND=   6 cores,    1 groups


--------------------------------------------------------------------------------------------------------


 INCAR:
 POTCAR:    PAW_PBE Fe 06Sep2000                  

 ----------------------------------------------------------------------------- 
|                                                                             |
|           W    W    AA    RRRRR   N    N  II  N    N   GGGG   !!!           |
|           W    W   A  A   R    R  NN   N  II  NN   N  G    G  !!!           |
|           W    W  A    A  R    R  N N  N  II  N N  N  G       !!!           |
|           W WW W  AAAAAA  RRRRR   N  N N  II  N  N N  G  GGG   !            |
|           WW  WW  A    A  R   R   N   NN  II  N   NN  G    G                |
|           W    W  A    A  R    R  N    N  II  N    N   GGGG   !!!           |
|                                                                             |
|      You have enabled k-point parallelism (KPAR>1).                         |
|      This developmental code was originally  written by Paul Kent at ORNL,  |
|      and carefully double checked in Vienna.                                |
|      GW as well as linear response parallelism added by Martijn Marsman     |
|      and Georg Kresse.                                                      |
|      Carefully verify results versus KPAR=1.                                |
|      Report problems to Paul Kent and Vienna.                               |
|                                                                             |
 ----------------------------------------------------------------------------- 

 POTCAR:    PAW_PBE Fe 06Sep2000                  
   VRHFIN =Fe:  d7 s1                                                           
   LEXCH  = PE                                                                  
   EATOM  =   594.3153 eV,   43.6809 Ry                                         
                                                                                
   TITEL  = PAW_PBE Fe 06Sep2000                                                
   LULTRA =        F    use ultrasoft PP ?                                      
   IUNSCR =        1    unscreen: 0-lin 1-nonlin 2-no                           
   RPACOR =    2.000    partial core radius                                     
   POMASS =   55.847; ZVAL   =    8.000    mass and valenz                      
   RCORE  =    2.300    outmost cutoff radius                                   
   RWIGS  =    2.460; RWIGS  =    1.302    wigner-seitz radius (au A)           
   ENMAX  =  267.882; ENMIN  =  200.911 eV                                      
   RCLOC  =    1.701    cutoff for local pot                                    
   LCOR   =        T    correct aug charges                                     
   LPAW   =        T    paw PP                                                  
   EAUG   =  511.368                                                            
   DEXC   =    0.000                                                            
   RMAX   =    2.356    core radius for proj-oper                               
   RAUG   =    1.300    factor for augmentation sphere                          
   RDEP   =    2.442    radius for radial grids                                 
   RDEPT  =    1.890    core radius for aug-charge                              
                                                                                
   Atomic configuration                                                         
    9 entries                                                                   
     n  l   j            E        occ.                                          
     1  0  0.50     -6993.8440   2.0000                                         
     2  0  0.50      -814.6047   2.0000                                         
     2  1  1.50      -693.3689   6.0000                                         
     3  0  0.50       -89.4732   2.0000                                         
     3  1  1.50       -55.6373   6.0000                                         
     3  2  2.50        -3.8151   7.0000                                         
     4  0  0.50        -4.2551   1.0000                                         
     4  1  1.50        -3.4015   0.0000                                         
     4  3  2.50        -1.3606   0.0000                                         
   Description                                                                  
     l       E           TYP  RCUT    TYP  RCUT                                 
     2     -3.8151135     23  2.300                                             
     2     -5.1756961     23  2.300                                             
     0     -4.2550963     23  2.300                                             
     0      7.2035603     23  2.300                                             
     1     -2.7211652     23  2.300                                             
     1     18.4316424     23  2.300                                             
  local pseudopotential read in
  partial core-charges read in
  partial kinetic energy density read in
  atomic valenz-charges read in
  non local Contribution for L=           2  read in
    real space projection operators read in
  non local Contribution for L=           2  read in
    real space projection operators read in
  non local Contribution for L=           0  read in
    real space projection operators read in
  non local Contribution for L=           0  read in
    real space projection operators read in
  non local Contribution for L=           1  read in
    real space projection operators read in
  non local Contribution for L=           1  read in
    real space projection operators read in
    PAW grid and wavefunctions read in
 
   number of l-projection  operators is LMAX  =           6
   number of lm-projection operators is LMMAX =          18
 
  PAW_PBE Fe 06Sep2000                  :
 energy of atom  1       EATOM= -594.3153
 kinetic energy error for atom=    0.0207 (will be added to EATOM!!)
 
 
 POSCAR: BCC IRON                                
  positions in cartesian coordinates
  velocities in cartesian coordinates
  No initial velocities read in
 exchange correlation table for  LEXCH =        8
   RHO(1)=    0.500       N(1)  =     2000
   RHO(2)=  100.500       N(2)  =     4000
 


--------------------------------------------------------------------------------------------------------


 ion  position               nearest neighbor table
   1  0.000  0.000  0.000-   2 2.45   2 2.45   2 2.45   2 2.45   2 2.45   2 2.45   2 2.45   2 2.45

   2  0.500  0.500  0.500-   1 2.45   1 2.45   1 2.45   1 2.45   1 2.45   1 2.45   1 2.45   1 2.45

 
  LATTYP: Found a simple cubic cell.
 ALAT       =     2.8290088819
  
  Lattice vectors:
  
 A1 = (   2.8290088819,   0.0000000000,   0.0000000000)
 A2 = (   0.0000000000,   2.8290088819,   0.0000000000)
 A3 = (   0.0000000000,   0.0000000000,   2.8290088819)


Analysis of symmetry for initial positions (statically):
=====================================================================
 Subroutine PRICEL returns following result:
 
  LATTYP: Found a body centered cubic cell.
 ALAT       =     2.8290088819
  
  Lattice vectors:
  
 A1 = (   1.4145044410,   1.4145044410,   1.4145044410)
 A2 = (   1.4145044410,  -1.4145044410,  -1.4145044410)
 A3 = (  -1.4145044410,   1.4145044410,  -1.4145044410)
 
   2 primitive cells build up your supercell.
 

 Routine SETGRP: Setting up the symmetry group for a 
 simple cubic supercell.


 Subroutine GETGRP returns: Found 48 space group operations
 (whereof 48 operations were pure point group operations)
 out of a pool of 48 trial point group operations.


The static configuration has the point symmetry O_h .


Analysis of symmetry for dynamics (positions and initial velocities):
=====================================================================
 Subroutine PRICEL returns following result:
 
  LATTYP: Found a body centered cubic cell.
 ALAT       =     2.8290088819
  
  Lattice vectors:
  
 A1 = (   1.4145044410,   1.4145044410,   1.4145044410)
 A2 = (   1.4145044410,  -1.4145044410,  -1.4145044410)
 A3 = (  -1.4145044410,   1.4145044410,  -1.4145044410)
 
   2 primitive cells build up your supercell.
 

 Routine SETGRP: Setting up the symmetry group for a 
 simple cubic supercell.


 Subroutine GETGRP returns: Found 48 space group operations
 (whereof 48 operations were pure point group operations)
 out of a pool of 48 trial point group operations.


The dynamic configuration has the point symmetry O_h .


Analysis of structural, dynamic, and magnetic symmetry:
=====================================================================
 Subroutine PRICEL returns following result:
 
  LATTYP: Found a body centered cubic cell.
 ALAT       =     2.8290088819
  
  Lattice vectors:
  
 A1 = (   1.4145044410,   1.4145044410,   1.4145044410)
 A2 = (   1.4145044410,  -1.4145044410,  -1.4145044410)
 A3 = (  -1.4145044410,   1.4145044410,  -1.4145044410)
 
   2 primitive cells build up your supercell.
 

 Routine SETGRP: Setting up the symmetry group for a 
 simple cubic supercell.


 Subroutine GETGRP returns: Found 48 space group operations
 (whereof 48 operations were pure point group operations)
 out of a pool of 48 trial point group operations.


The magnetic configuration has the point symmetry O_h .


 Subroutine INISYM returns: Found 48 space group operations
 (whereof 48 operations are pure point group operations),
 and found     2 'primitive' translations

 
 
 KPOINTS: automatic KPOINTS                       

Automatic generation of k-mesh.
 generate k-points for:   14   14   14
Space group operators:
 irot       det(A)        alpha          n_x          n_y          n_z        tau_x        tau_y        tau_z
    1     1.000000     0.000000     1.000000     0.000000     0.000000     0.000000     0.000000     0.000000
    2    -1.000000     0.000000     1.000000     0.000000     0.000000     0.000000     0.000000     0.000000
    3     1.000000   120.000000    -0.577350    -0.577350    -0.577350     0.000000     0.000000     0.000000
    4    -1.000000   120.000000    -0.577350    -0.577350    -0.577350     0.000000     0.000000     0.000000
    5     1.000000   120.000000     0.577350     0.577350     0.577350     0.000000     0.000000     0.000000
    6    -1.000000   120.000000     0.577350     0.577350     0.577350     0.000000     0.000000     0.000000
    7     1.000000    90.000000     0.000000     0.000000    -1.000000     0.000000     0.000000     0.000000
    8    -1.000000    90.000000     0.000000     0.000000    -1.000000     0.000000     0.000000     0.000000
    9     1.000000   180.000000     0.000000     0.707107     0.707107     0.000000     0.000000     0.000000
   10    -1.000000   180.000000     0.000000     0.707107     0.707107     0.000000     0.000000     0.000000
   11     1.000000    90.000000     0.000000     1.000000     0.000000     0.000000     0.000000     0.000000
   12    -1.000000    90.000000     0.000000     1.000000     0.000000     0.000000     0.000000     0.000000
   13     1.000000   179.999999     0.000000     0.000000     1.000000     0.000000     0.000000     0.000000
   14    -1.000000   179.999999     0.000000     0.000000     1.000000     0.000000     0.000000     0.000000
   15     1.000000   120.000000    -0.577350     0.577350     0.577350     0.000000     0.000000     0.000000
   16    -1.000000   120.000000    -0.577350     0.577350     0.577350     0.000000     0.000000     0.000000
   17     1.000000   120.000000    -0.577350     0.577350    -0.577350     0.000000     0.000000     0.000000
   18    -1.000000   120.000000    -0.577350     0.577350    -0.577350     0.000000     0.000000     0.000000
   19     1.000000    90.000000     0.000000     0.000000     1.000000     0.000000     0.000000     0.000000
   20    -1.000000    90.000000     0.000000     0.000000     1.000000     0.000000     0.000000     0.000000
   21     1.000000    90.000000    -1.000000     0.000000     0.000000     0.000000     0.000000     0.000000
   22    -1.000000    90.000000    -1.000000     0.000000     0.000000     0.000000     0.000000     0.000000
   23     1.000000   180.000000     0.707107     0.000000     0.707107     0.000000     0.000000     0.000000
   24    -1.000000   180.000000     0.707107     0.000000     0.707107     0.000000     0.000000     0.000000
   25     1.000000   120.000000     0.577350    -0.577350     0.577350     0.000000     0.000000     0.000000
   26    -1.000000   120.000000     0.577350    -0.577350     0.577350     0.000000     0.000000     0.000000
   27     1.000000   120.000000    -0.577350    -0.577350     0.577350     0.000000     0.000000     0.000000
   28    -1.000000   120.000000    -0.577350    -0.577350     0.577350     0.000000     0.000000     0.000000
   29     1.000000   180.000000     1.000000     0.000000     0.000000     0.000000     0.000000     0.000000
   30    -1.000000   180.000000     1.000000     0.000000     0.000000     0.000000     0.000000     0.000000
   31     1.000000    90.000000     0.000000    -1.000000     0.000000     0.000000     0.000000     0.000000
   32    -1.000000    90.000000     0.000000    -1.000000     0.000000     0.000000     0.000000     0.000000
   33     1.000000   180.000000     0.707107     0.707107     0.000000     0.000000     0.000000     0.000000
   34    -1.000000   180.000000     0.707107     0.707107     0.000000     0.000000     0.000000     0.000000
   35     1.000000    90.000000     1.000000     0.000000     0.000000     0.000000     0.000000     0.000000
   36    -1.000000    90.000000     1.000000     0.000000     0.000000     0.000000     0.000000     0.000000
   37     1.000000   120.000000     0.577350    -0.577350    -0.577350     0.000000     0.000000     0.000000
   38    -1.000000   120.000000     0.577350    -0.577350    -0.577350     0.000000     0.000000     0.000000
   39     1.000000   180.000000     0.000000     1.000000     0.000000     0.000000     0.000000     0.000000
   40    -1.000000   180.000000     0.000000     1.000000     0.000000     0.000000     0.000000     0.000000
   41     1.000000   120.000000     0.577350     0.577350    -0.577350     0.000000     0.000000     0.000000
   42    -1.000000   120.000000     0.577350     0.577350    -0.577350     0.000000     0.000000     0.000000
   43     1.000000   180.000000     0.000000    -0.707107     0.707107     0.000000     0.000000     0.000000
   44    -1.000000   180.000000     0.000000    -0.707107     0.707107     0.000000     0.000000     0.000000
   45     1.000000   180.000000     0.707107    -0.707107     0.000000     0.000000     0.000000     0.000000
   46    -1.000000   180.000000     0.707107    -0.707107     0.000000     0.000000     0.000000     0.000000
   47     1.000000   180.000000     0.707107     0.000000    -0.707107     0.000000     0.000000     0.000000
   48    -1.000000   180.000000     0.707107     0.000000    -0.707107     0.000000     0.000000     0.000000
 
 Subroutine IBZKPT returns following result:
 ===========================================
 
 Found    120 irreducible k-points:
 
 Following reciprocal coordinates:
            Coordinates               Weight
  0.000000  0.000000  0.000000      1.000000
  0.071429  0.000000  0.000000      6.000000
  0.142857  0.000000  0.000000      6.000000
  0.214286  0.000000  0.000000      6.000000
  0.285714  0.000000  0.000000      6.000000
  0.357143  0.000000  0.000000      6.000000
  0.428571  0.000000  0.000000      6.000000
  0.500000  0.000000  0.000000      3.000000
  0.071429  0.071429  0.000000     12.000000
  0.142857  0.071429  0.000000     24.000000
  0.214286  0.071429  0.000000     24.000000
  0.285714  0.071429  0.000000     24.000000
  0.357143  0.071429  0.000000     24.000000
  0.428571  0.071429  0.000000     24.000000
  0.500000  0.071429  0.000000     12.000000
  0.142857  0.142857  0.000000     12.000000
  0.214286  0.142857  0.000000     24.000000
  0.285714  0.142857  0.000000     24.000000
  0.357143  0.142857  0.000000     24.000000
  0.428571  0.142857  0.000000     24.000000
  0.500000  0.142857  0.000000     12.000000
  0.214286  0.214286  0.000000     12.000000
  0.285714  0.214286  0.000000     24.000000
  0.357143  0.214286  0.000000     24.000000
  0.428571  0.214286  0.000000     24.000000
  0.500000  0.214286  0.000000     12.000000
  0.285714  0.285714  0.000000     12.000000
  0.357143  0.285714  0.000000     24.000000
  0.428571  0.285714  0.000000     24.000000
  0.500000  0.285714  0.000000     12.000000
  0.357143  0.357143  0.000000     12.000000
  0.428571  0.357143  0.000000     24.000000
  0.500000  0.357143  0.000000     12.000000
  0.428571  0.428571  0.000000     12.000000
  0.500000  0.428571  0.000000     12.000000
  0.500000  0.500000  0.000000      3.000000
  0.071429  0.071429  0.071429      8.000000
  0.142857  0.071429  0.071429     24.000000
  0.214286  0.071429  0.071429     24.000000
  0.285714  0.071429  0.071429     24.000000
  0.357143  0.071429  0.071429     24.000000
  0.428571  0.071429  0.071429     24.000000
  0.500000  0.071429  0.071429     12.000000
  0.142857  0.142857  0.071429     24.000000
  0.214286  0.142857  0.071429     48.000000
  0.285714  0.142857  0.071429     48.000000
  0.357143  0.142857  0.071429     48.000000
  0.428571  0.142857  0.071429     48.000000
  0.500000  0.142857  0.071429     24.000000
  0.214286  0.214286  0.071429     24.000000
  0.285714  0.214286  0.071429     48.000000
  0.357143  0.214286  0.071429     48.000000
  0.428571  0.214286  0.071429     48.000000
  0.500000  0.214286  0.071429     24.000000
  0.285714  0.285714  0.071429     24.000000
  0.357143  0.285714  0.071429     48.000000
  0.428571  0.285714  0.071429     48.000000
  0.500000  0.285714  0.071429     24.000000
  0.357143  0.357143  0.071429     24.000000
  0.428571  0.357143  0.071429     48.000000
  0.500000  0.357143  0.071429     24.000000
  0.428571  0.428571  0.071429     24.000000
  0.500000  0.428571  0.071429     24.000000
  0.500000  0.500000  0.071429      6.000000
  0.142857  0.142857  0.142857      8.000000
  0.214286  0.142857  0.142857     24.000000
  0.285714  0.142857  0.142857     24.000000
  0.357143  0.142857  0.142857     24.000000
  0.428571  0.142857  0.142857     24.000000
  0.500000  0.142857  0.142857     12.000000
  0.214286  0.214286  0.142857     24.000000
  0.285714  0.214286  0.142857     48.000000
  0.357143  0.214286  0.142857     48.000000
  0.428571  0.214286  0.142857     48.000000
  0.500000  0.214286  0.142857     24.000000
  0.285714  0.285714  0.142857     24.000000
  0.357143  0.285714  0.142857     48.000000
  0.428571  0.285714  0.142857     48.000000
  0.500000  0.285714  0.142857     24.000000
  0.357143  0.357143  0.142857     24.000000
  0.428571  0.357143  0.142857     48.000000
  0.500000  0.357143  0.142857     24.000000
  0.428571  0.428571  0.142857     24.000000
  0.500000  0.428571  0.142857     24.000000
  0.500000  0.500000  0.142857      6.000000
  0.214286  0.214286  0.214286      8.000000
  0.285714  0.214286  0.214286     24.000000
  0.357143  0.214286  0.214286     24.000000
  0.428571  0.214286  0.214286     24.000000
  0.500000  0.214286  0.214286     12.000000
  0.285714  0.285714  0.214286     24.000000
  0.357143  0.285714  0.214286     48.000000
  0.428571  0.285714  0.214286     48.000000
  0.500000  0.285714  0.214286     24.000000
  0.357143  0.357143  0.214286     24.000000
  0.428571  0.357143  0.214286     48.000000
  0.500000  0.357143  0.214286     24.000000
  0.428571  0.428571  0.214286     24.000000
  0.500000  0.428571  0.214286     24.000000
  0.500000  0.500000  0.214286      6.000000
  0.285714  0.285714  0.285714      8.000000
  0.357143  0.285714  0.285714     24.000000
  0.428571  0.285714  0.285714     24.000000
  0.500000  0.285714  0.285714     12.000000
  0.357143  0.357143  0.285714     24.000000
  0.428571  0.357143  0.285714     48.000000
  0.500000  0.357143  0.285714     24.000000
  0.428571  0.428571  0.285714     24.000000
  0.500000  0.428571  0.285714     24.000000
  0.500000  0.500000  0.285714      6.000000
  0.357143  0.357143  0.357143      8.000000
  0.428571  0.357143  0.357143     24.000000
  0.500000  0.357143  0.357143     12.000000
  0.428571  0.428571  0.357143     24.000000
  0.500000  0.428571  0.357143     24.000000
  0.500000  0.500000  0.357143      6.000000
  0.428571  0.428571  0.428571      8.000000
  0.500000  0.428571  0.428571     12.000000
  0.500000  0.500000  0.428571      6.000000
  0.500000  0.500000  0.500000      1.000000
 
 Following cartesian coordinates:
            Coordinates               Weight
  0.000000  0.000000  0.000000      1.000000
  0.025249  0.000000  0.000000      6.000000
  0.050497  0.000000  0.000000      6.000000
  0.075746  0.000000  0.000000      6.000000
  0.100994  0.000000  0.000000      6.000000
  0.126243  0.000000  0.000000      6.000000
  0.151492  0.000000  0.000000      6.000000
  0.176740  0.000000  0.000000      3.000000
  0.025249  0.025249  0.000000     12.000000
  0.050497  0.025249  0.000000     24.000000
  0.075746  0.025249  0.000000     24.000000
  0.100994  0.025249  0.000000     24.000000
  0.126243  0.025249  0.000000     24.000000
  0.151492  0.025249  0.000000     24.000000
  0.176740  0.025249  0.000000     12.000000
  0.050497  0.050497  0.000000     12.000000
  0.075746  0.050497  0.000000     24.000000
  0.100994  0.050497  0.000000     24.000000
  0.126243  0.050497  0.000000     24.000000
  0.151492  0.050497  0.000000     24.000000
  0.176740  0.050497  0.000000     12.000000
  0.075746  0.075746  0.000000     12.000000
  0.100994  0.075746  0.000000     24.000000
  0.126243  0.075746  0.000000     24.000000
  0.151492  0.075746  0.000000     24.000000
  0.176740  0.075746  0.000000     12.000000
  0.100994  0.100994  0.000000     12.000000
  0.126243  0.100994  0.000000     24.000000
  0.151492  0.100994  0.000000     24.000000
  0.176740  0.100994  0.000000     12.000000
  0.126243  0.126243  0.000000     12.000000
  0.151492  0.126243  0.000000     24.000000
  0.176740  0.126243  0.000000     12.000000
  0.151492  0.151492  0.000000     12.000000
  0.176740  0.151492  0.000000     12.000000
  0.176740  0.176740  0.000000      3.000000
  0.025249  0.025249  0.025249      8.000000
  0.050497  0.025249  0.025249     24.000000
  0.075746  0.025249  0.025249     24.000000
  0.100994  0.025249  0.025249     24.000000
  0.126243  0.025249  0.025249     24.000000
  0.151492  0.025249  0.025249     24.000000
  0.176740  0.025249  0.025249     12.000000
  0.050497  0.050497  0.025249     24.000000
  0.075746  0.050497  0.025249     48.000000
  0.100994  0.050497  0.025249     48.000000
  0.126243  0.050497  0.025249     48.000000
  0.151492  0.050497  0.025249     48.000000
  0.176740  0.050497  0.025249     24.000000
  0.075746  0.075746  0.025249     24.000000
  0.100994  0.075746  0.025249     48.000000
  0.126243  0.075746  0.025249     48.000000
  0.151492  0.075746  0.025249     48.000000
  0.176740  0.075746  0.025249     24.000000
  0.100994  0.100994  0.025249     24.000000
  0.126243  0.100994  0.025249     48.000000
  0.151492  0.100994  0.025249     48.000000
  0.176740  0.100994  0.025249     24.000000
  0.126243  0.126243  0.025249     24.000000
  0.151492  0.126243  0.025249     48.000000
  0.176740  0.126243  0.025249     24.000000
  0.151492  0.151492  0.025249     24.000000
  0.176740  0.151492  0.025249     24.000000
  0.176740  0.176740  0.025249      6.000000
  0.050497  0.050497  0.050497      8.000000
  0.075746  0.050497  0.050497     24.000000
  0.100994  0.050497  0.050497     24.000000
  0.126243  0.050497  0.050497     24.000000
  0.151492  0.050497  0.050497     24.000000
  0.176740  0.050497  0.050497     12.000000
  0.075746  0.075746  0.050497     24.000000
  0.100994  0.075746  0.050497     48.000000
  0.126243  0.075746  0.050497     48.000000
  0.151492  0.075746  0.050497     48.000000
  0.176740  0.075746  0.050497     24.000000
  0.100994  0.100994  0.050497     24.000000
  0.126243  0.100994  0.050497     48.000000
  0.151492  0.100994  0.050497     48.000000
  0.176740  0.100994  0.050497     24.000000
  0.126243  0.126243  0.050497     24.000000
  0.151492  0.126243  0.050497     48.000000
  0.176740  0.126243  0.050497     24.000000
  0.151492  0.151492  0.050497     24.000000
  0.176740  0.151492  0.050497     24.000000
  0.176740  0.176740  0.050497      6.000000
  0.075746  0.075746  0.075746      8.000000
  0.100994  0.075746  0.075746     24.000000
  0.126243  0.075746  0.075746     24.000000
  0.151492  0.075746  0.075746     24.000000
  0.176740  0.075746  0.075746     12.000000
  0.100994  0.100994  0.075746     24.000000
  0.126243  0.100994  0.075746     48.000000
  0.151492  0.100994  0.075746     48.000000
  0.176740  0.100994  0.075746     24.000000
  0.126243  0.126243  0.075746     24.000000
  0.151492  0.126243  0.075746     48.000000
  0.176740  0.126243  0.075746     24.000000
  0.151492  0.151492  0.075746     24.000000
  0.176740  0.151492  0.075746     24.000000
  0.176740  0.176740  0.075746      6.000000
  0.100994  0.100994  0.100994      8.000000
  0.126243  0.100994  0.100994     24.000000
  0.151492  0.100994  0.100994     24.000000
  0.176740  0.100994  0.100994     12.000000
  0.126243  0.126243  0.100994     24.000000
  0.151492  0.126243  0.100994     48.000000
  0.176740  0.126243  0.100994     24.000000
  0.151492  0.151492  0.100994     24.000000
  0.176740  0.151492  0.100994     24.000000
  0.176740  0.176740  0.100994      6.000000
  0.126243  0.126243  0.126243      8.000000
  0.151492  0.126243  0.126243     24.000000
  0.176740  0.126243  0.126243     12.000000
  0.151492  0.151492  0.126243     24.000000
  0.176740  0.151492  0.126243     24.000000
  0.176740  0.176740  0.126243      6.000000
  0.151492  0.151492  0.151492      8.000000
  0.176740  0.151492  0.151492     12.000000
  0.176740  0.176740  0.151492      6.000000
  0.176740  0.176740  0.176740      1.000000
 


--------------------------------------------------------------------------------------------------------




 Dimension of arrays:
   k-points           NKPTS =    120   k-points in BZ     NKDIM =    120   number of bands    NBANDS=     11
   number of dos      NEDOS =    301   number of ions     NIONS =      2
   non local maximal  LDIM  =      6   non local SUM 2l+1 LMDIM =     18
   total plane-waves  NPLWV =   5832
   max r-space proj   IRMAX =      1   max aug-charges    IRDMAX=   9374
   dimension x,y,z NGX =    18 NGY =   18 NGZ =   18
   dimension x,y,z NGXF=    36 NGYF=   36 NGZF=   36
   support grid    NGXF=    36 NGYF=   36 NGZF=   36
   ions per type =               2
   NGX,Y,Z   is equivalent  to a cutoff of  10.58, 10.58, 10.58 a.u.
   NGXF,Y,Z  is equivalent  to a cutoff of  21.16, 21.16, 21.16 a.u.

 SYSTEM =  BCC_IRON                                
 POSCAR =  BCC IRON                                

 Startparameter for this run:
   NWRITE =      2    write-flag & timer
   PREC   = accura    normal or accurate (medium, high low for compatibility)
   ISTART =      0    job   : 0-new  1-cont  2-samecut
   ICHARG =      2    charge: 1-file 2-atom 10-const
   ISPIN  =      2    spin polarized calculation?
   LNONCOLLINEAR =      F non collinear calculations
   LSORBIT =      F    spin-orbit coupling
   INIWAV =      1    electr: 0-lowe 1-rand  2-diag
   LASPH  =      F    aspherical Exc in radial PAW
   METAGGA=      F    non-selfconsistent MetaGGA calc.

 Electronic Relaxation 1
   ENCUT  =  349.0 eV  25.65 Ry    5.06 a.u.   4.31  4.31  4.31*2*pi/ulx,y,z
   ENINI  =  349.0     initial cutoff
   ENAUG  =  511.4 eV  augmentation charge cutoff
   NELM   =    100;   NELMIN=  2; NELMDL= -5     # of ELM steps 
   EDIFF  = 0.1E-06   stopping-criterion for ELM
   LREAL  =      F    real-space projection
   NLSPLINE    = F    spline interpolate recip. space projectors
   LCOMPAT=      F    compatible to vasp.4.4
   GGA_COMPAT  = T    GGA compatible to vasp.4.4-vasp.4.6
   LMAXPAW     = -100 max onsite density
   LMAXMIX     =    2 max onsite mixed and CHGCAR
   VOSKOWN=      0    Vosko Wilk Nusair interpolation
   ROPT   =    0.00000
 Ionic relaxation
   EDIFFG = 0.1E-05   stopping-criterion for IOM
   NSW    =      0    number of steps for IOM
   NBLOCK =      1;   KBLOCK =      1    inner block; outer block 
   IBRION =     -1    ionic relax: 0-MD 1-quasi-New 2-CG
   NFREE  =      0    steps in history (QN), initial steepest desc. (CG)
   ISIF   =      2    stress and relaxation
   IWAVPR =     10    prediction:  0-non 1-charg 2-wave 3-comb
   ISYM   =      2    0-nonsym 1-usesym 2-fastsym
   LCORR  =      T    Harris-Foulkes like correction to forces

   POTIM  = 0.5000    time-step for ionic-motion
   TEIN   =    0.0    initial temperature
   TEBEG  =    0.0;   TEEND  =   0.0 temperature during run
   SMASS  =  -3.00    Nose mass-parameter (am)
   estimated Nose-frequenzy (Omega)   =  0.10E-29 period in steps =****** mass=  -0.183E-27a.u.
   SCALEE = 1.0000    scale energy and forces
   NPACO  =    256;   APACO  = 16.0  distance and # of slots for P.C.
   PSTRESS=    0.0 pullay stress

  Mass of Ions in am
   POMASS =  55.85
  Ionic Valenz
   ZVAL   =   8.00
  Atomic Wigner-Seitz radii
   RWIGS  =  -1.00
  virtual crystal weights 
   VCA    =   1.00
   NELECT =      16.0000    total number of electrons
   NUPDOWN=      -1.0000    fix difference up-down

 DOS related values:
   EMIN   =  10.00;   EMAX   =-10.00  energy-range for DOS
   EFERMI =   0.00
   ISMEAR =     1;   SIGMA  =   0.01  broadening in eV -4-tet -1-fermi 0-gaus

 Electronic relaxation 2 (details)
   IALGO  =     38    algorithm
   LDIAG  =      T    sub-space diagonalisation (order eigenvalues)
   LSUBROT=      F    optimize rotation matrix (better conditioning)
   TURBO    =      0    0=normal 1=particle mesh
   IRESTART =      0    0=no restart 2=restart with 2 vectors
   NREBOOT  =      0    no. of reboots
   NMIN     =      0    reboot dimension
   EREF     =   0.00    reference energy to select bands
   IMIX   =      4    mixing-type and parameters
     AMIX     =   0.40;   BMIX     =  1.00
     AMIX_MAG =   1.60;   BMIX_MAG =  1.00
     AMIN     =   0.10
     WC   =   100.;   INIMIX=   1;  MIXPRE=   1;  MAXMIX= -45

 Intra band minimization:
   WEIMIN = 0.0000     energy-eigenvalue tresh-hold
   EBREAK =  0.23E-08  absolut break condition
   DEPER  =   0.30     relativ break condition  

   TIME   =   0.40     timestep for ELM

  volume/ion in A,a.u.               =      11.32        76.40
  Fermi-wavevector in a.u.,A,eV,Ry     =   1.458189  2.755578 28.930278  2.126315
  Thomas-Fermi vector in A             =   2.574903
 
 Write flags
   LWAVE        =      F    write WAVECAR
   LDOWNSAMPLE  =      F    k-point downsampling of WAVECAR
   LCHARG       =      F    write CHGCAR
   LVTOT        =      F    write LOCPOT, total local potential
   LVHAR        =      F    write LOCPOT, Hartree potential only
   LELF         =      F    write electronic localiz. function (ELF)
   LORBIT       =     11    0 simple, 1 ext, 2 COOP (PROOUT), +10 PAW based schemes


 Dipole corrections
   LMONO  =      F    monopole corrections only (constant potential shift)
   LDIPOL =      F    correct potential (dipole corrections)
   IDIPOL =      0    1-x, 2-y, 3-z, 4-all directions 
   EPSILON=  1.0000000 bulk dielectric constant

 Exchange correlation treatment:
   GGA     =    --    GGA type
   LEXCH   =     8    internal setting for exchange type
   VOSKOWN=      0    Vosko Wilk Nusair interpolation
   LHFCALC =     F    Hartree Fock is set to
   LHFONE  =     F    Hartree Fock one center treatment
   AEXX    =    0.0000 exact exchange contribution

 Linear response parameters
   LEPSILON=     F    determine dielectric tensor
   LRPA    =     F    only Hartree local field effects (RPA)
   LNABLA  =     F    use nabla operator in PAW spheres
   LVEL    =     F    velocity operator in full k-point grid
   LINTERFAST=   F  fast interpolation
   KINTER  =     0    interpolate to denser k-point grid
   CSHIFT  =0.1000    complex shift for real part using Kramers Kronig
   OMEGAMAX=  -1.0    maximum frequency
   DEG_THRESHOLD= 0.2000000E-02 threshold for treating states as degnerate
   RTIME   =   -0.100 relaxation time in fs
  (WPLASMAI=    0.000 imaginary part of plasma frequency in eV, 0.658/RTIME)
   DFIELD  = 0.0000000 0.0000000 0.0000000 field for delta impulse in time
 
 Orbital magnetization related:
   ORBITALMAG=     F  switch on orbital magnetization
   LCHIMAG   =     F  perturbation theory with respect to B field
   DQ        =  0.001000  dq finite difference perturbation B field
   LLRAUG    =     F  two centre corrections for induced B field



--------------------------------------------------------------------------------------------------------


 Static calculation
 charge density and potential will be updated during run
 spin polarized calculation
 Variant of blocked Davidson
 Davidson routine will perform the subspace rotation
 perform sub-space diagonalisation
    after iterative eigenvector-optimisation
 modified Broyden-mixing scheme, WC =      100.0
 initial mixing is a Kerker type mixing with AMIX =  0.4000 and BMIX =      1.0000
 Hartree-type preconditioning will be used
 using additional bands            3
 reciprocal scheme for non local part
 use partial core corrections
 calculate Harris-corrections to forces 
   (improved forces if not selfconsistent)
 use gradient corrections 
 use of overlap-Matrix (Vanderbilt PP)
 Methfessel and Paxton  Order N= 1 SIGMA  =   0.01


--------------------------------------------------------------------------------------------------------


  energy-cutoff  :      349.00
  volume of cell :       22.64
      direct lattice vectors                 reciprocal lattice vectors
     2.829008882  0.000000000  0.000000000     0.353480686  0.000000000  0.000000000
     0.000000000  2.829008882  0.000000000     0.000000000  0.353480686  0.000000000
     0.000000000  0.000000000  2.829008882     0.000000000  0.000000000  0.353480686

  length of vectors
     2.829008882  2.829008882  2.829008882     0.353480686  0.353480686  0.353480686


 
 k-points in units of 2pi/SCALE and weight: automatic KPOINTS                       
   0.00000000  0.00000000  0.00000000       0.000
   0.02524862  0.00000000  0.00000000       0.002
   0.05049724  0.00000000  0.00000000       0.002
   0.07574586  0.00000000  0.00000000       0.002
   0.10099448  0.00000000  0.00000000       0.002
   0.12624310  0.00000000  0.00000000       0.002
   0.15149172  0.00000000  0.00000000       0.002
   0.17674034  0.00000000  0.00000000       0.001
   0.02524862  0.02524862  0.00000000       0.004
   0.05049724  0.02524862  0.00000000       0.009
   0.07574586  0.02524862  0.00000000       0.009
   0.10099448  0.02524862  0.00000000       0.009
   0.12624310  0.02524862  0.00000000       0.009
   0.15149172  0.02524862  0.00000000       0.009
   0.17674034  0.02524862  0.00000000       0.004
   0.05049724  0.05049724  0.00000000       0.004
   0.07574586  0.05049724  0.00000000       0.009
   0.10099448  0.05049724  0.00000000       0.009
   0.12624310  0.05049724  0.00000000       0.009
   0.15149172  0.05049724  0.00000000       0.009
   0.17674034  0.05049724  0.00000000       0.004
   0.07574586  0.07574586  0.00000000       0.004
   0.10099448  0.07574586  0.00000000       0.009
   0.12624310  0.07574586  0.00000000       0.009
   0.15149172  0.07574586  0.00000000       0.009
   0.17674034  0.07574586  0.00000000       0.004
   0.10099448  0.10099448  0.00000000       0.004
   0.12624310  0.10099448  0.00000000       0.009
   0.15149172  0.10099448  0.00000000       0.009
   0.17674034  0.10099448  0.00000000       0.004
   0.12624310  0.12624310  0.00000000       0.004
   0.15149172  0.12624310  0.00000000       0.009
   0.17674034  0.12624310  0.00000000       0.004
   0.15149172  0.15149172  0.00000000       0.004
   0.17674034  0.15149172  0.00000000       0.004
   0.17674034  0.17674034  0.00000000       0.001
   0.02524862  0.02524862  0.02524862       0.003
   0.05049724  0.02524862  0.02524862       0.009
   0.07574586  0.02524862  0.02524862       0.009
   0.10099448  0.02524862  0.02524862       0.009
   0.12624310  0.02524862  0.02524862       0.009
   0.15149172  0.02524862  0.02524862       0.009
   0.17674034  0.02524862  0.02524862       0.004
   0.05049724  0.05049724  0.02524862       0.009
   0.07574586  0.05049724  0.02524862       0.017
   0.10099448  0.05049724  0.02524862       0.017
   0.12624310  0.05049724  0.02524862       0.017
   0.15149172  0.05049724  0.02524862       0.017
   0.17674034  0.05049724  0.02524862       0.009
   0.07574586  0.07574586  0.02524862       0.009
   0.10099448  0.07574586  0.02524862       0.017
   0.12624310  0.07574586  0.02524862       0.017
   0.15149172  0.07574586  0.02524862       0.017
   0.17674034  0.07574586  0.02524862       0.009
   0.10099448  0.10099448  0.02524862       0.009
   0.12624310  0.10099448  0.02524862       0.017
   0.15149172  0.10099448  0.02524862       0.017
   0.17674034  0.10099448  0.02524862       0.009
   0.12624310  0.12624310  0.02524862       0.009
   0.15149172  0.12624310  0.02524862       0.017
   0.17674034  0.12624310  0.02524862       0.009
   0.15149172  0.15149172  0.02524862       0.009
   0.17674034  0.15149172  0.02524862       0.009
   0.17674034  0.17674034  0.02524862       0.002
   0.05049724  0.05049724  0.05049724       0.003
   0.07574586  0.05049724  0.05049724       0.009
   0.10099448  0.05049724  0.05049724       0.009
   0.12624310  0.05049724  0.05049724       0.009
   0.15149172  0.05049724  0.05049724       0.009
   0.17674034  0.05049724  0.05049724       0.004
   0.07574586  0.07574586  0.05049724       0.009
   0.10099448  0.07574586  0.05049724       0.017
   0.12624310  0.07574586  0.05049724       0.017
   0.15149172  0.07574586  0.05049724       0.017
   0.17674034  0.07574586  0.05049724       0.009
   0.10099448  0.10099448  0.05049724       0.009
   0.12624310  0.10099448  0.05049724       0.017
   0.15149172  0.10099448  0.05049724       0.017
   0.17674034  0.10099448  0.05049724       0.009
   0.12624310  0.12624310  0.05049724       0.009
   0.15149172  0.12624310  0.05049724       0.017
   0.17674034  0.12624310  0.05049724       0.009
   0.15149172  0.15149172  0.05049724       0.009
   0.17674034  0.15149172  0.05049724       0.009
   0.17674034  0.17674034  0.05049724       0.002
   0.07574586  0.07574586  0.07574586       0.003
   0.10099448  0.07574586  0.07574586       0.009
   0.12624310  0.07574586  0.07574586       0.009
   0.15149172  0.07574586  0.07574586       0.009
   0.17674034  0.07574586  0.07574586       0.004
   0.10099448  0.10099448  0.07574586       0.009
   0.12624310  0.10099448  0.07574586       0.017
   0.15149172  0.10099448  0.07574586       0.017
   0.17674034  0.10099448  0.07574586       0.009
   0.12624310  0.12624310  0.07574586       0.009
   0.15149172  0.12624310  0.07574586       0.017
   0.17674034  0.12624310  0.07574586       0.009
   0.15149172  0.15149172  0.07574586       0.009
   0.17674034  0.15149172  0.07574586       0.009
   0.17674034  0.17674034  0.07574586       0.002
   0.10099448  0.10099448  0.10099448       0.003
   0.12624310  0.10099448  0.10099448       0.009
   0.15149172  0.10099448  0.10099448       0.009
   0.17674034  0.10099448  0.10099448       0.004
   0.12624310  0.12624310  0.10099448       0.009
   0.15149172  0.12624310  0.10099448       0.017
   0.17674034  0.12624310  0.10099448       0.009
   0.15149172  0.15149172  0.10099448       0.009
   0.17674034  0.15149172  0.10099448       0.009
   0.17674034  0.17674034  0.10099448       0.002
   0.12624310  0.12624310  0.12624310       0.003
   0.15149172  0.12624310  0.12624310       0.009
   0.17674034  0.12624310  0.12624310       0.004
   0.15149172  0.15149172  0.12624310       0.009
   0.17674034  0.15149172  0.12624310       0.009
   0.17674034  0.17674034  0.12624310       0.002
   0.15149172  0.15149172  0.15149172       0.003
   0.17674034  0.15149172  0.15149172       0.004
   0.17674034  0.17674034  0.15149172       0.002
   0.17674034  0.17674034  0.17674034       0.000
 
 k-points in reciprocal lattice and weights: automatic KPOINTS                       
   0.00000000  0.00000000  0.00000000       0.000
   0.07142857  0.00000000  0.00000000       0.002
   0.14285714  0.00000000  0.00000000       0.002
   0.21428571  0.00000000  0.00000000       0.002
   0.28571429  0.00000000  0.00000000       0.002
   0.35714286  0.00000000  0.00000000       0.002
   0.42857143  0.00000000  0.00000000       0.002
   0.50000000  0.00000000  0.00000000       0.001
   0.07142857  0.07142857  0.00000000       0.004
   0.14285714  0.07142857  0.00000000       0.009
   0.21428571  0.07142857  0.00000000       0.009
   0.28571429  0.07142857  0.00000000       0.009
   0.35714286  0.07142857  0.00000000       0.009
   0.42857143  0.07142857  0.00000000       0.009
   0.50000000  0.07142857  0.00000000       0.004
   0.14285714  0.14285714  0.00000000       0.004
   0.21428571  0.14285714  0.00000000       0.009
   0.28571429  0.14285714  0.00000000       0.009
   0.35714286  0.14285714  0.00000000       0.009
   0.42857143  0.14285714  0.00000000       0.009
   0.50000000  0.14285714  0.00000000       0.004
   0.21428571  0.21428571  0.00000000       0.004
   0.28571429  0.21428571  0.00000000       0.009
   0.35714286  0.21428571  0.00000000       0.009
   0.42857143  0.21428571  0.00000000       0.009
   0.50000000  0.21428571  0.00000000       0.004
   0.28571429  0.28571429  0.00000000       0.004
   0.35714286  0.28571429  0.00000000       0.009
   0.42857143  0.28571429  0.00000000       0.009
   0.50000000  0.28571429  0.00000000       0.004
   0.35714286  0.35714286  0.00000000       0.004
   0.42857143  0.35714286  0.00000000       0.009
   0.50000000  0.35714286  0.00000000       0.004
   0.42857143  0.42857143  0.00000000       0.004
   0.50000000  0.42857143  0.00000000       0.004
   0.50000000  0.50000000  0.00000000       0.001
   0.07142857  0.07142857  0.07142857       0.003
   0.14285714  0.07142857  0.07142857       0.009
   0.21428571  0.07142857  0.07142857       0.009
   0.28571429  0.07142857  0.07142857       0.009
   0.35714286  0.07142857  0.07142857       0.009
   0.42857143  0.07142857  0.07142857       0.009
   0.50000000  0.07142857  0.07142857       0.004
   0.14285714  0.14285714  0.07142857       0.009
   0.21428571  0.14285714  0.07142857       0.017
   0.28571429  0.14285714  0.07142857       0.017
   0.35714286  0.14285714  0.07142857       0.017
   0.42857143  0.14285714  0.07142857       0.017
   0.50000000  0.14285714  0.07142857       0.009
   0.21428571  0.21428571  0.07142857       0.009
   0.28571429  0.21428571  0.07142857       0.017
   0.35714286  0.21428571  0.07142857       0.017
   0.42857143  0.21428571  0.07142857       0.017
   0.50000000  0.21428571  0.07142857       0.009
   0.28571429  0.28571429  0.07142857       0.009
   0.35714286  0.28571429  0.07142857       0.017
   0.42857143  0.28571429  0.07142857       0.017
   0.50000000  0.28571429  0.07142857       0.009
   0.35714286  0.35714286  0.07142857       0.009
   0.42857143  0.35714286  0.07142857       0.017
   0.50000000  0.35714286  0.07142857       0.009
   0.42857143  0.42857143  0.07142857       0.009
   0.50000000  0.42857143  0.07142857       0.009
   0.50000000  0.50000000  0.07142857       0.002
   0.14285714  0.14285714  0.14285714       0.003
   0.21428571  0.14285714  0.14285714       0.009
   0.28571429  0.14285714  0.14285714       0.009
   0.35714286  0.14285714  0.14285714       0.009
   0.42857143  0.14285714  0.14285714       0.009
   0.50000000  0.14285714  0.14285714       0.004
   0.21428571  0.21428571  0.14285714       0.009
   0.28571429  0.21428571  0.14285714       0.017
   0.35714286  0.21428571  0.14285714       0.017
   0.42857143  0.21428571  0.14285714       0.017
   0.50000000  0.21428571  0.14285714       0.009
   0.28571429  0.28571429  0.14285714       0.009
   0.35714286  0.28571429  0.14285714       0.017
   0.42857143  0.28571429  0.14285714       0.017
   0.50000000  0.28571429  0.14285714       0.009
   0.35714286  0.35714286  0.14285714       0.009
   0.42857143  0.35714286  0.14285714       0.017
   0.50000000  0.35714286  0.14285714       0.009
   0.42857143  0.42857143  0.14285714       0.009
   0.50000000  0.42857143  0.14285714       0.009
   0.50000000  0.50000000  0.14285714       0.002
   0.21428571  0.21428571  0.21428571       0.003
   0.28571429  0.21428571  0.21428571       0.009
   0.35714286  0.21428571  0.21428571       0.009
   0.42857143  0.21428571  0.21428571       0.009
   0.50000000  0.21428571  0.21428571       0.004
   0.28571429  0.28571429  0.21428571       0.009
   0.35714286  0.28571429  0.21428571       0.017
   0.42857143  0.28571429  0.21428571       0.017
   0.50000000  0.28571429  0.21428571       0.009
   0.35714286  0.35714286  0.21428571       0.009
   0.42857143  0.35714286  0.21428571       0.017
   0.50000000  0.35714286  0.21428571       0.009
   0.42857143  0.42857143  0.21428571       0.009
   0.50000000  0.42857143  0.21428571       0.009
   0.50000000  0.50000000  0.21428571       0.002
   0.28571429  0.28571429  0.28571429       0.003
   0.35714286  0.28571429  0.28571429       0.009
   0.42857143  0.28571429  0.28571429       0.009
   0.50000000  0.28571429  0.28571429       0.004
   0.35714286  0.35714286  0.28571429       0.009
   0.42857143  0.35714286  0.28571429       0.017
   0.50000000  0.35714286  0.28571429       0.009
   0.42857143  0.42857143  0.28571429       0.009
   0.50000000  0.42857143  0.28571429       0.009
   0.50000000  0.50000000  0.28571429       0.002
   0.35714286  0.35714286  0.35714286       0.003
   0.42857143  0.35714286  0.35714286       0.009
   0.50000000  0.35714286  0.35714286       0.004
   0.42857143  0.42857143  0.35714286       0.009
   0.50000000  0.42857143  0.35714286       0.009
   0.50000000  0.50000000  0.35714286       0.002
   0.42857143  0.42857143  0.42857143       0.003
   0.50000000  0.42857143  0.42857143       0.004
   0.50000000  0.50000000  0.42857143       0.002
   0.50000000  0.50000000  0.50000000       0.000
 
 position of ions in fractional coordinates (direct lattice) 
   0.00000000  0.00000000  0.00000000
   0.50000000  0.50000000  0.50000000
 
 position of ions in cartesian coordinates  (Angst):
   0.00000000  0.00000000  0.00000000
   1.41450444  1.41450444  1.41450444
 


--------------------------------------------------------------------------------------------------------


 k-point  1 :   0.0000 0.0000 0.0000  plane waves:     341
 k-point  2 :   0.0714 0.0000 0.0000  plane waves:     337
 k-point  3 :   0.1429 0.0000 0.0000  plane waves:     341
 k-point  4 :   0.2143 0.0000 0.0000  plane waves:     341
 k-point  5 :   0.2857 0.0000 0.0000  plane waves:     333
 k-point  6 :   0.3571 0.0000 0.0000  plane waves:     340
 k-point  7 :   0.4286 0.0000 0.0000  plane waves:     336
 k-point  8 :   0.5000 0.0000 0.0000  plane waves:     336
 k-point  9 :   0.0714 0.0714 0.0000  plane waves:     342
 k-point 10 :   0.1429 0.0714 0.0000  plane waves:     340
 k-point 11 :   0.2143 0.0714 0.0000  plane waves:     336
 k-point 12 :   0.2857 0.0714 0.0000  plane waves:     338
 k-point 13 :   0.3571 0.0714 0.0000  plane waves:     337
 k-point 14 :   0.4286 0.0714 0.0000  plane waves:     334
 k-point 15 :   0.5000 0.0714 0.0000  plane waves:     330
 k-point 16 :   0.1429 0.1429 0.0000  plane waves:     338
 k-point 17 :   0.2143 0.1429 0.0000  plane waves:     330
 k-point 18 :   0.2857 0.1429 0.0000  plane waves:     333
 k-point 19 :   0.3571 0.1429 0.0000  plane waves:     328
 k-point 20 :   0.4286 0.1429 0.0000  plane waves:     338
 k-point 21 :   0.5000 0.1429 0.0000  plane waves:     338
 k-point 22 :   0.2143 0.2143 0.0000  plane waves:     334
 k-point 23 :   0.2857 0.2143 0.0000  plane waves:     335
 k-point 24 :   0.3571 0.2143 0.0000  plane waves:     334
 k-point 25 :   0.4286 0.2143 0.0000  plane waves:     336
 k-point 26 :   0.5000 0.2143 0.0000  plane waves:     338
 k-point 27 :   0.2857 0.2857 0.0000  plane waves:     336
 k-point 28 :   0.3571 0.2857 0.0000  plane waves:     337
 k-point 29 :   0.4286 0.2857 0.0000  plane waves:     343
 k-point 30 :   0.5000 0.2857 0.0000  plane waves:     340
 k-point 31 :   0.3571 0.3571 0.0000  plane waves:     336
 k-point 32 :   0.4286 0.3571 0.0000  plane waves:     340
 k-point 33 :   0.5000 0.3571 0.0000  plane waves:     340
 k-point 34 :   0.4286 0.4286 0.0000  plane waves:     336
 k-point 35 :   0.5000 0.4286 0.0000  plane waves:     336
 k-point 36 :   0.5000 0.5000 0.0000  plane waves:     356
 k-point 37 :   0.0714 0.0714 0.0714  plane waves:     335
 k-point 38 :   0.1429 0.0714 0.0714  plane waves:     338
 k-point 39 :   0.2143 0.0714 0.0714  plane waves:     332
 k-point 40 :   0.2857 0.0714 0.0714  plane waves:     338
 k-point 41 :   0.3571 0.0714 0.0714  plane waves:     338
 k-point 42 :   0.4286 0.0714 0.0714  plane waves:     334
 k-point 43 :   0.5000 0.0714 0.0714  plane waves:     338
 k-point 44 :   0.1429 0.1429 0.0714  plane waves:     334
 k-point 45 :   0.2143 0.1429 0.0714  plane waves:     332
 k-point 46 :   0.2857 0.1429 0.0714  plane waves:     337
 k-point 47 :   0.3571 0.1429 0.0714  plane waves:     334
 k-point 48 :   0.4286 0.1429 0.0714  plane waves:     336
 k-point 49 :   0.5000 0.1429 0.0714  plane waves:     338
 k-point 50 :   0.2143 0.2143 0.0714  plane waves:     328
 k-point 51 :   0.2857 0.2143 0.0714  plane waves:     335
 k-point 52 :   0.3571 0.2143 0.0714  plane waves:     336
 k-point 53 :   0.4286 0.2143 0.0714  plane waves:     338
 k-point 54 :   0.5000 0.2143 0.0714  plane waves:     338
 k-point 55 :   0.2857 0.2857 0.0714  plane waves:     335
 k-point 56 :   0.3571 0.2857 0.0714  plane waves:     336
 k-point 57 :   0.4286 0.2857 0.0714  plane waves:     341
 k-point 58 :   0.5000 0.2857 0.0714  plane waves:     338
 k-point 59 :   0.3571 0.3571 0.0714  plane waves:     340
 k-point 60 :   0.4286 0.3571 0.0714  plane waves:     338
 k-point 61 :   0.5000 0.3571 0.0714  plane waves:     336
 k-point 62 :   0.4286 0.4286 0.0714  plane waves:     340
 k-point 63 :   0.5000 0.4286 0.0714  plane waves:     336
 k-point 64 :   0.5000 0.5000 0.0714  plane waves:     340
 k-point 65 :   0.1429 0.1429 0.1429  plane waves:     335
 k-point 66 :   0.2143 0.1429 0.1429  plane waves:     337
 k-point 67 :   0.2857 0.1429 0.1429  plane waves:     341
 k-point 68 :   0.3571 0.1429 0.1429  plane waves:     336
 k-point 69 :   0.4286 0.1429 0.1429  plane waves:     337
 k-point 70 :   0.5000 0.1429 0.1429  plane waves:     338
 k-point 71 :   0.2143 0.2143 0.1429  plane waves:     334
 k-point 72 :   0.2857 0.2143 0.1429  plane waves:     331
 k-point 73 :   0.3571 0.2143 0.1429  plane waves:     336
 k-point 74 :   0.4286 0.2143 0.1429  plane waves:     339
 k-point 75 :   0.5000 0.2143 0.1429  plane waves:     338
 k-point 76 :   0.2857 0.2857 0.1429  plane waves:     336
 k-point 77 :   0.3571 0.2857 0.1429  plane waves:     338
 k-point 78 :   0.4286 0.2857 0.1429  plane waves:     334
 k-point 79 :   0.5000 0.2857 0.1429  plane waves:     336
 k-point 80 :   0.3571 0.3571 0.1429  plane waves:     339
 k-point 81 :   0.4286 0.3571 0.1429  plane waves:     336
 k-point 82 :   0.5000 0.3571 0.1429  plane waves:     336
 k-point 83 :   0.4286 0.4286 0.1429  plane waves:     336
 k-point 84 :   0.5000 0.4286 0.1429  plane waves:     332
 k-point 85 :   0.5000 0.5000 0.1429  plane waves:     340
 k-point 86 :   0.2143 0.2143 0.2143  plane waves:     335
 k-point 87 :   0.2857 0.2143 0.2143  plane waves:     334
 k-point 88 :   0.3571 0.2143 0.2143  plane waves:     339
 k-point 89 :   0.4286 0.2143 0.2143  plane waves:     343
 k-point 90 :   0.5000 0.2143 0.2143  plane waves:     336
 k-point 91 :   0.2857 0.2857 0.2143  plane waves:     332
 k-point 92 :   0.3571 0.2857 0.2143  plane waves:     334
 k-point 93 :   0.4286 0.2857 0.2143  plane waves:     334
 k-point 94 :   0.5000 0.2857 0.2143  plane waves:     338
 k-point 95 :   0.3571 0.3571 0.2143  plane waves:     331
 k-point 96 :   0.4286 0.3571 0.2143  plane waves:     335
 k-point 97 :   0.5000 0.3571 0.2143  plane waves:     338
 k-point 98 :   0.4286 0.4286 0.2143  plane waves:     333
 k-point 99 :   0.5000 0.4286 0.2143  plane waves:     330
 k-point ** :   0.5000 0.5000 0.2143  plane waves:     332
 k-point ** :   0.2857 0.2857 0.2857  plane waves:     332
 k-point ** :   0.3571 0.2857 0.2857  plane waves:     327
 k-point ** :   0.4286 0.2857 0.2857  plane waves:     333
 k-point ** :   0.5000 0.2857 0.2857  plane waves:     330
 k-point ** :   0.3571 0.3571 0.2857  plane waves:     329
 k-point ** :   0.4286 0.3571 0.2857  plane waves:     329
 k-point ** :   0.5000 0.3571 0.2857  plane waves:     328
 k-point ** :   0.4286 0.4286 0.2857  plane waves:     329
 k-point ** :   0.5000 0.4286 0.2857  plane waves:     330
 k-point ** :   0.5000 0.5000 0.2857  plane waves:     324
 k-point ** :   0.3571 0.3571 0.3571  plane waves:     323
 k-point ** :   0.4286 0.3571 0.3571  plane waves:     328
 k-point ** :   0.5000 0.3571 0.3571  plane waves:     330
 k-point ** :   0.4286 0.4286 0.3571  plane waves:     327
 k-point ** :   0.5000 0.4286 0.3571  plane waves:     332
 k-point ** :   0.5000 0.5000 0.3571  plane waves:     324
 k-point ** :   0.4286 0.4286 0.4286  plane waves:     326
 k-point ** :   0.5000 0.4286 0.4286  plane waves:     326
 k-point ** :   0.5000 0.5000 0.4286  plane waves:     324
 k-point ** :   0.5000 0.5000 0.5000  plane waves:     304

 maximum and minimum number of plane-waves per node :        67       48

 maximum number of plane-waves:       356
 maximum index in each direction: 
   IXMAX=    4   IYMAX=    4   IZMAX=    4
   IXMIN=   -4   IYMIN=   -4   IZMIN=   -4


 parallel 3D FFT for wavefunctions:
    minimum data exchange during FFTs selected (reduces bandwidth)
 parallel 3D FFT for charge:
    minimum data exchange during FFTs selected (reduces bandwidth)


 total amount of memory used by VASP MPI-rank0    35745. kBytes
=======================================================================

   base      :      30000. kBytes
   nonl-proj :       1159. kBytes
   fftplans  :        302. kBytes
   grid      :        663. kBytes
   one-center:         31. kBytes
   wavefun   :       3590. kBytes
 
     INWAV:  cpu time    0.0000: real time    0.0000
 Broyden mixing: mesh for mixing (old mesh)
   NGX =  9   NGY =  9   NGZ =  9
  (NGX  = 36   NGY  = 36   NGZ  = 36)
  gives a total of    729 points

 initial charge density was supplied:
 charge density of overlapping atoms calculated
 number of electron      16.0000000 magnetization      -4.3480000
 keeping initial charge density in first step


--------------------------------------------------------------------------------------------------------


 Maximum index for augmentation-charges         1465 (set IRDMAX)


--------------------------------------------------------------------------------------------------------


 First call to EWALD:  gamma=   0.627
 Maximum number of real-space cells 3x 3x 3
 Maximum number of reciprocal cells 3x 3x 3

    FEWALD:  cpu time    0.0015: real time    0.0015


--------------------------------------- Iteration      1(   1)  ---------------------------------------


    POTLOK:  cpu time    0.0142: real time    0.0343
    SETDIJ:  cpu time    0.0013: real time    0.0013
     EDDAV:  cpu time    0.1957: real time    0.1975
       DOS:  cpu time    0.0015: real time    0.0015
    --------------------------------------------
      LOOP:  cpu time    0.2128: real time    0.2347

 eigenvalue-minimisations  :  5352
 total energy-change (2. order) : 0.7319961E+02  (-0.5896785E+03)
 number of electron      16.0000000 magnetization      -4.3480000
 augmentation part       16.0000000 magnetization      -4.3480000

 Free energy of the ion-electron system (eV)
  ---------------------------------------------------
  alpha Z        PSCENC =       122.10169127
  Ewald energy   TEWEN  =     -1185.52755918
  -Hartree energ DENC   =      -222.53661930
  -exchange      EXHF   =         0.00000000
  -V(xc)+E(xc)   XCENC  =         9.05768293
  PAW double counting   =      1108.55857356    -1123.98403091
  entropy T*S    EENTRO =        -0.00001902
  eigenvalues    EBANDS =       176.94073467
  atomic energy  EATOM  =      1188.58915604
  Solvation  Ediel_sol  =         0.00000000
  ---------------------------------------------------
  free energy    TOTEN  =        73.19961007 eV

  energy without entropy =       73.19962909  energy(sigma->0) =       73.19961641


--------------------------------------------------------------------------------------------------------




--------------------------------------- Iteration      1(   2)  ---------------------------------------


     EDDAV:  cpu time    0.1862: real time    0.1899
       DOS:  cpu time    0.0015: real time    0.0015
    --------------------------------------------
      LOOP:  cpu time    0.1877: real time    0.1914

 eigenvalue-minimisations  :  5313
 total energy-change (2. order) :-0.8735904E+02  (-0.8245552E+02)
 number of electron      16.0000000 magnetization      -4.3480000
 augmentation part       16.0000000 magnetization      -4.3480000

 Free energy of the ion-electron system (eV)
  ---------------------------------------------------
  alpha Z        PSCENC =       122.10169127
  Ewald energy   TEWEN  =     -1185.52755918
  -Hartree energ DENC   =      -222.53661930
  -exchange      EXHF   =         0.00000000
  -V(xc)+E(xc)   XCENC  =         9.05768293
  PAW double counting   =      1108.55857356    -1123.98403091
  entropy T*S    EENTRO =        -0.00000768
  eigenvalues    EBANDS =        89.58168012
  atomic energy  EATOM  =      1188.58915604
  Solvation  Ediel_sol  =         0.00000000
  ---------------------------------------------------
  free energy    TOTEN  =       -14.15943314 eV

  energy without entropy =      -14.15942546  energy(sigma->0) =      -14.15943058


--------------------------------------------------------------------------------------------------------




--------------------------------------- Iteration      1(   3)  ---------------------------------------


     EDDAV:  cpu time    0.2341: real time    0.2754
       DOS:  cpu time    0.0015: real time    0.0015
    --------------------------------------------
      LOOP:  cpu time    0.2356: real time    0.2769

 eigenvalue-minimisations  :  7375
 total energy-change (2. order) :-0.4163114E+01  (-0.3787323E+01)
 number of electron      16.0000000 magnetization      -4.3480000
 augmentation part       16.0000000 magnetization      -4.3480000

 Free energy of the ion-electron system (eV)
  ---------------------------------------------------
  alpha Z        PSCENC =       122.10169127
  Ewald energy   TEWEN  =     -1185.52755918
  -Hartree energ DENC   =      -222.53661930
  -exchange      EXHF   =         0.00000000
  -V(xc)+E(xc)   XCENC  =         9.05768293
  PAW double counting   =      1108.55857356    -1123.98403091
  entropy T*S    EENTRO =         0.00000631
  eigenvalues    EBANDS =        85.41855205
  atomic energy  EATOM  =      1188.58915604
  Solvation  Ediel_sol  =         0.00000000
  ---------------------------------------------------
  free energy    TOTEN  =       -18.32254722 eV

  energy without entropy =      -18.32255353  energy(sigma->0) =      -18.32254932


--------------------------------------------------------------------------------------------------------




--------------------------------------- Iteration      1(   4)  ---------------------------------------


     EDDAV:  cpu time    0.2277: real time    0.2325
       DOS:  cpu time    0.0016: real time    0.0016
    --------------------------------------------
      LOOP:  cpu time    0.2293: real time    0.2341

 eigenvalue-minimisations  :  6703
 total energy-change (2. order) :-0.2364899E+00  (-0.2104782E+00)
 number of electron      16.0000000 magnetization      -4.3480000
 augmentation part       16.0000000 magnetization      -4.3480000

 Free energy of the ion-electron system (eV)
  ---------------------------------------------------
  alpha Z        PSCENC =       122.10169127
  Ewald energy   TEWEN  =     -1185.52755918
  -Hartree energ DENC   =      -222.53661930
  -exchange      EXHF   =         0.00000000
  -V(xc)+E(xc)   XCENC  =         9.05768293
  PAW double counting   =      1108.55857356    -1123.98403091
  entropy T*S    EENTRO =         0.00001147
  eigenvalues    EBANDS =        85.18205702
  atomic energy  EATOM  =      1188.58915604
  Solvation  Ediel_sol  =         0.00000000
  ---------------------------------------------------
  free energy    TOTEN  =       -18.55903708 eV

  energy without entropy =      -18.55904855  energy(sigma->0) =      -18.55904091


--------------------------------------------------------------------------------------------------------




--------------------------------------- Iteration      1(   5)  ---------------------------------------


     EDDAV:  cpu time    0.2092: real time    0.2146
       DOS:  cpu time    0.0015: real time    0.0015
    CHARGE:  cpu time    0.0136: real time    0.0136
    MIXING:  cpu time    0.0006: real time    0.0006
    --------------------------------------------
      LOOP:  cpu time    0.2250: real time    0.2305

 eigenvalue-minimisations  :  6478
 total energy-change (2. order) :-0.4646515E-02  (-0.4646227E-02)
 number of electron      15.9999979 magnetization      -3.7256525
 augmentation part        7.2248087 magnetization      -2.6206132

 Broyden mixing:
  rms(total) = 0.16042E+01    rms(broyden)= 0.16033E+01
  rms(prec ) = 0.36353E+01
  weight for this iteration     100.00

 Free energy of the ion-electron system (eV)
  ---------------------------------------------------
  alpha Z        PSCENC =       122.10169127
  Ewald energy   TEWEN  =     -1185.52755918
  -Hartree energ DENC   =      -222.53661930
  -exchange      EXHF   =         0.00000000
  -V(xc)+E(xc)   XCENC  =         9.05768293
  PAW double counting   =      1108.55857356    -1123.98403091
  entropy T*S    EENTRO =         0.00001211
  eigenvalues    EBANDS =        85.17740987
  atomic energy  EATOM  =      1188.58915604
  Solvation  Ediel_sol  =         0.00000000
  ---------------------------------------------------
  free energy    TOTEN  =       -18.56368360 eV

  energy without entropy =      -18.56369570  energy(sigma->0) =      -18.56368763


--------------------------------------------------------------------------------------------------------




--------------------------------------- Iteration      1(   6)  ---------------------------------------


    POTLOK:  cpu time    0.0097: real time    0.0131
    SETDIJ:  cpu time    0.0056: real time    0.0056
     EDDAV:  cpu time    0.2187: real time    0.2196
       DOS:  cpu time    0.0015: real time    0.0015
    CHARGE:  cpu time    0.0129: real time    0.0129
    MIXING:  cpu time    0.0006: real time    0.0006
    --------------------------------------------
      LOOP:  cpu time    0.2491: real time    0.2533

 eigenvalue-minimisations  :  6754
 total energy-change (2. order) : 0.1922239E+01  (-0.2524554E+01)
 number of electron      15.9999978 magnetization      -4.2563740
 augmentation part        8.5734908 magnetization      -3.4706861

 Broyden mixing:
  rms(total) = 0.78030E+00    rms(broyden)= 0.78004E+00
  rms(prec ) = 0.97286E+00
  weight for this iteration     100.00

 eigenvalues of (default mixing * dielectric matrix)
  average eigenvalue GAMMA=   0.6958
  0.6958

 Free energy of the ion-electron system (eV)
  ---------------------------------------------------
  alpha Z        PSCENC =       122.10169127
  Ewald energy   TEWEN  =     -1185.52755918
  -Hartree energ DENC   =      -188.98693975
  -exchange      EXHF   =         0.00000000
  -V(xc)+E(xc)   XCENC  =         7.79918837
  PAW double counting   =      1215.36613699    -1226.55029966
  entropy T*S    EENTRO =         0.00000444
  eigenvalues    EBANDS =        50.56717667
  atomic energy  EATOM  =      1188.58915604
  Solvation  Ediel_sol  =         0.00000000
  ---------------------------------------------------
  free energy    TOTEN  =       -16.64144480 eV

  energy without entropy =      -16.64144924  energy(sigma->0) =      -16.64144628


--------------------------------------------------------------------------------------------------------




--------------------------------------- Iteration      1(   7)  ---------------------------------------


    POTLOK:  cpu time    0.0091: real time    0.0144
    SETDIJ:  cpu time    0.0052: real time    0.0052
     EDDAV:  cpu time    0.2087: real time    0.2094
       DOS:  cpu time    0.0016: real time    0.0016
    CHARGE:  cpu time    0.0130: real time    0.0130
    MIXING:  cpu time    0.0005: real time    0.0005
    --------------------------------------------
      LOOP:  cpu time    0.2381: real time    0.2441

 eigenvalue-minimisations  :  6323
 total energy-change (2. order) : 0.1333609E+00  (-0.1445254E+00)
 number of electron      15.9999978 magnetization      -4.3412595
 augmentation part        8.2683605 magnetization      -3.5697251

 Broyden mixing:
  rms(total) = 0.46656E+00    rms(broyden)= 0.46655E+00
  rms(prec ) = 0.52124E+00
  weight for this iteration     100.00

 eigenvalues of (default mixing * dielectric matrix)
  average eigenvalue GAMMA=   0.8224
  1.1268  0.5180

 Free energy of the ion-electron system (eV)
  ---------------------------------------------------
  alpha Z        PSCENC =       122.10169127
  Ewald energy   TEWEN  =     -1185.52755918
  -Hartree energ DENC   =      -193.77087757
  -exchange      EXHF   =         0.00000000
  -V(xc)+E(xc)   XCENC  =         8.62437832
  PAW double counting   =      1291.57273512    -1306.41750497
  entropy T*S    EENTRO =        -0.00003020
  eigenvalues    EBANDS =        58.31992725
  atomic energy  EATOM  =      1188.58915604
  Solvation  Ediel_sol  =         0.00000000
  ---------------------------------------------------
  free energy    TOTEN  =       -16.50808393 eV

  energy without entropy =      -16.50805372  energy(sigma->0) =      -16.50807386


--------------------------------------------------------------------------------------------------------




--------------------------------------- Iteration      1(   8)  ---------------------------------------


    POTLOK:  cpu time    0.0119: real time    0.0120
    SETDIJ:  cpu time    0.0051: real time    0.0051
     EDDAV:  cpu time    0.1986: real time    0.1993
       DOS:  cpu time    0.0016: real time    0.0016
    CHARGE:  cpu time    0.0130: real time    0.0130
    MIXING:  cpu time    0.0015: real time    0.0015
    --------------------------------------------
      LOOP:  cpu time    0.2317: real time    0.2324

 eigenvalue-minimisations  :  6007
 total energy-change (2. order) : 0.7731428E-02  (-0.1635286E-02)
 number of electron      15.9999979 magnetization      -4.4528199
 augmentation part        8.2719660 magnetization      -3.6745926

 Broyden mixing:
  rms(total) = 0.20854E+00    rms(broyden)= 0.20853E+00
  rms(prec ) = 0.27001E+00
  weight for this iteration     100.00

 eigenvalues of (default mixing * dielectric matrix)
  average eigenvalue GAMMA=   1.0431
  1.7718  0.6787  0.6787

 Free energy of the ion-electron system (eV)
  ---------------------------------------------------
  alpha Z        PSCENC =       122.10169127
  Ewald energy   TEWEN  =     -1185.52755918
  -Hartree energ DENC   =      -192.46916467
  -exchange      EXHF   =         0.00000000
  -V(xc)+E(xc)   XCENC  =         8.67048259
  PAW double counting   =      1339.55558123    -1355.60703346
  entropy T*S    EENTRO =        -0.00001512
  eigenvalues    EBANDS =        58.18650881
  atomic energy  EATOM  =      1188.58915604
  Solvation  Ediel_sol  =         0.00000000
  ---------------------------------------------------
  free energy    TOTEN  =       -16.50035250 eV

  energy without entropy =      -16.50033737  energy(sigma->0) =      -16.50034746


--------------------------------------------------------------------------------------------------------




--------------------------------------- Iteration      1(   9)  ---------------------------------------


    POTLOK:  cpu time    0.0089: real time    0.0117
    SETDIJ:  cpu time    0.0051: real time    0.0051
     EDDAV:  cpu time    0.2048: real time    0.2055
       DOS:  cpu time    0.0016: real time    0.0016
    CHARGE:  cpu time    0.0131: real time    0.0177
    MIXING:  cpu time    0.0011: real time    0.0011
    --------------------------------------------
      LOOP:  cpu time    0.2344: real time    0.2426

 eigenvalue-minimisations  :  6248
 total energy-change (2. order) : 0.1365258E-01  (-0.9751963E-03)
 number of electron      15.9999979 magnetization      -4.4224146
 augmentation part        8.2940788 magnetization      -3.6429103

 Broyden mixing:
  rms(total) = 0.51236E-01    rms(broyden)= 0.51191E-01
  rms(prec ) = 0.61389E-01
  weight for this iteration     100.00

 eigenvalues of (default mixing * dielectric matrix)
  average eigenvalue GAMMA=   1.2957
  2.6380  1.1215  0.7968  0.6266

 Free energy of the ion-electron system (eV)
  ---------------------------------------------------
  alpha Z        PSCENC =       122.10169127
  Ewald energy   TEWEN  =     -1185.52755918
  -Hartree energ DENC   =      -190.12690662
  -exchange      EXHF   =         0.00000000
  -V(xc)+E(xc)   XCENC  =         8.72180044
  PAW double counting   =      1420.05137143    -1437.92760540
  entropy T*S    EENTRO =         0.00001202
  eigenvalues    EBANDS =        57.63134010
  atomic energy  EATOM  =      1188.58915604
  Solvation  Ediel_sol  =         0.00000000
  ---------------------------------------------------
  free energy    TOTEN  =       -16.48669992 eV

  energy without entropy =      -16.48671194  energy(sigma->0) =      -16.48670392


--------------------------------------------------------------------------------------------------------




--------------------------------------- Iteration      1(  10)  ---------------------------------------


    POTLOK:  cpu time    0.0091: real time    0.0127
    SETDIJ:  cpu time    0.0481: real time    0.0482
     EDDAV:  cpu time    0.2079: real time    0.2087
       DOS:  cpu time    0.0015: real time    0.0015
    CHARGE:  cpu time    0.0134: real time    0.0134
    MIXING:  cpu time    0.0006: real time    0.0006
    --------------------------------------------
      LOOP:  cpu time    0.2806: real time    0.2852

 eigenvalue-minimisations  :  6000
 total energy-change (2. order) : 0.1598534E-03  (-0.1247108E-03)
 number of electron      15.9999979 magnetization      -4.4248242
 augmentation part        8.2986685 magnetization      -3.6430798

 Broyden mixing:
  rms(total) = 0.88866E-02    rms(broyden)= 0.88707E-02
  rms(prec ) = 0.10124E-01
  weight for this iteration     100.00

 eigenvalues of (default mixing * dielectric matrix)
  average eigenvalue GAMMA=   1.2000
  2.6122  1.1844  0.8229  0.7343  0.6463

 Free energy of the ion-electron system (eV)
  ---------------------------------------------------
  alpha Z        PSCENC =       122.10169127
  Ewald energy   TEWEN  =     -1185.52755918
  -Hartree energ DENC   =      -189.44926680
  -exchange      EXHF   =         0.00000000
  -V(xc)+E(xc)   XCENC  =         8.67768377
  PAW double counting   =      1447.79729006    -1466.20337792
  entropy T*S    EENTRO =         0.00002719
  eigenvalues    EBANDS =        57.52781550
  atomic energy  EATOM  =      1188.58915604
  Solvation  Ediel_sol  =         0.00000000
  ---------------------------------------------------
  free energy    TOTEN  =       -16.48654006 eV

  energy without entropy =      -16.48656726  energy(sigma->0) =      -16.48654913


--------------------------------------------------------------------------------------------------------




--------------------------------------- Iteration      1(  11)  ---------------------------------------


    POTLOK:  cpu time    0.0097: real time    0.0127
    SETDIJ:  cpu time    0.0054: real time    0.0054
     EDDAV:  cpu time    0.1879: real time    0.1887
       DOS:  cpu time    0.0015: real time    0.0015
    CHARGE:  cpu time    0.0133: real time    0.0133
    MIXING:  cpu time    0.0006: real time    0.0006
    --------------------------------------------
      LOOP:  cpu time    0.2185: real time    0.2222

 eigenvalue-minimisations  :  5515
 total energy-change (2. order) :-0.6629880E-05  (-0.9572197E-05)
 number of electron      15.9999979 magnetization      -4.4263808
 augmentation part        8.2993188 magnetization      -3.6436824

 Broyden mixing:
  rms(total) = 0.34195E-02    rms(broyden)= 0.34177E-02
  rms(prec ) = 0.48993E-02
  weight for this iteration     100.00

 eigenvalues of (default mixing * dielectric matrix)
  average eigenvalue GAMMA=   1.1398
  2.5429  1.0600  1.0600  0.8337  0.6504  0.6920

 Free energy of the ion-electron system (eV)
  ---------------------------------------------------
  alpha Z        PSCENC =       122.10169127
  Ewald energy   TEWEN  =     -1185.52755918
  -Hartree energ DENC   =      -189.51936289
  -exchange      EXHF   =         0.00000000
  -V(xc)+E(xc)   XCENC  =         8.67648624
  PAW double counting   =      1445.56824498    -1463.88923322
  entropy T*S    EENTRO =         0.00003158
  eigenvalues    EBANDS =        57.51399850
  atomic energy  EATOM  =      1188.58915604
  Solvation  Ediel_sol  =         0.00000000
  ---------------------------------------------------
  free energy    TOTEN  =       -16.48654669 eV

  energy without entropy =      -16.48657827  energy(sigma->0) =      -16.48655722


--------------------------------------------------------------------------------------------------------




--------------------------------------- Iteration      1(  12)  ---------------------------------------


    POTLOK:  cpu time    0.0119: real time    0.0120
    SETDIJ:  cpu time    0.0049: real time    0.0049
     EDDAV:  cpu time    0.2056: real time    0.2063
       DOS:  cpu time    0.0015: real time    0.0015
    CHARGE:  cpu time    0.0129: real time    0.0129
    MIXING:  cpu time    0.0006: real time    0.0006
    --------------------------------------------
      LOOP:  cpu time    0.2375: real time    0.2382

 eigenvalue-minimisations  :  5838
 total energy-change (2. order) : 0.5204210E-05  (-0.4279424E-06)
 number of electron      15.9999979 magnetization      -4.4259579
 augmentation part        8.2991464 magnetization      -3.6436094

 Broyden mixing:
  rms(total) = 0.11043E-02    rms(broyden)= 0.11040E-02
  rms(prec ) = 0.19502E-02
  weight for this iteration     100.00

 eigenvalues of (default mixing * dielectric matrix)
  average eigenvalue GAMMA=   1.3081
  2.5348  2.5348  1.1553  0.8570  0.6342  0.7202  0.7202

 Free energy of the ion-electron system (eV)
  ---------------------------------------------------
  alpha Z        PSCENC =       122.10169127
  Ewald energy   TEWEN  =     -1185.52755918
  -Hartree energ DENC   =      -189.56538301
  -exchange      EXHF   =         0.00000000
  -V(xc)+E(xc)   XCENC  =         8.68005081
  PAW double counting   =      1444.67902576    -1462.96024680
  entropy T*S    EENTRO =         0.00002768
  eigenvalues    EBANDS =        57.51669594
  atomic energy  EATOM  =      1188.58915604
  Solvation  Ediel_sol  =         0.00000000
  ---------------------------------------------------
  free energy    TOTEN  =       -16.48654149 eV

  energy without entropy =      -16.48656917  energy(sigma->0) =      -16.48655072


--------------------------------------------------------------------------------------------------------




--------------------------------------- Iteration      1(  13)  ---------------------------------------


    POTLOK:  cpu time    0.0145: real time    0.0146
    SETDIJ:  cpu time    0.0035: real time    0.0035
     EDDAV:  cpu time    0.1977: real time    0.1984
       DOS:  cpu time    0.0015: real time    0.0015
    CHARGE:  cpu time    0.0130: real time    0.0130
    MIXING:  cpu time    0.0006: real time    0.0006
    --------------------------------------------
      LOOP:  cpu time    0.2307: real time    0.2315

 eigenvalue-minimisations  :  5967
 total energy-change (2. order) : 0.3110315E-05  (-0.1750428E-06)
 number of electron      15.9999979 magnetization      -4.4261367
 augmentation part        8.2988696 magnetization      -3.6437672

 Broyden mixing:
  rms(total) = 0.61421E-03    rms(broyden)= 0.61418E-03
  rms(prec ) = 0.79439E-03
  weight for this iteration     100.00

 eigenvalues of (default mixing * dielectric matrix)
  average eigenvalue GAMMA=   1.2455
  2.5945  2.5945  1.1271  0.8853  0.7815  0.6390  0.6712  0.6712

 Free energy of the ion-electron system (eV)
  ---------------------------------------------------
  alpha Z        PSCENC =       122.10169127
  Ewald energy   TEWEN  =     -1185.52755918
  -Hartree energ DENC   =      -189.60141352
  -exchange      EXHF   =         0.00000000
  -V(xc)+E(xc)   XCENC  =         8.68199804
  PAW double counting   =      1445.10291501    -1463.35416953
  entropy T*S    EENTRO =         0.00002911
  eigenvalues    EBANDS =        57.52081438
  atomic energy  EATOM  =      1188.58915604
  Solvation  Ediel_sol  =         0.00000000
  ---------------------------------------------------
  free energy    TOTEN  =       -16.48653838 eV

  energy without entropy =      -16.48656749  energy(sigma->0) =      -16.48654808


--------------------------------------------------------------------------------------------------------




--------------------------------------- Iteration      1(  14)  ---------------------------------------


    POTLOK:  cpu time    0.0090: real time    0.0136
    SETDIJ:  cpu time    0.0051: real time    0.0051
     EDDAV:  cpu time    0.1234: real time    0.1245
       DOS:  cpu time    0.0016: real time    0.0016
    CHARGE:  cpu time    0.0130: real time    0.0130
    MIXING:  cpu time    0.0006: real time    0.0006
    --------------------------------------------
      LOOP:  cpu time    0.1526: real time    0.1583

 eigenvalue-minimisations  :  2673
 total energy-change (2. order) :-0.8113054E-06  (-0.3925633E-08)
 number of electron      15.9999979 magnetization      -4.4261192
 augmentation part        8.2989129 magnetization      -3.6437449

 Broyden mixing:
  rms(total) = 0.83547E-04    rms(broyden)= 0.83506E-04
  rms(prec ) = 0.15879E-03
  weight for this iteration     100.00

 eigenvalues of (default mixing * dielectric matrix)
  average eigenvalue GAMMA=   1.2158
  2.6266  2.5272  1.0952  1.0952  0.8936  0.7254  0.7254  0.6269  0.6269

 Free energy of the ion-electron system (eV)
  ---------------------------------------------------
  alpha Z        PSCENC =       122.10169127
  Ewald energy   TEWEN  =     -1185.52755918
  -Hartree energ DENC   =      -189.59436997
  -exchange      EXHF   =         0.00000000
  -V(xc)+E(xc)   XCENC  =         8.68169886
[...]
      9       5.0233      1.00000
     10       5.0233      1.00000
     11      12.3968      0.00000

 k-point   119 :       0.5000    0.5000    0.4286
  band No.  band energies     occupation 
      1       2.4583      1.00000
      2       2.4583      1.00000
      3       2.5049      1.00000
      4       2.5049      1.00000
      5       2.8305      1.00000
      6       2.8305      1.00000
      7       5.0201      1.00000
      8       5.0201      1.00000
      9       5.0248      1.00000
     10       5.0248      1.00000
     11      13.1116      0.00000

 k-point   120 :       0.5000    0.5000    0.5000
  band No.  band energies     occupation 
      1       2.6025      1.00000
      2       2.6025      1.00000
      3       2.6025      1.00000
      4       2.6025      1.00000
      5       2.6025      1.00000
      6       2.6025      1.00000
      7       5.0267      1.00000
      8       5.0267      1.00000
      9       5.0267      1.00000
     10       5.0267      1.00000
     11      14.5081      0.00000


--------------------------------------------------------------------------------------------------------


 soft charge-density along one line, spin component           1
         0         1         2         3         4         5         6         7         8         9
 total charge-density along one line
 
 soft charge-density along one line, spin component           2
         0         1         2         3         4         5         6         7         8         9
 total charge-density along one line
 
 pseudopotential strength for first ion, spin component:           1
 -4.103   0.000  -0.000   0.000   0.000  -4.681   0.000  -0.000
  0.000  -4.103   0.000   0.000   0.000   0.000  -4.681   0.000
 -0.000   0.000  -3.885   0.000  -0.000  -0.000   0.000  -4.468
  0.000   0.000   0.000  -4.103   0.000   0.000   0.000   0.000
  0.000   0.000  -0.000   0.000  -3.885   0.000   0.000  -0.000
 -4.681   0.000  -0.000   0.000   0.000  -5.215   0.000  -0.000
  0.000  -4.681   0.000   0.000   0.000   0.000  -5.215   0.000
 -0.000   0.000  -4.468   0.000  -0.000  -0.000   0.000  -5.007
  0.000   0.000   0.000  -4.681   0.000   0.000   0.000   0.000
  0.000   0.000  -0.000   0.000  -4.468   0.000   0.000  -0.000
 -0.000  -0.000  -0.000  -0.000  -0.000  -0.000  -0.000  -0.000
 -0.000  -0.000  -0.000  -0.000  -0.000  -0.000  -0.000  -0.000
  0.000   0.000  -0.000  -0.000  -0.000   0.000   0.000  -0.000
 -0.000   0.000   0.000   0.000  -0.000  -0.000   0.000   0.000
  0.000  -0.000  -0.000   0.000   0.000   0.000  -0.000  -0.000
  0.000   0.000  -0.000  -0.000  -0.000   0.000   0.000  -0.000
 -0.000   0.000   0.000   0.000  -0.000  -0.000   0.000   0.000
  0.000  -0.000  -0.000   0.000   0.000   0.000  -0.000  -0.000
 pseudopotential strength for first ion, spin component:           2
 -5.595  -0.000   0.000   0.000   0.000  -6.125  -0.000   0.000
 -0.000  -5.595   0.000  -0.000  -0.000  -0.000  -6.125   0.000
  0.000   0.000  -5.759  -0.000  -0.000   0.000   0.000  -6.285
  0.000  -0.000  -0.000  -5.595  -0.000   0.000  -0.000  -0.000
  0.000  -0.000  -0.000  -0.000  -5.759   0.000  -0.000  -0.000
 -6.125  -0.000   0.000   0.000   0.000  -6.614  -0.000   0.000
 -0.000  -6.125   0.000  -0.000  -0.000  -0.000  -6.614   0.000
  0.000   0.000  -6.285  -0.000  -0.000   0.000   0.000  -6.769
  0.000  -0.000  -0.000  -6.125  -0.000   0.000  -0.000  -0.000
  0.000  -0.000  -0.000  -0.000  -6.285   0.000  -0.000  -0.000
  0.000  -0.000  -0.000   0.000  -0.000   0.000  -0.000  -0.000
  0.000  -0.000  -0.000   0.000  -0.000   0.000  -0.000  -0.000
  0.000   0.000  -0.000  -0.000  -0.000   0.000   0.000  -0.000
 -0.000   0.000   0.000   0.000  -0.000  -0.000   0.000   0.000
  0.000  -0.000  -0.000   0.000   0.000   0.000  -0.000  -0.000
  0.000   0.000  -0.000  -0.000  -0.000   0.000   0.000  -0.000
 -0.000   0.000   0.000   0.000  -0.000  -0.000   0.000   0.000
  0.000  -0.000  -0.000   0.000   0.000   0.000  -0.000  -0.000
 total augmentation occupancy for first ion, spin component:           1
  2.326  -0.000  -0.000   0.000   0.000  -1.313  -0.000  -0.000   0.000   0.000   0.000  -0.000   0.000  -0.000   0.000   0.000
  0.000   2.326   0.000   0.000  -0.000   0.000  -1.313   0.000  -0.000   0.000   0.000  -0.000  -0.000  -0.000  -0.000   0.000
 -0.000  -0.000   3.629  -0.000   0.000  -0.000   0.000  -2.357   0.000   0.000  -0.000   0.000   0.000   0.000  -0.000   0.000
  0.000   0.000   0.000   2.326   0.000  -0.000   0.000   0.000  -1.313   0.000   0.000   0.000  -0.000   0.000  -0.000  -0.000
 -0.000  -0.000   0.000   0.000   3.629  -0.000  -0.000   0.000   0.000  -2.357  -0.000  -0.000   0.000   0.000   0.000  -0.000
 -1.313   0.000  -0.000   0.000  -0.000   1.693  -0.000  -0.000   0.000   0.000   0.000   0.000  -0.000   0.000   0.000   0.000
 -0.000  -1.313   0.000   0.000  -0.000  -0.000   1.693   0.000  -0.000  -0.000   0.000   0.000  -0.000   0.000  -0.000  -0.000
 -0.000  -0.000  -2.357  -0.000   0.000  -0.000   0.000   2.348   0.000   0.000  -0.000  -0.000  -0.000   0.000  -0.000   0.000
  0.000  -0.000   0.000  -1.313   0.000   0.000  -0.000   0.000   1.693   0.000  -0.000  -0.000  -0.000  -0.000   0.000   0.000
  0.000   0.000   0.000   0.000  -2.357   0.000  -0.000   0.000   0.000   2.348   0.000   0.000  -0.000   0.000   0.000   0.000
  0.000   0.000  -0.000  -0.000  -0.000   0.000   0.000   0.000  -0.000  -0.000   2.437  -0.285   0.000   0.000   0.000   0.000
 -0.000  -0.000   0.000  -0.000   0.000   0.000   0.000  -0.000  -0.000   0.000  -0.285   0.039   0.000   0.000  -0.000   0.000
 -0.000   0.000   0.000  -0.000   0.000  -0.000   0.000   0.000  -0.000   0.000   0.000   0.000   0.296   0.000  -0.000  -0.026
 -0.000   0.000   0.000   0.000   0.000   0.000   0.000   0.000   0.000   0.000   0.000   0.000  -0.000   0.296  -0.000   0.000
 -0.000  -0.000   0.000   0.000   0.000   0.000  -0.000   0.000   0.000   0.000   0.000   0.000  -0.000  -0.000   0.296   0.000
  0.000   0.000   0.000   0.000  -0.000   0.000   0.000   0.000   0.000  -0.000   0.000   0.000  -0.026   0.000   0.000   0.003
 -0.000   0.000   0.000  -0.000  -0.000  -0.000   0.000   0.000   0.000   0.000   0.000   0.000   0.000  -0.026  -0.000   0.000
  0.000   0.000   0.000   0.000  -0.000  -0.000  -0.000   0.000   0.000   0.000   0.000   0.000   0.000   0.000  -0.026   0.000
 total augmentation occupancy for first ion, spin component:           2
 -1.946  -0.000   0.000  -0.000  -0.000   0.813  -0.000  -0.000  -0.000   0.000  -0.000  -0.000   0.000  -0.000   0.000   0.000
 -0.000  -1.946  -0.000  -0.000  -0.000  -0.000   0.813   0.000  -0.000  -0.000  -0.000  -0.000   0.000   0.000   0.000   0.000
 -0.000  -0.000  -3.075  -0.000  -0.000  -0.000  -0.000   1.372  -0.000  -0.000  -0.000   0.000   0.000   0.000   0.000   0.000
  0.000  -0.000   0.000  -1.946  -0.000   0.000  -0.000   0.000   0.813  -0.000   0.000   0.000   0.000   0.000   0.000   0.000
 -0.000  -0.000   0.000  -0.000  -3.075   0.000   0.000   0.000   0.000   1.372   0.000  -0.000   0.000   0.000  -0.000   0.000
  0.813   0.000  -0.000   0.000   0.000  -0.090  -0.000  -0.000  -0.000   0.000   0.000  -0.000   0.000   0.000  -0.000   0.000
 -0.000   0.813  -0.000  -0.000  -0.000   0.000  -0.090   0.000  -0.000  -0.000   0.000  -0.000   0.000  -0.000   0.000   0.000
 -0.000   0.000   1.372   0.000  -0.000  -0.000  -0.000  -0.380   0.000   0.000   0.000  -0.000  -0.000   0.000  -0.000   0.000
 -0.000  -0.000  -0.000   0.813  -0.000  -0.000   0.000   0.000  -0.090   0.000  -0.000   0.000   0.000   0.000  -0.000   0.000
 -0.000  -0.000   0.000  -0.000   1.372   0.000  -0.000   0.000   0.000  -0.380   0.000  -0.000  -0.000   0.000  -0.000   0.000
 -0.000  -0.000  -0.000   0.000   0.000   0.000   0.000   0.000   0.000   0.000   0.336  -0.101   0.000   0.000  -0.000   0.000
 -0.000  -0.000   0.000   0.000   0.000  -0.000  -0.000  -0.000   0.000   0.000  -0.101   0.018   0.000   0.000   0.000   0.000
 -0.000  -0.000   0.000   0.000   0.000   0.000  -0.000  -0.000  -0.000   0.000   0.000   0.000   0.037   0.000   0.000  -0.006
 -0.000  -0.000   0.000   0.000   0.000  -0.000  -0.000   0.000   0.000   0.000   0.000   0.000   0.000   0.037  -0.000  -0.000
 -0.000   0.000   0.000  -0.000  -0.000   0.000  -0.000  -0.000  -0.000   0.000   0.000   0.000  -0.000  -0.000   0.037   0.000
  0.000   0.000   0.000  -0.000   0.000   0.000   0.000   0.000   0.000   0.000   0.000   0.000  -0.006   0.000   0.000   0.001
  0.000   0.000   0.000   0.000   0.000   0.000   0.000   0.000   0.000   0.000   0.000   0.000   0.000  -0.006   0.000   0.000
  0.000  -0.000   0.000   0.000   0.000   0.000   0.000   0.000   0.000   0.000   0.000   0.000  -0.000   0.000  -0.006   0.000


------------------------ aborting loop because EDIFF is reached ----------------------------------------



 ----------------------------------------------------------------------------- 
|                                                                             |
|           W    W    AA    RRRRR   N    N  II  N    N   GGGG   !!!           |
|           W    W   A  A   R    R  NN   N  II  NN   N  G    G  !!!           |
|           W    W  A    A  R    R  N N  N  II  N N  N  G       !!!           |
|           W WW W  AAAAAA  RRRRR   N  N N  II  N  N N  G  GGG   !            |
|           WW  WW  A    A  R   R   N   NN  II  N   NN  G    G                |
|           W    W  A    A  R    R  N    N  II  N    N   GGGG   !!!           |
|                                                                             |
|      Your highest band is occupied at some k-points! Unless you are         |
|      performing a calculation for an insulator or semiconductor, without    |
|      unoccupied bands, you have included TOO FEW BANDS!! Please increase    |
|      the parameter NBANDS in file INCAR to ensure that the highest band     |
|      is unoccupied at all k-points. It is always recommended to             |
|      include a few unoccupied bands to accelerate the convergence of        |
|      molecular dynamics runs (even for insulators or semiconductors).       |
|      Because the presence of unoccupied bands improves wavefunction         |
|      prediction, and helps to suppress 'band-crossings.'                    |
|      Following all k-points will be listed (with the Fermi weights of       |
|      the highest band given in paranthesis) ... :                           |
|                                                                             |
|                          3       ( 1.00011)                                 |
|                          4       ( 1.00000)                                 |
|                          5       ( 1.00000)                                 |
|                          6       ( 1.00000)                                 |
|                          7       ( 1.00000)                                 |
|                         11       ( 1.00000)                                 |
|                         12       ( 1.00000)                                 |
|                         13       ( 1.00000)                                 |
|                         14       ( 1.00000)                                 |
|                         18       (-0.02077)                                 |
|                         19       ( 1.00000)                                 |
|                         20       ( 1.00000)                                 |
|                         25       ( 1.00000)                                 |
|                         37       (-0.01051)                                 |
|                         39       ( 1.00057)                                 |
|                         40       ( 1.00000)                                 |
|                         41       ( 1.00000)                                 |
|                         42       ( 1.00000)                                 |
|                         46       ( 1.00000)                                 |
|                         47       ( 1.00000)                                 |
|                         48       ( 1.00000)                                 |
|                         52       ( 0.98008)                                 |
|                         53       ( 1.00000)                                 |
|                         65       ( 1.00000)                                 |
|                         66       ( 1.00000)                                 |
|                         67       ( 1.00000)                                 |
|                         68       ( 1.00000)                                 |
|                         69       ( 0.10763)                                 |
|                         71       ( 1.00000)                                 |
|                         72       ( 1.00000)                                 |
|                         73       ( 1.00000)                                 |
|                         76       ( 1.00000)                                 |
|                         86       ( 1.00000)                                 |
|                         87       ( 1.00000)                                 |
|                                                                             |
|      The total occupancy of band no.    11 is   0.28829 electrons ...       |
|                                                                             |
 ----------------------------------------------------------------------------- 

 


 total charge     
 
# of ion       s       p       d       tot
------------------------------------------
    1        0.489   0.545   6.237   7.271
    2        0.489   0.545   6.237   7.271
--------------------------------------------------
tot          0.978   1.090  12.474  14.542
 


 magnetization (x)
 
# of ion       s       p       d       tot
------------------------------------------
    1        0.014   0.056  -2.278  -2.208
    2        0.014   0.056  -2.278  -2.208
--------------------------------------------------
tot          0.027   0.111  -4.555  -4.416
 
    CHARGE:  cpu time    0.0133: real time    0.0133
    FORLOC:  cpu time    0.0002: real time    0.0002
    FORNL :  cpu time    0.0245: real time    0.0245
    STRESS:  cpu time    0.0637: real time    0.0637
    FORCOR:  cpu time    0.0081: real time    0.0081
    FORHAR:  cpu time    0.0008: real time    0.0008
    MIXING:  cpu time    0.0007: real time    0.0007
    OFIELD:  cpu time    0.0001: real time    0.0001

  FORCE on cell =-STRESS in cart. coord.  units (eV):
  Direction    XX          YY          ZZ          XY          YZ          ZX
  --------------------------------------------------------------------------------------
  Alpha Z   122.10169   122.10169   122.10169
  Ewald    -395.17582  -395.17582  -395.17582     0.00000     0.00000     0.00000
  Hartree    63.19750    63.19750    63.19750    -0.00000    -0.00000    -0.00000
  E(xc)     -79.50509   -79.50509   -79.50509     0.00000    -0.00000    -0.00000
  Local     118.15078   118.15078   118.15078     0.00000     0.00000     0.00000
  n-local   -54.62496   -51.60543   -48.93346     2.47110    -0.90794     0.70479
  augment    77.45708    77.45708    77.45708    -0.00000    -0.00000    -0.00000
  Kinetic   147.98154   145.21709   143.48622     2.60233    -0.49439     0.12598
  Fock        0.00000     0.00000     0.00000     0.00000     0.00000     0.00000
  -------------------------------------------------------------------------------------
  Total       0.06647     0.06647     0.06647    -0.00000     0.00000     0.00000
  in kB       4.70342     4.70342     4.70342    -0.00000     0.00000     0.00000
  external pressure =        4.70 kB  Pullay stress =        0.00 kB


 VOLUME and BASIS-vectors are now :
 -----------------------------------------------------------------------------
  energy-cutoff  :      349.00
  volume of cell :       22.64
      direct lattice vectors                 reciprocal lattice vectors
     2.829008882  0.000000000  0.000000000     0.353480686  0.000000000  0.000000000
     0.000000000  2.829008882  0.000000000     0.000000000  0.353480686  0.000000000
     0.000000000  0.000000000  2.829008882     0.000000000  0.000000000  0.353480686

  length of vectors
     2.829008882  2.829008882  2.829008882     0.353480686  0.353480686  0.353480686


 FORCES acting on ions
    electron-ion (+dipol)            ewald-force                    non-local-force                 convergence-correction
 -----------------------------------------------------------------------------------------------
   0.442E-08 0.442E-08 0.442E-08   -.853E-08 -.853E-08 -.853E-08   0.827E-24 0.000E+00 0.000E+00   0.240E-11 0.241E-11 0.240E-11
   -.368E-08 -.368E-08 -.368E-08   0.853E-08 0.853E-08 0.853E-08   0.414E-24 0.000E+00 0.000E+00   -.253E-11 -.253E-11 -.255E-11
 -----------------------------------------------------------------------------------------------
   0.741E-09 0.740E-09 0.742E-09   0.595E-15 -.129E-14 0.503E-16   0.124E-23 0.000E+00 0.000E+00   -.131E-12 -.119E-12 -.142E-12
 
 
 POSITION                                       TOTAL-FORCE (eV/Angst)
 -----------------------------------------------------------------------------------
      0.00000      0.00000      0.00000         0.000000      0.000000      0.000000
      1.41450      1.41450      1.41450         0.000000      0.000000      0.000000
 -----------------------------------------------------------------------------------
    total drift:                                0.000000      0.000000      0.000000


--------------------------------------------------------------------------------------------------------



  FREE ENERGIE OF THE ION-ELECTRON SYSTEM (eV)
  ---------------------------------------------------
  free  energy   TOTEN  =       -16.48653943 eV

  energy  without entropy=      -16.48656806  energy(sigma->0) =      -16.48654898
 


--------------------------------------------------------------------------------------------------------


    POTLOK:  cpu time    0.0135: real time    0.0135


--------------------------------------------------------------------------------------------------------


     LOOP+:  cpu time    3.6522: real time    3.7920
    4ORBIT:  cpu time    0.0000: real time    0.0000
 


 total charge     
 
# of ion       s       p       d       tot
------------------------------------------
    1        0.489   0.545   6.237   7.271
    2        0.489   0.545   6.237   7.271
--------------------------------------------------
tot          0.978   1.090  12.474  14.542
 


 magnetization (x)
 
# of ion       s       p       d       tot
------------------------------------------
    1        0.014   0.056  -2.278  -2.208
    2        0.014   0.056  -2.278  -2.208
--------------------------------------------------
tot          0.027   0.111  -4.555  -4.416
 

 total amount of memory used by VASP MPI-rank0    35745. kBytes
=======================================================================

   base      :      30000. kBytes
   nonl-proj :       1159. kBytes
   fftplans  :        302. kBytes
   grid      :        663. kBytes
   one-center:         31. kBytes
   wavefun   :       3590. kBytes
 
  
  
 General timing and accounting informations for this job:
 ========================================================
  
                  Total CPU time used (sec):        5.920
                            User time (sec):        4.012
                          System time (sec):        1.907
                         Elapsed time (sec):        6.013
  
                   Maximum memory used (kb):       67164.
                   Average memory used (kb):           0.
  
                          Minor page faults:        21678
                          Major page faults:           16
                 Voluntary context switches:         2659
