   36   36    1    2
  0.1314651E+02  0.8250148E-09  0.8250148E-09  0.6953274E-09  0.2000000E-15
  1.000000000000000E-004
  CAR 
 AlMn_pv                                 
    180     52    112
 
  0.0000000E+00  0.0000000E+00  0.0000000E+00  0.6666667E-02
    1       -2.518806     -2.514948   1.000000   1.000000
    2       -0.355331     -0.379473   1.000000   1.000000
    3       -0.345858     -0.336660   1.000000   1.000000
    4       -0.329309     -0.320508   1.000000   1.000000
    5       -0.314345     -0.288252   1.000000   1.000000
    6       -0.109858     -0.117269   1.000000   1.000000
    7        1.364462      1.385925   1.000000   1.000000
    8        1.373581      1.397159   1.000000   1.000000
    9        1.381515      1.397813   1.000000   1.000000
   10        1.397010      1.413309   1.000000   1.000000
   11        1.421487      1.418608   1.000000   1.000000
   12        1.535806      1.552676   1.000000   1.000000
   13        1.551623      1.561530   1.000000   1.000000
   14        1.623491      1.638431   1.000000   1.000000
   15        1.639368      1.648381   1.000000   1.000000
   16        2.701675      2.714642   1.000000   1.000000
   17        2.713112      2.745936   1.000000   1.000000
   18        2.831066      2.875771   1.000000   1.000000
   19        2.844574      2.902356   1.000000   1.000000
   20        3.471014      3.452565   1.000000   1.000000
   21        3.506128      3.537838   1.000000   1.000000
   22        3.541351      3.582615   1.000000   1.000000
   23        3.596298      3.645918   1.000000   1.000000
   24        4.056078      4.117301   1.000000   1.000000
   25        4.149795      4.169580   1.000000   1.000000
   26        4.354575      4.408494   1.000000   1.000000
   27        4.409802      4.447436   1.000000   1.000000
   28        4.532651      4.545781   1.000000   1.000000
   29        4.552304      4.585785   1.000000   1.000000
   30        4.591463      4.622260   1.000000   1.000000
   31        4.604588      4.651827   1.000000   1.000000
   32        4.621841      4.661774   1.000000   1.000000
   33        4.657102      4.696735   1.000000   1.000000
   34        4.674282      4.719804   1.000000   1.000000
   35        4.744159      4.830981   1.000000   1.000000
   36        4.806009      4.937379   1.000000   1.000000
   37        4.877638      5.007820   1.000000   1.000000
   38        4.933163      5.072899   1.000000   1.000000
   39        5.040907      5.190036   1.000000   1.000000
   40        5.178759      5.272057   1.000000   1.000000
   41        5.232054      5.318846   1.000000   1.000000
   42        5.255182      5.342923   1.000000   1.000000
   43        5.369935      5.355270   1.000000   1.000000
   44        5.377757      5.409379   1.000000   1.000000
   45        5.396062      5.492988   1.000000   1.000000
   46        5.421480      5.520027   1.000000   1.000000
   47        5.426298      5.544014   1.000000   1.000000
   48        5.460589      5.562074   1.000000   1.000000
   49        5.513793      5.589375   1.000000   1.000000
   50        5.516975      5.653800   1.000000   1.000000
   51        5.601057      5.673593   1.000000   1.000000
   52        5.628877      5.683068   1.000000   1.000000
   53        5.722488      5.721648   1.000000   1.000000
   54        5.733104      5.752337   1.000000   1.000000
   55        5.793874      5.901525   1.000000   1.000000
   56        5.845161      5.962735   1.000000   1.000000
   57        5.853976      6.163682   1.000000   1.000000
   58        5.856853      6.180180   1.000000   1.000000
   59        5.986280      6.279099   1.000000   1.000000
   60        6.072912      6.309264   1.000000   1.000000
   61        6.151392      6.342235   1.000000   1.000000
   62        6.277782      6.416614   1.000000   1.000000
   63        6.324761      6.467195   1.000000   1.000000
   64        6.330119      6.476420   1.000000   1.000000
   65        6.362250      6.502449   1.000000   1.000000
   66        6.386735      6.505300   1.000000   1.000000
   67        6.410294      6.534241   1.000000   1.000000
   68        6.430789      6.561570   1.000000   1.000000
   69        6.480457      6.591284   1.000000   1.000000
   70        6.548809      6.649920   1.000000   1.000000
   71        6.556940      6.676654   1.000000   1.000000
   72        6.638082      6.697487   1.000000   1.000000
   73        6.643440      6.708494   1.000000   1.000000
   74        6.658046      6.743880   1.000000   1.000000
   75        6.669880      6.834143   1.000000   1.000000
   76        6.705630      6.859757   1.000000   1.000000
   77        6.713117      6.921663   1.000000   1.000000
   78        6.768511      7.086425   1.000000   1.000029
   79        6.818437      7.241320   1.000000   1.001590
   80        6.939175      7.267883   1.000000   1.002758
   81        6.959067      7.299286   1.000000   1.004999
   82        7.129972      7.338674   1.000102   1.009633
   83        7.172998      7.444389   1.000320   1.031317
   84        7.241279      7.568720   1.001589   0.987580
   85        7.261761      7.583026   1.002438   0.966389
   86        7.338785      7.594942   1.009654   0.944839
   87        7.340969      7.685263   1.009985   0.671652
   88        7.419519      7.782898   1.025997   0.272824
   89        7.444558      7.868239   1.031352   0.037700
   90        7.532478      7.915602   1.021934  -0.018273
   91        7.697336      8.004933   0.623309  -0.032114
   92        7.721839      8.050238   0.521130  -0.022281
   93        7.811054      8.078419   0.176218  -0.016102
   94        7.867624      8.147530   0.038746  -0.005629
   95        7.906730      8.243198  -0.011308  -0.000797
   96        7.923695      8.310106  -0.023415  -0.000146
   97        8.057383      8.369288  -0.020648  -0.000027
   98        8.104111      8.371783  -0.011278  -0.000025
   99        8.199310      8.471811  -0.002055  -0.000001
  100        8.208718      8.496117  -0.001719  -0.000000
  101        8.240978      8.585403  -0.000834  -0.000000
  102        8.428736      8.616142  -0.000004  -0.000000
  103        8.445460      8.679576  -0.000002  -0.000000
  104        8.451682      8.735020  -0.000002  -0.000000
  105        8.624363      8.776293  -0.000000  -0.000000
  106        8.661189      8.791969  -0.000000  -0.000000
  107        8.682075      8.829498  -0.000000  -0.000000
  108        8.752761      8.848679  -0.000000  -0.000000
  109        8.824087      8.906511  -0.000000  -0.000000
  110        8.845103      8.933456  -0.000000  -0.000000
  111        8.875287      8.937197  -0.000000  -0.000000
  112        8.928451      9.006881  -0.000000  -0.000000
 
  0.2000000E+00  0.0000000E+00  0.0000000E+00  0.1333333E-01
    1       -2.428267     -2.424438   1.000000   1.000000
    2       -1.102075     -1.098789   1.000000   1.000000
    3       -0.264143     -0.256581   1.000000   1.000000
    4       -0.243265     -0.240348   1.000000   1.000000
    5       -0.044470     -0.051204   1.000000   1.000000
    6        0.566208      0.572324   1.000000   1.000000
    7        0.886494      0.893024   1.000000   1.000000
    8        0.924970      0.939385   1.000000   1.000000
    9        0.940292      0.944737   1.000000   1.000000
   10        1.443434      1.452499   1.000000   1.000000
   11        1.467534      1.477335   1.000000   1.000000
   12        1.468957      1.492709   1.000000   1.000000
   13        1.907569      1.940002   1.000000   1.000000
   14        2.305427      2.320780   1.000000   1.000000
   15        2.312877      2.337735   1.000000   1.000000
   16        2.322568      2.339175   1.000000   1.000000
   17        2.326845      2.358489   1.000000   1.000000
   18        2.809658      2.828470   1.000000   1.000000
   19        3.210377      3.264699   1.000000   1.000000
   20        3.249374      3.306756   1.000000   1.000000
   21        3.571479      3.599796   1.000000   1.000000
   22        3.613704      3.640756   1.000000   1.000000
   23        3.727925      3.749253   1.000000   1.000000
   24        4.038428      4.090049   1.000000   1.000000
   25        4.118837      4.138970   1.000000   1.000000
   26        4.277860      4.317349   1.000000   1.000000
   27        4.316923      4.362634   1.000000   1.000000
   28        4.370378      4.423930   1.000000   1.000000
   29        4.514501      4.544017   1.000000   1.000000
   30        4.515331      4.576374   1.000000   1.000000
   31        4.546600      4.597024   1.000000   1.000000
   32        4.547959      4.626822   1.000000   1.000000
   33        4.635965      4.660347   1.000000   1.000000
   34        4.652229      4.695804   1.000000   1.000000
   35        4.777408      4.905080   1.000000   1.000000
   36        4.857424      4.930652   1.000000   1.000000
   37        4.968648      5.075164   1.000000   1.000000
   38        4.982088      5.088125   1.000000   1.000000
   39        5.053049      5.125072   1.000000   1.000000
   40        5.076800      5.126757   1.000000   1.000000
   41        5.137704      5.258241   1.000000   1.000000
   42        5.254933      5.326780   1.000000   1.000000
   43        5.264199      5.335003   1.000000   1.000000
   44        5.340625      5.377569   1.000000   1.000000
   45        5.377033      5.437862   1.000000   1.000000
   46        5.395589      5.469083   1.000000   1.000000
   47        5.427691      5.537713   1.000000   1.000000
   48        5.482073      5.589735   1.000000   1.000000
   49        5.542800      5.592793   1.000000   1.000000
   50        5.567888      5.622413   1.000000   1.000000
   51        5.623520      5.689372   1.000000   1.000000
   52        5.650427      5.721496   1.000000   1.000000
   53        5.731885      5.781353   1.000000   1.000000
   54        5.733700      5.880913   1.000000   1.000000
   55        5.793795      5.908685   1.000000   1.000000
   56        5.898229      6.005196   1.000000   1.000000
   57        5.907430      6.143438   1.000000   1.000000
   58        5.981631      6.218138   1.000000   1.000000
   59        6.008342      6.243274   1.000000   1.000000
   60        6.074646      6.249131   1.000000   1.000000
   61        6.160589      6.340741   1.000000   1.000000
   62        6.239226      6.381667   1.000000   1.000000
   63        6.271090      6.427305   1.000000   1.000000
   64        6.290092      6.456813   1.000000   1.000000
   65        6.351874      6.469421   1.000000   1.000000
   66        6.379336      6.525302   1.000000   1.000000
   67        6.420200      6.550600   1.000000   1.000000
   68        6.429654      6.604699   1.000000   1.000000
   69        6.440323      6.645332   1.000000   1.000000
   70        6.503155      6.649480   1.000000   1.000000
   71        6.589784      6.684303   1.000000   1.000000
   72        6.603396      6.694571   1.000000   1.000000
   73        6.622603      6.709070   1.000000   1.000000
   74        6.661020      6.752090   1.000000   1.000000
   75        6.696321      6.801233   1.000000   1.000000
   76        6.711071      6.918052   1.000000   1.000000
   77        6.736233      6.945713   1.000000   1.000000
   78        6.764304      6.980254   1.000000   1.000001
   79        6.791523      7.190817   1.000000   1.000499
   80        6.826478      7.232540   1.000000   1.001315
   81        6.879593      7.298943   1.000000   1.004965
   82        7.010335      7.320987   1.000002   1.007265
   83        7.109243      7.408560   1.000057   1.023465
   84        7.135106      7.478913   1.000117   1.035425
   85        7.289271      7.550186   1.004164   1.008381
   86        7.305566      7.616950   1.005586   0.896017
   87        7.367837      7.685718   1.014625   0.669907
   88        7.399569      7.801907   1.021396   0.205859
   89        7.495494      7.904076   1.034672  -0.008945
   90        7.538186      7.959508   1.018175  -0.034826
   91        7.718854      7.996242   0.533602  -0.033518
   92        7.749429      8.002767   0.405132  -0.032485
   93        7.751793      8.063043   0.395278  -0.019384
   94        7.900724      8.140351  -0.005745  -0.006386
   95        7.966561      8.226813  -0.035349  -0.001159
   96        8.044501      8.235109  -0.023605  -0.000958
   97        8.074854      8.310486  -0.016835  -0.000146
   98        8.120810      8.377210  -0.008797  -0.000021
   99        8.121182      8.430346  -0.008748  -0.000004
  100        8.209401      8.511680  -0.001672  -0.000000
  101        8.225267      8.613798  -0.001199  -0.000000
  102        8.360700      8.631814  -0.000035  -0.000000
  103        8.469612      8.658342  -0.000001  -0.000000
  104        8.505065      8.679244  -0.000000  -0.000000
  105        8.550935      8.802701  -0.000000  -0.000000
  106        8.628548      8.872702  -0.000000  -0.000000
  107        8.703592      8.903523  -0.000000  -0.000000
  108        8.820132      8.971764  -0.000000  -0.000000
  109        8.852297      8.995214  -0.000000  -0.000000
  110        8.967149      9.027764  -0.000000  -0.000000
  111        8.977689      9.052959  -0.000000  -0.000000
  112        9.018982      9.226935  -0.000000  -0.000000
 
  0.4000000E+00  0.0000000E+00  0.0000000E+00  0.1333333E-01
    1       -2.158419     -2.154664   1.000000   1.000000
    2       -1.712941     -1.709332   1.000000   1.000000
    3       -0.019228     -0.011604   1.000000   1.000000
    4        0.000678      0.003602   1.000000   1.000000
    5        0.149351      0.144747   1.000000   1.000000
    6        0.385049      0.394205   1.000000   1.000000
    7        0.402391      0.407178   1.000000   1.000000
    8        0.464804      0.464424   1.000000   1.000000
    9        1.578557      1.589545   1.000000   1.000000
   10        1.622504      1.633876   1.000000   1.000000
   11        1.645671      1.656133   1.000000   1.000000
   12        1.748454      1.772918   1.000000   1.000000
   13        1.930771      1.949634   1.000000   1.000000
   14        1.949180      1.964960   1.000000   1.000000
   15        2.207754      2.227532   1.000000   1.000000
   16        2.313085      2.369382   1.000000   1.000000
   17        2.676169      2.687034   1.000000   1.000000
   18        2.934836      2.962483   1.000000   1.000000
   19        2.981280      3.020243   1.000000   1.000000
   20        3.540244      3.606502   1.000000   1.000000
   21        3.634889      3.724712   1.000000   1.000000
   22        3.735089      3.765852   1.000000   1.000000
   23        3.759919      3.788762   1.000000   1.000000
   24        3.978262      4.006084   1.000000   1.000000
   25        4.012896      4.045976   1.000000   1.000000
   26        4.111688      4.152250   1.000000   1.000000
   27        4.153116      4.189172   1.000000   1.000000
   28        4.270118      4.357437   1.000000   1.000000
   29        4.301728      4.368392   1.000000   1.000000
   30        4.385929      4.432942   1.000000   1.000000
   31        4.399424      4.450635   1.000000   1.000000
   32        4.549227      4.554121   1.000000   1.000000
   33        4.664594      4.676709   1.000000   1.000000
   34        4.683414      4.710316   1.000000   1.000000
   35        4.789209      4.864266   1.000000   1.000000
   36        4.845598      4.982853   1.000000   1.000000
   37        4.959946      5.066750   1.000000   1.000000
   38        5.060290      5.112899   1.000000   1.000000
   39        5.085072      5.122082   1.000000   1.000000
   40        5.104103      5.145361   1.000000   1.000000
   41        5.142165      5.211995   1.000000   1.000000
   42        5.170138      5.290585   1.000000   1.000000
   43        5.285590      5.371931   1.000000   1.000000
   44        5.310350      5.382564   1.000000   1.000000
   45        5.361810      5.397128   1.000000   1.000000
   46        5.388211      5.464079   1.000000   1.000000
   47        5.449680      5.524297   1.000000   1.000000
   48        5.502286      5.564749   1.000000   1.000000
   49        5.540987      5.586413   1.000000   1.000000
   50        5.567345      5.638818   1.000000   1.000000
   51        5.659473      5.696015   1.000000   1.000000
   52        5.662778      5.731049   1.000000   1.000000
   53        5.712985      5.873348   1.000000   1.000000
   54        5.724897      5.925521   1.000000   1.000000
   55        5.771380      5.955350   1.000000   1.000000
   56        5.902556      5.960787   1.000000   1.000000
   57        5.993212      6.046685   1.000000   1.000000
   58        6.014776      6.149060   1.000000   1.000000
   59        6.042947      6.215904   1.000000   1.000000
   60        6.132928      6.220097   1.000000   1.000000
   61        6.176725      6.300427   1.000000   1.000000
   62        6.198262      6.311364   1.000000   1.000000
   63        6.253675      6.362274   1.000000   1.000000
   64        6.259185      6.396696   1.000000   1.000000
   65        6.285024      6.456144   1.000000   1.000000
   66        6.295310      6.493098   1.000000   1.000000
   67        6.324211      6.607523   1.000000   1.000000
   68        6.395490      6.624082   1.000000   1.000000
   69        6.454072      6.648235   1.000000   1.000000
   70        6.490950      6.676369   1.000000   1.000000
   71        6.533463      6.687930   1.000000   1.000000
   72        6.574177      6.708877   1.000000   1.000000
   73        6.626633      6.766157   1.000000   1.000000
   74        6.669787      6.796810   1.000000   1.000000
   75        6.697034      6.839917   1.000000   1.000000
   76        6.715330      6.912919   1.000000   1.000000
   77        6.718277      6.981873   1.000000   1.000001
   78        6.755098      7.089007   1.000000   1.000031
   79        6.796790      7.104143   1.000000   1.000049
   80        6.803981      7.164075   1.000000   1.000255
   81        6.847512      7.193213   1.000000   1.000529
   82        6.948758      7.276146   1.000000   1.003243
   83        7.029868      7.405439   1.000005   1.022745
   84        7.089942      7.540763   1.000032   1.016307
   85        7.192055      7.587556   1.000514   0.958622
   86        7.222358      7.588176   1.001048   0.957505
   87        7.259425      7.687545   1.002326   0.662860
   88        7.495046      7.731539   1.034727   0.480079
   89        7.557766      7.905347   1.000758  -0.010073
   90        7.634584      7.924045   0.848060  -0.023615
   91        7.655181      7.929292   0.782636  -0.026367
   92        7.786823      7.989004   0.258337  -0.034444
   93        7.788766      8.020974   0.251332  -0.028937
   94        7.906049      8.109095  -0.010715  -0.010534
   95        7.958154      8.118005  -0.034671  -0.009199
   96        7.968034      8.218541  -0.035402  -0.001391
   97        8.024734      8.303514  -0.028118  -0.000177
   98        8.086578      8.303822  -0.014483  -0.000175
   99        8.155610      8.436954  -0.004886  -0.000003
  100        8.203880      8.439558  -0.001903  -0.000003
  101        8.231243      8.549523  -0.001049  -0.000000
  102        8.332192      8.612164  -0.000080  -0.000000
  103        8.404053      8.691744  -0.000009  -0.000000
  104        8.471746      8.703572  -0.000001  -0.000000
  105        8.543168      8.706823  -0.000000  -0.000000
  106        8.568675      8.845038  -0.000000  -0.000000
  107        8.727225      8.930011  -0.000000  -0.000000
  108        8.841935      8.965861  -0.000000  -0.000000
  109        8.853914      9.000001  -0.000000  -0.000000
  110        8.944771      9.093827  -0.000000  -0.000000
  111        9.012889      9.098847  -0.000000  -0.000000
  112        9.095015      9.158489  -0.000000  -0.000000
 
  0.0000000E+00  0.2000000E+00  0.0000000E+00  0.1333333E-01
    1       -2.428262     -2.424401   1.000000   1.000000
    2       -1.102255     -1.098852   1.000000   1.000000
    3       -0.261514     -0.253634   1.000000   1.000000
    4       -0.245438     -0.243478   1.000000   1.000000
    5       -0.044329     -0.051291   1.000000   1.000000
    6        0.565654      0.572953   1.000000   1.000000
    7        0.889065      0.891743   1.000000   1.000000
    8        0.930213      0.938992   1.000000   1.000000
    9        0.935461      0.944932   1.000000   1.000000
   10        1.439566      1.457408   1.000000   1.000000
   11        1.462274      1.477386   1.000000   1.000000
   12        1.469088      1.492692   1.000000   1.000000
   13        1.915183      1.935433   1.000000   1.000000
   14        2.299307      2.322421   1.000000   1.000000
   15        2.316223      2.334657   1.000000   1.000000
   16        2.318387      2.343515   1.000000   1.000000
   17        2.330073      2.357325   1.000000   1.000000
   18        2.808343      2.829202   1.000000   1.000000
   19        3.222013      3.272131   1.000000   1.000000
   20        3.241480      3.289697   1.000000   1.000000
   21        3.578546      3.604857   1.000000   1.000000
   22        3.609278      3.632163   1.000000   1.000000
   23        3.730380      3.750020   1.000000   1.000000
   24        4.035885      4.093934   1.000000   1.000000
   25        4.112169      4.139431   1.000000   1.000000
   26        4.288231      4.327602   1.000000   1.000000
   27        4.312435      4.351216   1.000000   1.000000
   28        4.361198      4.408572   1.000000   1.000000
   29        4.508047      4.565441   1.000000   1.000000
   30        4.531237      4.576601   1.000000   1.000000
   31        4.545528      4.598117   1.000000   1.000000
   32        4.562713      4.605413   1.000000   1.000000
   33        4.612550      4.668798   1.000000   1.000000
   34        4.653061      4.730239   1.000000   1.000000
   35        4.800230      4.890346   1.000000   1.000000
   36        4.864438      4.894785   1.000000   1.000000
   37        4.971454      5.042521   1.000000   1.000000
   38        4.988431      5.126198   1.000000   1.000000
   39        5.024090      5.147144   1.000000   1.000000
   40        5.057664      5.205874   1.000000   1.000000
   41        5.141847      5.268875   1.000000   1.000000
   42        5.253351      5.318780   1.000000   1.000000
   43        5.269052      5.326595   1.000000   1.000000
   44        5.326307      5.366468   1.000000   1.000000
   45        5.394860      5.431998   1.000000   1.000000
   46        5.402036      5.491316   1.000000   1.000000
   47        5.452485      5.533750   1.000000   1.000000
   48        5.511229      5.579444   1.000000   1.000000
   49        5.559286      5.580023   1.000000   1.000000
   50        5.562144      5.620405   1.000000   1.000000
   51        5.631228      5.685391   1.000000   1.000000
   52        5.713106      5.718962   1.000000   1.000000
   53        5.731786      5.772934   1.000000   1.000000
   54        5.734510      5.881397   1.000000   1.000000
   55        5.806314      5.951467   1.000000   1.000000
   56        5.841663      6.018862   1.000000   1.000000
   57        5.895167      6.155259   1.000000   1.000000
   58        5.914797      6.177641   1.000000   1.000000
   59        5.994316      6.237106   1.000000   1.000000
   60        6.096139      6.237896   1.000000   1.000000
   61        6.109939      6.289400   1.000000   1.000000
   62        6.208570      6.329888   1.000000   1.000000
   63        6.261974      6.392253   1.000000   1.000000
   64        6.297790      6.397327   1.000000   1.000000
   65        6.310760      6.479348   1.000000   1.000000
   66        6.375998      6.489333   1.000000   1.000000
   67        6.401853      6.514197   1.000000   1.000000
   68        6.413917      6.585530   1.000000   1.000000
   69        6.449140      6.619111   1.000000   1.000000
   70        6.517291      6.679065   1.000000   1.000000
   71        6.535266      6.693766   1.000000   1.000000
   72        6.588124      6.704810   1.000000   1.000000
   73        6.603073      6.748777   1.000000   1.000000
   74        6.676006      6.842726   1.000000   1.000000
   75        6.691656      6.843724   1.000000   1.000000
   76        6.707150      6.860024   1.000000   1.000000
   77        6.737641      6.881481   1.000000   1.000000
   78        6.810374      7.048104   1.000000   1.000009
   79        6.827713      7.229803   1.000000   1.001237
   80        6.843214      7.315086   1.000000   1.006585
   81        6.900849      7.316437   1.000000   1.006735
   82        7.025374      7.336937   1.000004   1.009379
   83        7.127633      7.395236   1.000096   1.020415
   84        7.140822      7.461442   1.000137   1.034065
   85        7.283958      7.514756   1.003767   1.030309
   86        7.314394      7.660623   1.006506   0.763843
   87        7.366685      7.742065   1.014412   0.435692
   88        7.457089      7.753609   1.033470   0.387890
   89        7.539549      7.872870   1.017195   0.030035
   90        7.608269      7.917755   0.916726  -0.019756
   91        7.688765      8.035022   0.657838  -0.025796
   92        7.740092      8.081441   0.444086  -0.015492
   93        7.831712      8.095794   0.116797  -0.012766
   94        7.889921      8.148667   0.006114  -0.005532
   95        7.930752      8.241334  -0.027043  -0.000832
   96        7.972355      8.295977  -0.035456  -0.000215
   97        8.047724      8.334889  -0.022860  -0.000074
   98        8.111347      8.411189  -0.010186  -0.000007
   99        8.113914      8.425229  -0.009794  -0.000005
  100        8.215648      8.457567  -0.001481  -0.000002
  101        8.281049      8.497591  -0.000313  -0.000000
  102        8.367066      8.581768  -0.000027  -0.000000
  103        8.483003      8.628285  -0.000001  -0.000000
  104        8.537966      8.706513  -0.000000  -0.000000
  105        8.539783      8.709867  -0.000000  -0.000000
  106        8.579638      8.777955  -0.000000  -0.000000
  107        8.686101      8.830104  -0.000000  -0.000000
  108        8.696134      8.978868  -0.000000  -0.000000
  109        8.845349      9.014586  -0.000000  -0.000000
  110        8.926305      9.031744  -0.000000  -0.000000
  111        8.990186      9.046978  -0.000000  -0.000000
  112        9.047707      9.077191  -0.000000  -0.000000
 
  0.2000000E+00  0.2000000E+00  0.0000000E+00  0.1333333E-01
    1       -2.338005     -2.334173   1.000000   1.000000
    2       -1.027735     -1.031351   1.000000   1.000000
    3       -1.004705     -0.993182   1.000000   1.000000
    4        0.020933      0.014609   1.000000   1.000000
    5        0.225627      0.232048   1.000000   1.000000
    6        0.637009      0.636354   1.000000   1.000000
    7        0.655952      0.672001   1.000000   1.000000
    8        0.932778      0.946775   1.000000   1.000000
    9        0.970808      0.966418   1.000000   1.000000
   10        1.563035      1.585770   1.000000   1.000000
   11        1.709641      1.719244   1.000000   1.000000
   12        1.779211      1.793357   1.000000   1.000000
   13        1.830934      1.845584   1.000000   1.000000
   14        1.982330      1.996480   1.000000   1.000000
   15        1.989271      2.029152   1.000000   1.000000
   16        2.763554      2.801933   1.000000   1.000000
   17        2.846572      2.863870   1.000000   1.000000
   18        2.857278      2.892428   1.000000   1.000000
   19        2.866073      2.914269   1.000000   1.000000
   20        2.934853      2.962276   1.000000   1.000000
   21        3.629589      3.689882   1.000000   1.000000
   22        3.771067      3.789115   1.000000   1.000000
   23        3.778099      3.806850   1.000000   1.000000
   24        3.803953      3.832412   1.000000   1.000000
   25        4.147508      4.186282   1.000000   1.000000
   26        4.240092      4.302364   1.000000   1.000000
   27        4.322034      4.365140   1.000000   1.000000
   28        4.341489      4.382639   1.000000   1.000000
   29        4.361340      4.425179   1.000000   1.000000
   30        4.411516      4.473017   1.000000   1.000000
   31        4.462585      4.486711   1.000000   1.000000
   32        4.510933      4.602225   1.000000   1.000000
   33        4.578202      4.615293   1.000000   1.000000
   34        4.727441      4.740818   1.000000   1.000000
   35        4.763116      4.849658   1.000000   1.000000
   36        4.850597      4.961869   1.000000   1.000000
   37        4.879456      4.995259   1.000000   1.000000
   38        4.948061      5.025308   1.000000   1.000000
   39        5.032929      5.099871   1.000000   1.000000
   40        5.094232      5.176025   1.000000   1.000000
   41        5.245311      5.289131   1.000000   1.000000
   42        5.250780      5.324273   1.000000   1.000000
   43        5.298482      5.390467   1.000000   1.000000
   44        5.312361      5.402744   1.000000   1.000000
   45        5.367930      5.429740   1.000000   1.000000
   46        5.399738      5.473181   1.000000   1.000000
   47        5.446184      5.529941   1.000000   1.000000
   48        5.514045      5.570579   1.000000   1.000000
   49        5.595956      5.597325   1.000000   1.000000
   50        5.649229      5.614105   1.000000   1.000000
   51        5.650807      5.661539   1.000000   1.000000
   52        5.724548      5.814984   1.000000   1.000000
   53        5.739404      5.830530   1.000000   1.000000
   54        5.762852      5.908226   1.000000   1.000000
   55        5.781264      5.952496   1.000000   1.000000
   56        5.898569      6.090054   1.000000   1.000000
   57        5.920061      6.105299   1.000000   1.000000
   58        5.953296      6.171821   1.000000   1.000000
   59        5.972141      6.192051   1.000000   1.000000
   60        6.100313      6.274788   1.000000   1.000000