       N       E                     dE             d eps       ncg     rms          ort
DAV:   1     0.135119877895E+04    0.13512E+04   -0.58819E+04  5824   0.143E+03
DAV:   2    -0.611809680410E+02   -0.14124E+04   -0.13793E+04  5824   0.438E+02
DAV:   3    -0.238476760797E+03   -0.17730E+03   -0.15915E+03  5824   0.168E+02
DAV:   4    -0.266713412627E+03   -0.28237E+02   -0.25122E+02  5824   0.733E+01
DAV:   5    -0.269793746878E+03   -0.30803E+01   -0.29350E+01  5824   0.219E+01
DAV:   6    -0.270039571585E+03   -0.24582E+00   -0.23953E+00  5824   0.557E+00
DAV:   7    -0.270065586176E+03   -0.26015E-01   -0.25666E-01  5824   0.161E+00
DAV:   8    -0.270067783554E+03   -0.21974E-02   -0.21768E-02  5824   0.420E-01
SDA:   9    -0.637265916752E+02    0.20634E+03   -0.21768E-02  5824   0.227E+04 0.000E+00
CGA:  10    -0.209828979124E+03   -0.14610E+03   -0.14803E+03  5824   0.983E+02 0.317E+03
CGA:  11    -0.218622096088E+03   -0.87931E+01   -0.87308E+01  5824   0.640E+02 0.113E+01
CGA:  12    -0.227587271042E+03   -0.89652E+01   -0.89021E+01  5824   0.901E+02-0.134E+00
CGA:  13    -0.233398793513E+03   -0.58115E+01   -0.58485E+01  5824   0.104E+02 0.102E+01
CGA:  14    -0.234274452626E+03   -0.87566E+00   -0.88103E+00  5824   0.529E+01-0.227E-01
CGA:  15    -0.235063527238E+03   -0.78907E+00   -0.78991E+00  5824   0.646E+01 0.155E-01
CGA:  16    -0.235571354029E+03   -0.50783E+00   -0.50299E+00  5824   0.148E+01 0.481E-01
CGA:  17    -0.235747479792E+03   -0.17613E+00   -0.17610E+00  5824   0.127E+01 0.181E-03
CGA:  18    -0.235919026743E+03   -0.17155E+00   -0.17169E+00  5824   0.119E+01 0.310E-03
CGA:  19    -0.236007679701E+03   -0.88653E-01   -0.89181E-01  5824   0.342E+00-0.500E-02
CGA:  20    -0.236054159424E+03   -0.46480E-01   -0.46512E-01  5824   0.408E+00 0.386E-03
CGA:  21    -0.236115942336E+03   -0.61783E-01   -0.61794E-01  5824   0.344E+00 0.566E-03
CGA:  22    -0.236144835332E+03   -0.28893E-01   -0.28936E-01  5824   0.119E+00-0.464E-03
CGA:  23    -0.236157709623E+03   -0.12874E-01   -0.12873E-01  5824   0.115E+00-0.160E-03
CGA:  24    -0.236177098655E+03   -0.19389E-01   -0.19395E-01  5824   0.115E+00-0.400E-03
CGA:  25    -0.236191291281E+03   -0.14193E-01   -0.14190E-01  5824   0.843E-01-0.243E-03
CGA:  26    -0.236201069433E+03   -0.97782E-02   -0.97745E-02  5824   0.709E-01-0.101E-03
CGA:  27    -0.236208977739E+03   -0.79083E-02   -0.79033E-02  5824   0.357E-01 0.112E-04
CGA:  28    -0.236213109055E+03   -0.41313E-02   -0.41318E-02  5824   0.273E-01 0.524E-04
CGA:  29    -0.236216551565E+03   -0.34425E-02   -0.34427E-02  5824   0.252E-01 0.484E-04
CGA:  30    -0.236219303021E+03   -0.27515E-02   -0.27527E-02  5824   0.167E-01 0.472E-04
CGA:  31    -0.236221766859E+03   -0.24638E-02   -0.24637E-02  5824   0.152E-01 0.407E-04
CGA:  32    -0.236223886757E+03   -0.21199E-02   -0.21201E-02  5824   0.108E-01 0.686E-04
CGA:  33    -0.236224949072E+03   -0.10623E-02   -0.10645E-02  5824   0.554E-02 0.594E-04
CGA:  34    -0.236225793276E+03   -0.84420E-03   -0.84371E-03  5824   0.495E-02 0.494E-04
CGA:  35    -0.236226393381E+03   -0.60011E-03   -0.60065E-03  5824   0.378E-02 0.262E-04
CGA:  36    -0.236226824545E+03   -0.43116E-03   -0.43154E-03  5824   0.290E-02 0.136E-04
CGA:  37    -0.236227323767E+03   -0.49922E-03   -0.49853E-03  5824   0.319E-02 0.202E-04
CGA:  38    -0.236227630833E+03   -0.30707E-03   -0.30784E-03  5824   0.127E-02 0.157E-04
CGA:  39    -0.236227760683E+03   -0.12985E-03   -0.13012E-03  5824   0.832E-03 0.753E-05
SDA:  40    -0.236227886325E+03   -0.12564E-03   -0.12566E-03  5824   0.112E-02-0.157E-05
CGA:  41    -0.236227965531E+03   -0.79206E-04   -0.78817E-04  5824   0.624E-03-0.609E-05
CGA:  42    -0.236228042702E+03   -0.77171E-04   -0.77046E-04  5824   0.401E-03-0.126E-04
CGA:  43    -0.236228116558E+03   -0.73856E-04   -0.74406E-04  5824   0.741E-03-0.991E-05
CGA:  44    -0.236228190206E+03   -0.73648E-04   -0.73376E-04  5824   0.197E-03-0.781E-05
CGA:  45    -0.236228217058E+03   -0.26852E-04   -0.26861E-04  5824   0.317E-03-0.301E-05
CGA:  46    -0.236228262713E+03   -0.45655E-04   -0.45718E-04  5824   0.168E-03-0.546E-05
CGA:  47    -0.236228283389E+03   -0.20676E-04   -0.20667E-04  5824   0.194E-03-0.887E-06
CGA:  48    -0.236228317425E+03   -0.34036E-04   -0.34020E-04  5824   0.150E-03 0.461E-06
CGA:  49    -0.236228330289E+03   -0.12864E-04   -0.12877E-04  5824   0.746E-04 0.387E-06
CGA:  50    -0.236228346793E+03   -0.16504E-04   -0.16444E-04  5824   0.804E-04 0.775E-06
CGA:  51    -0.236228352593E+03   -0.58003E-05   -0.58296E-05  5824   0.354E-04 0.481E-06
CGA:  52    -0.236228358927E+03   -0.63342E-05   -0.62951E-05  5824   0.504E-04 0.970E-06
CGA:  53    -0.236228364664E+03   -0.57365E-05   -0.57594E-05  5824   0.175E-04 0.899E-06
CGA:  54    -0.236228367213E+03   -0.25495E-05   -0.25487E-05  5824   0.310E-04 0.188E-06
CGA:  55    -0.236228371775E+03   -0.45621E-05   -0.45599E-05  5824   0.703E-05 0.223E-06
CGA:  56    -0.236228372401E+03   -0.62585E-06   -0.62793E-06  5824   0.604E-05 0.361E-07
CGA:  57    -0.236228373922E+03   -0.15213E-05   -0.15149E-05  5824   0.114E-04 0.555E-07
CGA:  58    -0.236228375000E+03   -0.10777E-05   -0.10609E-05  5824   0.461E-05-0.342E-06
CGA:  59    -0.236228375777E+03   -0.77704E-06   -0.81360E-06  5824   0.429E-05-0.848E-06
CGA:  60    -0.236228376227E+03   -0.44987E-06   -0.44943E-06  5824   0.434E-05-0.779E-07
CGA:  61    -0.236228376694E+03   -0.46701E-06   -0.47801E-06  5824   0.191E-05 0.383E-06
CGA:  62    -0.236228376831E+03   -0.13704E-06   -0.14651E-06  5824   0.864E-06 0.154E-06
CGA:  63    -0.236228377111E+03   -0.27958E-06   -0.25498E-06  5824   0.131E-05 0.175E-06
CGA:  64    -0.236228377298E+03   -0.18725E-06   -0.18694E-06  5824   0.810E-06-0.100E-07
CGA:  65    -0.236228377404E+03   -0.10653E-06   -0.10618E-06  5824   0.531E-06-0.585E-07
CGA:  66    -0.236228377438E+03   -0.34086E-07   -0.34635E-07  5824   0.112E-06 0.342E-08
   1 F= -.23622838E+03 E0= -.23623205E+03  d E =0.110325E-01  mag=     4.0077
