 vasp.5.4.4.18Apr17-6-g9f103f2a35 (build Dec 20 2018 12:05:58) complex          
  
 executed on             LinuxIFC date 2019.06.20  17:02:06
 running on   32 total cores
 distrk:  each k-point on    8 cores,    4 groups
 distr:  one band on NCORES_PER_BAND=   4 cores,    2 groups


--------------------------------------------------------------------------------------------------------


 INCAR:
 POTCAR:    PAW_PBE Al 04Jan2001                  
 POTCAR:    PAW_PBE Mn 06Sep2000                  

 ----------------------------------------------------------------------------- 
|                                                                             |
|           W    W    AA    RRRRR   N    N  II  N    N   GGGG   !!!           |
|           W    W   A  A   R    R  NN   N  II  NN   N  G    G  !!!           |
|           W    W  A    A  R    R  N N  N  II  N N  N  G       !!!           |
|           W WW W  AAAAAA  RRRRR   N  N N  II  N  N N  G  GGG   !            |
|           WW  WW  A    A  R   R   N   NN  II  N   NN  G    G                |
|           W    W  A    A  R    R  N    N  II  N    N   GGGG   !!!           |
|                                                                             |
|      You have enabled k-point parallelism (KPAR>1).                         |
|      This developmental code was originally  written by Paul Kent at ORNL,  |
|      and carefully double checked in Vienna.                                |
|      GW as well as linear response parallelism added by Martijn Marsman     |
|      and Georg Kresse.                                                      |
|      Carefully verify results versus KPAR=1.                                |
|      Report problems to Paul Kent and Vienna.                               |
|                                                                             |
 ----------------------------------------------------------------------------- 

 POTCAR:    PAW_PBE Al 04Jan2001                  
   VRHFIN =Al: s2p1                                                             
   LEXCH  = PE                                                                  
   EATOM  =    53.5387 eV,    3.9350 Ry                                         
                                                                                
   TITEL  = PAW_PBE Al 04Jan2001                                                
   LULTRA =        F    use ultrasoft PP ?                                      
   IUNSCR =        1    unscreen: 0-lin 1-nonlin 2-no                           
   RPACOR =    1.500    partial core radius                                     
   POMASS =   26.981; ZVAL   =    3.000    mass and valenz                      
   RCORE  =    1.900    outmost cutoff radius                                   
   RWIGS  =    2.650; RWIGS  =    1.402    wigner-seitz radius (au A)           
   ENMAX  =  240.300; ENMIN  =  180.225 eV                                      
   ICORE  =        2    local potential                                         
   LCOR   =        T    correct aug charges                                     
   LPAW   =        T    paw PP                                                  
   EAUG   =  291.052                                                            
   DEXC   =    0.000                                                            
   RMAX   =    1.939    core radius for proj-oper                               
   RAUG   =    1.300    factor for augmentation sphere                          
   RDEP   =    1.966    radius for radial grids                                 
   RDEPT  =    1.856    core radius for aug-charge                              
                                                                                
   Atomic configuration                                                         
    6 entries                                                                   
     n  l   j            E        occ.                                          
     1  0  0.50     -1511.1048   2.0000                                         
     2  0  0.50      -108.1629   2.0000                                         
     2  1  1.50       -69.6402   6.0000                                         
     3  0  0.50        -7.7528   2.0000                                         
     3  1  1.50        -2.7121   1.0000                                         
     3  2  2.50        -2.7212   0.0000                                         
   Description                                                                  
     l       E           TYP  RCUT    TYP  RCUT                                 
     0     -7.7528455     23  1.900                                             
     0     -3.3096929     23  1.900                                             
     1     -2.7120682     23  1.900                                             
     1     13.6058260     23  1.900                                             
     2     -2.7211652      7  1.900                                             
  local pseudopotential read in
  partial core-charges read in
  partial kinetic energy density read in
  atomic valenz-charges read in
  non local Contribution for L=           0  read in
    real space projection operators read in
  non local Contribution for L=           0  read in
    real space projection operators read in
  non local Contribution for L=           1  read in
    real space projection operators read in
  non local Contribution for L=           1  read in
    real space projection operators read in
    PAW grid and wavefunctions read in
 
   number of l-projection  operators is LMAX  =           4
   number of lm-projection operators is LMMAX =           8
 
 POTCAR:    PAW_PBE Mn 06Sep2000                  
   VRHFIN =Mn: d6 s1                                                            
   LEXCH  = PE                                                                  
   EATOM  =   416.7541 eV,   30.6306 Ry                                         
                                                                                
   TITEL  = PAW_PBE Mn 06Sep2000                                                
   LULTRA =        F    use ultrasoft PP ?                                      
   IUNSCR =        1    unscreen: 0-lin 1-nonlin 2-no                           
   RPACOR =    2.000    partial core radius                                     
   POMASS =   54.938; ZVAL   =    7.000    mass and valenz                      
   RCORE  =    2.300    outmost cutoff radius                                   
   RWIGS  =    2.500; RWIGS  =    1.323    wigner-seitz radius (au A)           
   ENMAX  =  269.864; ENMIN  =  202.398 eV                                      
   RCLOC  =    1.725    cutoff for local pot                                    
   LCOR   =        T    correct aug charges                                     
   LPAW   =        T    paw PP                                                  
   EAUG   =  500.711                                                            
   DEXC   =    0.000                                                            
   RMAX   =    2.343    core radius for proj-oper                               
   RAUG   =    1.300    factor for augmentation sphere                          
   RDEP   =    2.338    radius for radial grids                                 
   RDEPT  =    1.911    core radius for aug-charge                              
                                                                                
   Atomic configuration                                                         
    9 entries                                                                   
     n  l   j            E        occ.                                          
     1  0  0.50     -6424.8288   2.0000                                         
     2  0  0.50      -739.1154   2.0000                                         
     2  1  1.50      -625.3949   6.0000                                         
     3  0  0.50       -81.6100   2.0000                                         
     3  1  1.50       -50.4667   6.0000                                         
     3  2  2.50        -3.3745   6.0000                                         
     4  0  0.50        -4.1331   1.0000                                         
     4  1  0.50        -4.0817   0.0000                                         
     4  3  2.50        -1.3606   0.0000                                         
   Description                                                                  
     l       E           TYP  RCUT    TYP  RCUT                                 
     2     -3.3744664     23  2.300                                             
     2     -4.7350490     23  2.300                                             
     0     -4.1331408     23  2.300                                             
     0      7.6656614     23  2.300                                             
     1     -2.7211652     23  2.300                                             
     1     20.4087390     23  2.300                                             
  local pseudopotential read in
  partial core-charges read in
  partial kinetic energy density read in
  atomic valenz-charges read in
  non local Contribution for L=           2  read in
    real space projection operators read in
  non local Contribution for L=           2  read in
    real space projection operators read in
  non local Contribution for L=           0  read in
    real space projection operators read in
  non local Contribution for L=           0  read in
    real space projection operators read in
  non local Contribution for L=           1  read in
    real space projection operators read in
  non local Contribution for L=           1  read in
    real space projection operators read in
    PAW grid and wavefunctions read in
 
   number of l-projection  operators is LMAX  =           6
   number of lm-projection operators is LMMAX =          18
 

 ----------------------------------------------------------------------------- 
|                                                                             |
|  ADVICE TO THIS USER RUNNING 'VASP/VAMP'   (HEAR YOUR MASTER'S VOICE ...):  |
|                                                                             |
|      You have a (more or less) 'large supercell' and for larger cells       |
|      it might be more efficient to use real space projection opertators     |
|      So try LREAL= Auto  in the INCAR   file.                               |
|      Mind:          For very  accurate calculation you might also keep the  |
|      reciprocal projection scheme          (i.e. LREAL=.FALSE.)             |
|                                                                             |
 ----------------------------------------------------------------------------- 

  PAW_PBE Al 04Jan2001                  :
 energy of atom  1       EATOM=  -53.5387
 kinetic energy error for atom=    0.0005 (will be added to EATOM!!)
  PAW_PBE Mn 06Sep2000                  :
 energy of atom  2       EATOM= -416.7541
 kinetic energy error for atom=    0.0080 (will be added to EATOM!!)
 
 
 POSCAR: NewRef: 18, @ ['Mn', array([1.37502469, 
  positions in cartesian coordinates
  velocities in cartesian coordinates
  No initial velocities read in
 exchange correlation table for  LEXCH =        8
   RHO(1)=    0.500       N(1)  =     2000
   RHO(2)=  100.500       N(2)  =     4000
 


--------------------------------------------------------------------------------------------------------


 ion  position               nearest neighbor table
   1  0.000  0.000  0.000-  20 2.61  24 2.61  32 2.61  36 2.61  31 2.61  23 2.61  35 2.61  19 2.61
                             3 2.75   7 2.75   5 2.75  13 2.75
   2  0.000  0.000  0.500-  19 2.61  23 2.61  31 2.61  35 2.61  20 2.61  32 2.61  24 2.61  36 2.61
                             4 2.75   8 2.75   6 2.75  14 2.75
   3  0.000  0.333  0.000-  20 2.61  32 2.61  22 2.61  34 2.61  19 2.61  31 2.61  33 2.61  21 2.61
                             9 2.75   1 2.75   5 2.75  15 2.75
   4  0.000  0.333  0.500-  19 2.61  31 2.61  21 2.61  33 2.61  32 2.61  20 2.61  22 2.61  34 2.61
                            10 2.75   2 2.75   6 2.75  16 2.75
   5  0.000  0.667  0.000-  22 2.61  34 2.61  24 2.61  36 2.61  21 2.61  33 2.61  35 2.61  23 2.61
                             3 2.75  11 2.75   1 2.75  17 2.75
   6  0.000  0.667  0.500-  21 2.61  33 2.61  23 2.61  35 2.61  34 2.61  22 2.61  24 2.61  36 2.61
                             4 2.75  12 2.75   2 2.75  18 2.75
   7  0.333  0.000  0.000-  20 2.61  24 2.61  26 2.61  30 2.61  23 2.61  19 2.61  29 2.61  25 2.61
                            13 2.75   1 2.75   9 2.75  11 2.75
   8  0.333  0.000  0.500-  19 2.61  23 2.61  25 2.61  29 2.61  20 2.61  24 2.61  26 2.61  30 2.61
                            14 2.75   2 2.75  10 2.75  12 2.75
   9  0.333  0.333  0.000-  20 2.61  22 2.61  26 2.61  19 2.61  28 2.61  21 2.61  25 2.61  27 2.61
                             3 2.75   7 2.75  11 2.75  15 2.75
  10  0.333  0.333  0.500-  19 2.61  21 2.61  25 2.61  20 2.61  27 2.61  26 2.61  22 2.61  28 2.61
                             4 2.75   8 2.75  12 2.75  16 2.75
  11  0.333  0.667  0.000-  22 2.61  24 2.61  28 2.61  21 2.61  30 2.61  23 2.61  27 2.61  29 2.61
                            17 2.75   5 2.75   9 2.75   7 2.75
  12  0.333  0.667  0.500-  21 2.61  23 2.61  27 2.61  22 2.61  29 2.61  28 2.61  24 2.61  30 2.61
                            18 2.75   6 2.75  10 2.75   8 2.75
  13  0.667  0.000  0.000-  26 2.61  30 2.61  32 2.61  36 2.61  29 2.61  25 2.61  35 2.61  31 2.61
                             7 2.75  15 2.75   1 2.75  17 2.75
  14  0.667  0.000  0.500-  25 2.61  29 2.61  31 2.61  35 2.61  26 2.61  30 2.61  32 2.61  36 2.61
                             8 2.75  16 2.75   2 2.75  18 2.75
  15  0.667  0.333  0.000-  26 2.61  28 2.61  32 2.61  25 2.61  34 2.61  27 2.61  31 2.61  33 2.61
                            17 2.75   9 2.75  13 2.75   3 2.75
  16  0.667  0.333  0.500-  25 2.61  27 2.61  31 2.61  26 2.61  33 2.61  32 2.61  28 2.61  34 2.61
                            18 2.75  10 2.75  14 2.75   4 2.75
  17  0.667  0.667  0.000-  28 2.61  30 2.61  34 2.61  27 2.61  36 2.61  29 2.61  33 2.61  35 2.61
                            11 2.75  15 2.75  13 2.75   5 2.75
  18  0.667  0.667  0.500-  27 2.61  29 2.61  33 2.61  28 2.61  35 2.61  34 2.61  30 2.61  36 2.61
                            12 2.75  16 2.75  14 2.75   6 2.75
  19  0.167  0.167  0.250-  10 2.61   8 2.61   4 2.61   9 2.61   2 2.61   7 2.61   3 2.61   1 2.61
                            21 2.75  25 2.75  23 2.75  31 2.75
  20  0.167  0.167  0.750-   9 2.61   7 2.61   3 2.61  10 2.61   1 2.61   4 2.61   8 2.61   2 2.61
                            22 2.75  26 2.75  24 2.75  32 2.75
  21  0.167  0.500  0.250-  12 2.61  10 2.61   6 2.61  11 2.61   4 2.61   9 2.61   5 2.61   3 2.61
                            19 2.75  23 2.75  27 2.75  33 2.75
  22  0.167  0.500  0.750-  11 2.61   9 2.61   5 2.61  12 2.61   3 2.61   6 2.61  10 2.61   4 2.61
                            20 2.75  24 2.75  28 2.75  34 2.75
  23  0.167  0.833  0.250-   8 2.61  12 2.61   2 2.61   6 2.61  11 2.61   7 2.61   5 2.61   1 2.61
                            21 2.75  29 2.75  19 2.75  35 2.75
  24  0.167  0.833  0.750-   7 2.61  11 2.61   1 2.61   5 2.61   8 2.61  12 2.61   2 2.61   6 2.61
                            22 2.75  30 2.75  20 2.75  36 2.75
  25  0.500  0.167  0.250-  16 2.61  14 2.61  10 2.61  15 2.61   8 2.61  13 2.61   9 2.61   7 2.61
                            19 2.75  27 2.75  31 2.75  29 2.75
  26  0.500  0.167  0.750-  15 2.61  13 2.61   9 2.61  16 2.61   7 2.61  10 2.61  14 2.61   8 2.61
                            20 2.75  28 2.75  32 2.75  30 2.75
  27  0.500  0.500  0.250-  18 2.61  16 2.61  12 2.61  17 2.61  10 2.61  15 2.61  11 2.61   9 2.61
                            21 2.75  25 2.75  29 2.75  33 2.75
  28  0.500  0.500  0.750-  17 2.61  15 2.61  11 2.61  18 2.61   9 2.61  12 2.61  16 2.61  10 2.61
                            22 2.75  26 2.75  30 2.75  34 2.75
  29  0.500  0.833  0.250-  14 2.61  18 2.61   8 2.61  12 2.61  17 2.61  13 2.61  11 2.61   7 2.61
                            23 2.75  27 2.75  35 2.75  25 2.75
  30  0.500  0.833  0.750-  13 2.61  17 2.61   7 2.61  11 2.61  14 2.61  18 2.61   8 2.61  12 2.61
                            24 2.75  28 2.75  36 2.75  26 2.75
  31  0.833  0.167  0.250-   4 2.61  16 2.61  14 2.61   2 2.61  15 2.61   3 2.61  13 2.61   1 2.61
                            25 2.75  33 2.75  19 2.75  35 2.75
  32  0.833  0.167  0.750-   3 2.61  15 2.61  13 2.61   1 2.61   4 2.61  16 2.61   2 2.61  14 2.61
                            26 2.75  34 2.75  20 2.75  36 2.75
  33  0.833  0.500  0.250-   6 2.61  18 2.61  16 2.61   4 2.61  17 2.61   5 2.61  15 2.61   3 2.61
                            27 2.75  31 2.75  35 2.75  21 2.75
  34  0.833  0.500  0.750-   5 2.61  17 2.61  15 2.61   3 2.61   6 2.61  18 2.61   4 2.61  16 2.61
                            28 2.75  32 2.75  36 2.75  22 2.75
  35  0.833  0.833  0.250-   2 2.61   6 2.61  14 2.61  18 2.61  13 2.61   5 2.61  17 2.61   1 2.61
                            29 2.75  33 2.75  31 2.75  23 2.75
  36  0.833  0.833  0.750-   1 2.61   5 2.61  13 2.61  17 2.61   2 2.61  14 2.61   6 2.61  18 2.61
                            30 2.75  34 2.75  32 2.75  24 2.75
 
  LATTYP: Found a simple tetragonal cell.
 ALAT       =     8.2501481662
 C/A-ratio  =     0.8428059861
  
  Lattice vectors:
  
 A1 = (   8.2501481662,   0.0000000000,   0.0000000000)
 A2 = (   0.0000000000,   8.2501481662,   0.0000000000)
 A3 = (   0.0000000000,   0.0000000000,   6.9532742610)


Analysis of symmetry for initial positions (statically):
=====================================================================
 Subroutine PRICEL returns following result:
 
  LATTYP: Found a simple tetragonal cell.
 ALAT       =     2.7500493888
 C/A-ratio  =     1.2642089792
  
  Lattice vectors:
  
 A1 = (   2.7500493888,   0.0000000000,   0.0000000000)
 A2 = (   0.0000000000,   2.7500493888,   0.0000000000)
 A3 = (   0.0000000000,   0.0000000000,   3.4766371305)
 
  18 primitive cells build up your supercell.
 

 Routine SETGRP: Setting up the symmetry group for a 
 simple tetragonal supercell.


 Subroutine GETGRP returns: Found 16 space group operations
 (whereof 16 operations were pure point group operations)
 out of a pool of 16 trial point group operations.


The static configuration has the point symmetry D_4h.


Analysis of symmetry for dynamics (positions and initial velocities):
=====================================================================
 Subroutine PRICEL returns following result:
 
  LATTYP: Found a simple tetragonal cell.
 ALAT       =     2.7500493888
 C/A-ratio  =     1.2642089792
  
  Lattice vectors:
  
 A1 = (   2.7500493888,   0.0000000000,   0.0000000000)
 A2 = (   0.0000000000,   2.7500493888,   0.0000000000)
 A3 = (   0.0000000000,   0.0000000000,   3.4766371305)
 
  18 primitive cells build up your supercell.
 

 Routine SETGRP: Setting up the symmetry group for a 
 simple tetragonal supercell.


 Subroutine GETGRP returns: Found 16 space group operations
 (whereof 16 operations were pure point group operations)
 out of a pool of 16 trial point group operations.


The dynamic configuration has the point symmetry D_4h.


Analysis of structural, dynamic, and magnetic symmetry:
=====================================================================
 Subroutine PRICEL returns:
 Original cell was already a primitive cell.
 

 Routine SETGRP: Setting up the symmetry group for a 
 simple tetragonal supercell.


 Subroutine GETGRP returns: Found  2 space group operations
 (whereof  1 operations were pure point group operations)
 out of a pool of 16 trial point group operations.


The magnetic configuration has the point symmetry C_1 .
 The point group associated with its full space group is C_1h.


 Subroutine INISYM returns: Found  2 space group operations
 (whereof  1 operations are pure point group operations),
 and found     1 'primitive' translations

 
 
 KPOINTS: automatic KPOINTS                       

Automatic generation of k-mesh.
 generate k-points for:    5    5    6
Space group operators:
 irot       det(A)        alpha          n_x          n_y          n_z        tau_x        tau_y        tau_z
    1     1.000000     0.000001     1.000000     0.000000     0.000000     0.000000     0.000000     0.000000
    2    -1.000000   179.999999     0.000000     0.000000     1.000000     0.000000     0.000000     0.500000
 
 Subroutine IBZKPT returns following result:
 ===========================================
 
 Found     52 irreducible k-points:
 
 Following reciprocal coordinates:
            Coordinates               Weight
  0.000000  0.000000  0.000000      1.000000
  0.200000  0.000000  0.000000      2.000000
  0.400000  0.000000  0.000000      2.000000
  0.000000  0.200000  0.000000      2.000000
  0.200000  0.200000  0.000000      2.000000
  0.400000  0.200000  0.000000      2.000000
 -0.400000  0.200000  0.000000      2.000000
 -0.200000  0.200000  0.000000      2.000000
  0.000000  0.400000  0.000000      2.000000
  0.200000  0.400000  0.000000      2.000000
  0.400000  0.400000  0.000000      2.000000
 -0.400000  0.400000  0.000000      2.000000
 -0.200000  0.400000  0.000000      2.000000
  0.000000  0.000000  0.166667      2.000000
  0.200000  0.000000  0.166667      4.000000
  0.400000  0.000000  0.166667      4.000000
  0.000000  0.200000  0.166667      4.000000
  0.200000  0.200000  0.166667      4.000000
  0.400000  0.200000  0.166667      4.000000
 -0.400000  0.200000  0.166667      4.000000
 -0.200000  0.200000  0.166667      4.000000
  0.000000  0.400000  0.166667      4.000000
  0.200000  0.400000  0.166667      4.000000
  0.400000  0.400000  0.166667      4.000000
 -0.400000  0.400000  0.166667      4.000000
 -0.200000  0.400000  0.166667      4.000000
  0.000000  0.000000  0.333333      2.000000
  0.200000  0.000000  0.333333      4.000000
  0.400000  0.000000  0.333333      4.000000
  0.000000  0.200000  0.333333      4.000000
  0.200000  0.200000  0.333333      4.000000
  0.400000  0.200000  0.333333      4.000000
 -0.400000  0.200000  0.333333      4.000000
 -0.200000  0.200000  0.333333      4.000000
  0.000000  0.400000  0.333333      4.000000
  0.200000  0.400000  0.333333      4.000000
  0.400000  0.400000  0.333333      4.000000
 -0.400000  0.400000  0.333333      4.000000
 -0.200000  0.400000  0.333333      4.000000
  0.000000  0.000000  0.500000      1.000000
  0.200000  0.000000  0.500000      2.000000
  0.400000  0.000000  0.500000      2.000000
  0.000000  0.200000  0.500000      2.000000
  0.200000  0.200000  0.500000      2.000000
  0.400000  0.200000  0.500000      2.000000
 -0.400000  0.200000  0.500000      2.000000
 -0.200000  0.200000  0.500000      2.000000
  0.000000  0.400000  0.500000      2.000000
  0.200000  0.400000  0.500000      2.000000
  0.400000  0.400000  0.500000      2.000000
 -0.400000  0.400000  0.500000      2.000000
 -0.200000  0.400000  0.500000      2.000000
 
 Following cartesian coordinates:
            Coordinates               Weight
  0.000000  0.000000  0.000000      1.000000
  0.024242  0.000000  0.000000      2.000000
  0.048484  0.000000  0.000000      2.000000
  0.000000  0.024242  0.000000      2.000000
  0.024242  0.024242  0.000000      2.000000
  0.048484  0.024242  0.000000      2.000000
 -0.048484  0.024242  0.000000      2.000000
 -0.024242  0.024242  0.000000      2.000000
  0.000000  0.048484  0.000000      2.000000
  0.024242  0.048484  0.000000      2.000000
  0.048484  0.048484  0.000000      2.000000
 -0.048484  0.048484  0.000000      2.000000
 -0.024242  0.048484  0.000000      2.000000
  0.000000  0.000000  0.023970      2.000000
  0.024242  0.000000  0.023970      4.000000
  0.048484  0.000000  0.023970      4.000000
  0.000000  0.024242  0.023970      4.000000
  0.024242  0.024242  0.023970      4.000000
  0.048484  0.024242  0.023970      4.000000
 -0.048484  0.024242  0.023970      4.000000
 -0.024242  0.024242  0.023970      4.000000
  0.000000  0.048484  0.023970      4.000000
  0.024242  0.048484  0.023970      4.000000
  0.048484  0.048484  0.023970      4.000000
 -0.048484  0.048484  0.023970      4.000000
 -0.024242  0.048484  0.023970      4.000000
  0.000000  0.000000  0.047939      2.000000
  0.024242  0.000000  0.047939      4.000000
  0.048484  0.000000  0.047939      4.000000
  0.000000  0.024242  0.047939      4.000000
  0.024242  0.024242  0.047939      4.000000
  0.048484  0.024242  0.047939      4.000000
 -0.048484  0.024242  0.047939      4.000000
 -0.024242  0.024242  0.047939      4.000000
  0.000000  0.048484  0.047939      4.000000
  0.024242  0.048484  0.047939      4.000000
  0.048484  0.048484  0.047939      4.000000
 -0.048484  0.048484  0.047939      4.000000
 -0.024242  0.048484  0.047939      4.000000
  0.000000  0.000000  0.071909      1.000000
  0.024242  0.000000  0.071909      2.000000
  0.048484  0.000000  0.071909      2.000000
  0.000000  0.024242  0.071909      2.000000
  0.024242  0.024242  0.071909      2.000000
  0.048484  0.024242  0.071909      2.000000
 -0.048484  0.024242  0.071909      2.000000
 -0.024242  0.024242  0.071909      2.000000
  0.000000  0.048484  0.071909      2.000000
  0.024242  0.048484  0.071909      2.000000
  0.048484  0.048484  0.071909      2.000000
 -0.048484  0.048484  0.071909      2.000000
 -0.024242  0.048484  0.071909      2.000000
 


--------------------------------------------------------------------------------------------------------




 Dimension of arrays:
   k-points           NKPTS =     52   k-points in BZ     NKDIM =     52   number of bands    NBANDS=    112
   number of dos      NEDOS =    301   number of ions     NIONS =     36
   non local maximal  LDIM  =      6   non local SUM 2l+1 LMDIM =     18
   total plane-waves  NPLWV = 139968
   max r-space proj   IRMAX =      1   max aug-charges    IRDMAX=  92271
   dimension x,y,z NGX =    54 NGY =   54 NGZ =   48
   dimension x,y,z NGXF=   108 NGYF=  108 NGZF=   96
   support grid    NGXF=   216 NGYF=  216 NGZF=  192
   ions per type =              18  18
   NGX,Y,Z   is equivalent  to a cutoff of  10.88, 10.88, 11.48 a.u.
   NGXF,Y,Z  is equivalent  to a cutoff of  21.76, 21.76, 22.95 a.u.

 SYSTEM =  AlMn_pv                                 
 POSCAR =  NewRef: 18, @ ['Mn', array([1.37502469, 

 Startparameter for this run:
   NWRITE =      2    write-flag & timer
   PREC   = accura    normal or accurate (medium, high low for compatibility)
   ISTART =      0    job   : 0-new  1-cont  2-samecut
   ICHARG =      2    charge: 1-file 2-atom 10-const
   ISPIN  =      2    spin polarized calculation?
   LNONCOLLINEAR =      F non collinear calculations
   LSORBIT =      F    spin-orbit coupling
   INIWAV =      1    electr: 0-lowe 1-rand  2-diag
   LASPH  =      F    aspherical Exc in radial PAW
   METAGGA=      F    non-selfconsistent MetaGGA calc.

 Electronic Relaxation 1
   ENCUT  =  404.8 eV  29.75 Ry    5.45 a.u.  13.53 13.53 11.41*2*pi/ulx,y,z
   ENINI  =  404.8     initial cutoff
   ENAUG  =  500.7 eV  augmentation charge cutoff
   NELM   =    100;   NELMIN=  4; NELMDL= -8     # of ELM steps 
   EDIFF  = 0.1E-06   stopping-criterion for ELM
   LREAL  =      F    real-space projection
   NLSPLINE    = F    spline interpolate recip. space projectors
   LCOMPAT=      F    compatible to vasp.4.4
   GGA_COMPAT  = T    GGA compatible to vasp.4.4-vasp.4.6
   LMAXPAW     = -100 max onsite density
   LMAXMIX     =    2 max onsite mixed and CHGCAR
   VOSKOWN=      0    Vosko Wilk Nusair interpolation
   ROPT   =    0.00000   0.00000
 Ionic relaxation
   EDIFFG = 0.1E-05   stopping-criterion for IOM
   NSW    =      0    number of steps for IOM
   NBLOCK =      1;   KBLOCK =      1    inner block; outer block 
   IBRION =     -1    ionic relax: 0-MD 1-quasi-New 2-CG
   NFREE  =      0    steps in history (QN), initial steepest desc. (CG)
   ISIF   =      2    stress and relaxation
   IWAVPR =     10    prediction:  0-non 1-charg 2-wave 3-comb
   ISYM   =      2    0-nonsym 1-usesym 2-fastsym
   LCORR  =      T    Harris-Foulkes like correction to forces

   POTIM  = 0.2000    time-step for ionic-motion
   TEIN   =    0.0    initial temperature
   TEBEG  =    0.0;   TEEND  =   0.0 temperature during run
   SMASS  =  -3.00    Nose mass-parameter (am)
   estimated Nose-frequenzy (Omega)   =  0.10E-29 period in steps =****** mass=  -0.156E-26a.u.
   SCALEE = 1.0000    scale energy and forces
   NPACO  =    256;   APACO  = 16.0  distance and # of slots for P.C.
   PSTRESS=    0.0 pullay stress

  Mass of Ions in am
   POMASS =  26.98 54.94
  Ionic Valenz
   ZVAL   =   3.00  7.00
  Atomic Wigner-Seitz radii
   RWIGS  =  -1.00 -1.00
  virtual crystal weights 
   VCA    =   1.00  1.00
   NELECT =     180.0000    total number of electrons
   NUPDOWN=      -1.0000    fix difference up-down

 DOS related values:
   EMIN   =  10.00;   EMAX   =-10.00  energy-range for DOS
   EFERMI =   0.00
   ISMEAR =     1;   SIGMA  =   0.20  broadening in eV -4-tet -1-fermi 0-gaus

 Electronic relaxation 2 (details)
   IALGO  =     58    algorithm
   LDIAG  =      T    sub-space diagonalisation (order eigenvalues)
   LSUBROT=      F    optimize rotation matrix (better conditioning)
   TURBO    =      0    0=normal 1=particle mesh
   IRESTART =      0    0=no restart 2=restart with 2 vectors
   NREBOOT  =      0    no. of reboots
   NMIN     =      0    reboot dimension
   EREF     =   0.00    reference energy to select bands
   IMIX   =      4    mixing-type and parameters
     AMIX     =   0.40;   BMIX     =  1.00
     AMIX_MAG =   1.60;   BMIX_MAG =  1.00
     AMIN     =   0.10
     WC   =   100.;   INIMIX=   1;  MIXPRE=   1;  MAXMIX= -45

 Intra band minimization:
   WEIMIN = 0.0000     energy-eigenvalue tresh-hold
   EBREAK =  0.22E-09  absolut break condition
   DEPER  =   0.30     relativ break condition  

   TIME   =   0.40     timestep for ELM

  volume/ion in A,a.u.               =      13.15        88.72
  Fermi-wavevector in a.u.,A,eV,Ry     =   1.186118  2.241439 19.141722  1.406877
  Thomas-Fermi vector in A             =   2.322298
 
 Write flags
   LWAVE        =      F    write WAVECAR
   LDOWNSAMPLE  =      F    k-point downsampling of WAVECAR
   LCHARG       =      F    write CHGCAR
   LVTOT        =      F    write LOCPOT, total local potential
   LVHAR        =      F    write LOCPOT, Hartree potential only
   LELF         =      F    write electronic localiz. function (ELF)
   LORBIT       =     10    0 simple, 1 ext, 2 COOP (PROOUT), +10 PAW based schemes


 Dipole corrections
   LMONO  =      F    monopole corrections only (constant potential shift)
   LDIPOL =      F    correct potential (dipole corrections)
   IDIPOL =      0    1-x, 2-y, 3-z, 4-all directions 
   EPSILON=  1.0000000 bulk dielectric constant

 Exchange correlation treatment:
   GGA     =    --    GGA type
   LEXCH   =     8    internal setting for exchange type
   VOSKOWN=      0    Vosko Wilk Nusair interpolation
   LHFCALC =     F    Hartree Fock is set to
   LHFONE  =     F    Hartree Fock one center treatment
   AEXX    =    0.0000 exact exchange contribution

 Linear response parameters
   LEPSILON=     F    determine dielectric tensor
   LRPA    =     F    only Hartree local field effects (RPA)
   LNABLA  =     F    use nabla operator in PAW spheres
   LVEL    =     F    velocity operator in full k-point grid
   LINTERFAST=   F  fast interpolation
   KINTER  =     0    interpolate to denser k-point grid
   CSHIFT  =0.1000    complex shift for real part using Kramers Kronig
   OMEGAMAX=  -1.0    maximum frequency
   DEG_THRESHOLD= 0.2000000E-02 threshold for treating states as degnerate
   RTIME   =   -0.100 relaxation time in fs
  (WPLASMAI=    0.000 imaginary part of plasma frequency in eV, 0.658/RTIME)
   DFIELD  = 0.0000000 0.0000000 0.0000000 field for delta impulse in time
 
 Orbital magnetization related:
   ORBITALMAG=     F  switch on orbital magnetization
   LCHIMAG   =     F  perturbation theory with respect to B field
   DQ        =  0.001000  dq finite difference perturbation B field
   LLRAUG    =     F  two centre corrections for induced B field



--------------------------------------------------------------------------------------------------------


 Static calculation
 charge density and potential will be updated during run
 spin polarized calculation
 Conjugate gradient for all bands (Freysoldt, et al. PRB 79, 241103 (2009))
 preconditioned conjugated gradient                                        
 perform sub-space diagonalisation
    before iterative eigenvector-optimisation
 modified Broyden-mixing scheme, WC =      100.0
 initial mixing is a Kerker type mixing with AMIX =  0.4000 and BMIX =      1.0000
 Hartree-type preconditioning will be used
 using additional bands           22
 reciprocal scheme for non local part
 use partial core corrections
 no Harris-corrections to forces 
 use gradient corrections 
 use of overlap-Matrix (Vanderbilt PP)
 Methfessel and Paxton  Order N= 1 SIGMA  =   0.20


--------------------------------------------------------------------------------------------------------


  energy-cutoff  :      404.80
  volume of cell :      473.27
      direct lattice vectors                 reciprocal lattice vectors
     8.250148166  0.000000000  0.000000000     0.121209944  0.000000000  0.000000000
     0.000000000  8.250148166  0.000000000     0.000000000  0.121209944  0.000000000
     0.000000000  0.000000000  6.953274261     0.000000000  0.000000000  0.143817137

  length of vectors
     8.250148166  8.250148166  6.953274261     0.121209944  0.121209944  0.143817137


 
 k-points in units of 2pi/SCALE and weight: automatic KPOINTS                       
   0.00000000  0.00000000  0.00000000       0.007
   0.02424199  0.00000000  0.00000000       0.013
   0.04848398  0.00000000  0.00000000       0.013
   0.00000000  0.02424199  0.00000000       0.013
   0.02424199  0.02424199  0.00000000       0.013
   0.04848398  0.02424199  0.00000000       0.013
  -0.04848398  0.02424199  0.00000000       0.013
  -0.02424199  0.02424199  0.00000000       0.013
   0.00000000  0.04848398  0.00000000       0.013
   0.02424199  0.04848398  0.00000000       0.013
   0.04848398  0.04848398  0.00000000       0.013
  -0.04848398  0.04848398  0.00000000       0.013
  -0.02424199  0.04848398  0.00000000       0.013
   0.00000000  0.00000000  0.02396952       0.013
   0.02424199  0.00000000  0.02396952       0.027
   0.04848398  0.00000000  0.02396952       0.027
   0.00000000  0.02424199  0.02396952       0.027
   0.02424199  0.02424199  0.02396952       0.027
   0.04848398  0.02424199  0.02396952       0.027
  -0.04848398  0.02424199  0.02396952       0.027
  -0.02424199  0.02424199  0.02396952       0.027
   0.00000000  0.04848398  0.02396952       0.027
   0.02424199  0.04848398  0.02396952       0.027
   0.04848398  0.04848398  0.02396952       0.027
  -0.04848398  0.04848398  0.02396952       0.027
  -0.02424199  0.04848398  0.02396952       0.027
   0.00000000  0.00000000  0.04793905       0.013
   0.02424199  0.00000000  0.04793905       0.027
   0.04848398  0.00000000  0.04793905       0.027
   0.00000000  0.02424199  0.04793905       0.027
   0.02424199  0.02424199  0.04793905       0.027
   0.04848398  0.02424199  0.04793905       0.027
  -0.04848398  0.02424199  0.04793905       0.027
  -0.02424199  0.02424199  0.04793905       0.027
   0.00000000  0.04848398  0.04793905       0.027
   0.02424199  0.04848398  0.04793905       0.027
   0.04848398  0.04848398  0.04793905       0.027
  -0.04848398  0.04848398  0.04793905       0.027
  -0.02424199  0.04848398  0.04793905       0.027
   0.00000000  0.00000000  0.07190857       0.007
   0.02424199  0.00000000  0.07190857       0.013
   0.04848398  0.00000000  0.07190857       0.013
   0.00000000  0.02424199  0.07190857       0.013
   0.02424199  0.02424199  0.07190857       0.013
   0.04848398  0.02424199  0.07190857       0.013
  -0.04848398  0.02424199  0.07190857       0.013
  -0.02424199  0.02424199  0.07190857       0.013
   0.00000000  0.04848398  0.07190857       0.013
   0.02424199  0.04848398  0.07190857       0.013
   0.04848398  0.04848398  0.07190857       0.013
  -0.04848398  0.04848398  0.07190857       0.013
  -0.02424199  0.04848398  0.07190857       0.013
 
 k-points in reciprocal lattice and weights: automatic KPOINTS                       
   0.00000000  0.00000000  0.00000000       0.007
   0.20000000  0.00000000  0.00000000       0.013
   0.40000000  0.00000000  0.00000000       0.013
   0.00000000  0.20000000  0.00000000       0.013
   0.20000000  0.20000000  0.00000000       0.013
   0.40000000  0.20000000  0.00000000       0.013
  -0.40000000  0.20000000  0.00000000       0.013
  -0.20000000  0.20000000  0.00000000       0.013
   0.00000000  0.40000000  0.00000000       0.013
   0.20000000  0.40000000  0.00000000       0.013
   0.40000000  0.40000000  0.00000000       0.013
  -0.40000000  0.40000000  0.00000000       0.013
  -0.20000000  0.40000000  0.00000000       0.013
   0.00000000  0.00000000  0.16666667       0.013
   0.20000000  0.00000000  0.16666667       0.027
   0.40000000  0.00000000  0.16666667       0.027
   0.00000000  0.20000000  0.16666667       0.027
   0.20000000  0.20000000  0.16666667       0.027
   0.40000000  0.20000000  0.16666667       0.027
  -0.40000000  0.20000000  0.16666667       0.027
  -0.20000000  0.20000000  0.16666667       0.027
   0.00000000  0.40000000  0.16666667       0.027
   0.20000000  0.40000000  0.16666667       0.027
   0.40000000  0.40000000  0.16666667       0.027
  -0.40000000  0.40000000  0.16666667       0.027
  -0.20000000  0.40000000  0.16666667       0.027
   0.00000000  0.00000000  0.33333333       0.013
   0.20000000  0.00000000  0.33333333       0.027
   0.40000000  0.00000000  0.33333333       0.027
   0.00000000  0.20000000  0.33333333       0.027
   0.20000000  0.20000000  0.33333333       0.027
   0.40000000  0.20000000  0.33333333       0.027
  -0.40000000  0.20000000  0.33333333       0.027
  -0.20000000  0.20000000  0.33333333       0.027
   0.00000000  0.40000000  0.33333333       0.027
   0.20000000  0.40000000  0.33333333       0.027
   0.40000000  0.40000000  0.33333333       0.027
  -0.40000000  0.40000000  0.33333333       0.027
  -0.20000000  0.40000000  0.33333333       0.027
   0.00000000  0.00000000  0.50000000       0.007
   0.20000000  0.00000000  0.50000000       0.013
   0.40000000  0.00000000  0.50000000       0.013
   0.00000000  0.20000000  0.50000000       0.013
   0.20000000  0.20000000  0.50000000       0.013
   0.40000000  0.20000000  0.50000000       0.013
  -0.40000000  0.20000000  0.50000000       0.013
  -0.20000000  0.20000000  0.50000000       0.013
   0.00000000  0.40000000  0.50000000       0.013
   0.20000000  0.40000000  0.50000000       0.013
   0.40000000  0.40000000  0.50000000       0.013
  -0.40000000  0.40000000  0.50000000       0.013
  -0.20000000  0.40000000  0.50000000       0.013
 
 position of ions in fractional coordinates (direct lattice) 
   0.00000000  0.00000000  0.00000000
   0.00000000  0.00000000  0.50000000
   0.00000000  0.33333333  0.00000000
   0.00000000  0.33333333  0.50000000
   0.00000000  0.66666667  0.00000000
   0.00000000  0.66666667  0.50000000
   0.33333333  0.00000000  0.00000000
   0.33333333  0.00000000  0.50000000
   0.33333333  0.33333333  0.00000000
   0.33333333  0.33333333  0.50000000
   0.33333333  0.66666667  0.00000000
   0.33333333  0.66666667  0.50000000
   0.66666667  0.00000000  0.00000000
   0.66666667  0.00000000  0.50000000
   0.66666667  0.33333333  0.00000000
   0.66666667  0.33333333  0.50000000
   0.66666667  0.66666667  0.00000000
   0.66666667  0.66666667  0.50000000
   0.16666667  0.16666667  0.25000000
   0.16666667  0.16666667  0.75000000
   0.16666667  0.50000000  0.25000000
   0.16666667  0.50000000  0.75000000
   0.16666667  0.83333333  0.25000000
   0.16666667  0.83333333  0.75000000
   0.50000000  0.16666667  0.25000000
   0.50000000  0.16666667  0.75000000
   0.50000000  0.50000000  0.25000000
   0.50000000  0.50000000  0.75000000
   0.50000000  0.83333333  0.25000000
   0.50000000  0.83333333  0.75000000
   0.83333333  0.16666667  0.25000000
   0.83333333  0.16666667  0.75000000
   0.83333333  0.50000000  0.25000000
   0.83333333  0.50000000  0.75000000
   0.83333333  0.83333333  0.25000000
   0.83333333  0.83333333  0.75000000
 
 position of ions in cartesian coordinates  (Angst):
   0.00000000  0.00000000  0.00000000
   0.00000000  0.00000000  3.47663713
   0.00000000  2.75004939  0.00000000
   0.00000000  2.75004939  3.47663713
   0.00000000  5.50009878  0.00000000
   0.00000000  5.50009878  3.47663713
   2.75004939  0.00000000  0.00000000
   2.75004939  0.00000000  3.47663713
   2.75004939  2.75004939  0.00000000
   2.75004939  2.75004939  3.47663713
   2.75004939  5.50009878  0.00000000
   2.75004939  5.50009878  3.47663713
   5.50009878  0.00000000  0.00000000
   5.50009878  0.00000000  3.47663713
   5.50009878  2.75004939  0.00000000
   5.50009878  2.75004939  3.47663713
   5.50009878  5.50009878  0.00000000
   5.50009878  5.50009878  3.47663713
   1.37502469  1.37502469  1.73831857
   1.37502469  1.37502469  5.21495570
   1.37502469  4.12507408  1.73831857
   1.37502469  4.12507408  5.21495570
   1.37502469  6.87512347  1.73831857
   1.37502469  6.87512347  5.21495570
   4.12507408  1.37502469  1.73831857
   4.12507408  1.37502469  5.21495570
   4.12507408  4.12507408  1.73831857
   4.12507408  4.12507408  5.21495570
   4.12507408  6.87512347  1.73831857
   4.12507408  6.87512347  5.21495570
   6.87512347  1.37502469  1.73831857
   6.87512347  1.37502469  5.21495570
   6.87512347  4.12507408  1.73831857
   6.87512347  4.12507408  5.21495570
   6.87512347  6.87512347  1.73831857
   6.87512347  6.87512347  5.21495570
 


--------------------------------------------------------------------------------------------------------


 k-point  1 :   0.0000 0.0000 0.0000  plane waves:    8799
 k-point  2 :   0.2000 0.0000 0.0000  plane waves:    8753
 k-point  3 :   0.4000 0.0000 0.0000  plane waves:    8757
 k-point  4 :   0.0000 0.2000 0.0000  plane waves:    8753
 k-point  5 :   0.2000 0.2000 0.0000  plane waves:    8767
 k-point  6 :   0.4000 0.2000 0.0000  plane waves:    8761
 k-point  7 :  -0.4000 0.2000 0.0000  plane waves:    8761
 k-point  8 :  -0.2000 0.2000 0.0000  plane waves:    8767
 k-point  9 :   0.0000 0.4000 0.0000  plane waves:    8757
 k-point 10 :   0.2000 0.4000 0.0000  plane waves:    8761
 k-point 11 :   0.4000 0.4000 0.0000  plane waves:    8731
 k-point 12 :  -0.4000 0.4000 0.0000  plane waves:    8731
 k-point 13 :  -0.2000 0.4000 0.0000  plane waves:    8761
 k-point 14 :   0.0000 0.0000 0.1667  plane waves:    8763
 k-point 15 :   0.2000 0.0000 0.1667  plane waves:    8771
 k-point 16 :   0.4000 0.0000 0.1667  plane waves:    8747
 k-point 17 :   0.0000 0.2000 0.1667  plane waves:    8771
 k-point 18 :   0.2000 0.2000 0.1667  plane waves:    8764
 k-point 19 :   0.4000 0.2000 0.1667  plane waves:    8768
 k-point 20 :  -0.4000 0.2000 0.1667  plane waves:    8768
 k-point 21 :  -0.2000 0.2000 0.1667  plane waves:    8764
 k-point 22 :   0.0000 0.4000 0.1667  plane waves:    8747
 k-point 23 :   0.2000 0.4000 0.1667  plane waves:    8768
 k-point 24 :   0.4000 0.4000 0.1667  plane waves:    8740
 k-point 25 :  -0.4000 0.4000 0.1667  plane waves:    8740
 k-point 26 :  -0.2000 0.4000 0.1667  plane waves:    8768
 k-point 27 :   0.0000 0.0000 0.3333  plane waves:    8743
 k-point 28 :   0.2000 0.0000 0.3333  plane waves:    8736
 k-point 29 :   0.4000 0.0000 0.3333  plane waves:    8753
 k-point 30 :   0.0000 0.2000 0.3333  plane waves:    8736
 k-point 31 :   0.2000 0.2000 0.3333  plane waves:    8753
 k-point 32 :   0.4000 0.2000 0.3333  plane waves:    8743
 k-point 33 :  -0.4000 0.2000 0.3333  plane waves:    8743
 k-point 34 :  -0.2000 0.2000 0.3333  plane waves:    8753
 k-point 35 :   0.0000 0.4000 0.3333  plane waves:    8753
 k-point 36 :   0.2000 0.4000 0.3333  plane waves:    8743
 k-point 37 :   0.4000 0.4000 0.3333  plane waves:    8755
 k-point 38 :  -0.4000 0.4000 0.3333  plane waves:    8755
 k-point 39 :  -0.2000 0.4000 0.3333  plane waves:    8743
 k-point 40 :   0.0000 0.0000 0.5000  plane waves:    8742
 k-point 41 :   0.2000 0.0000 0.5000  plane waves:    8756
 k-point 42 :   0.4000 0.0000 0.5000  plane waves:    8744
 k-point 43 :   0.0000 0.2000 0.5000  plane waves:    8756
 k-point 44 :   0.2000 0.2000 0.5000  plane waves:    8762
 k-point 45 :   0.4000 0.2000 0.5000  plane waves:    8732
 k-point 46 :  -0.4000 0.2000 0.5000  plane waves:    8732
 k-point 47 :  -0.2000 0.2000 0.5000  plane waves:    8762
 k-point 48 :   0.0000 0.4000 0.5000  plane waves:    8744
 k-point 49 :   0.2000 0.4000 0.5000  plane waves:    8732
 k-point 50 :   0.4000 0.4000 0.5000  plane waves:    8736
 k-point 51 :  -0.4000 0.4000 0.5000  plane waves:    8736
 k-point 52 :  -0.2000 0.4000 0.5000  plane waves:    8732

 maximum and minimum number of plane-waves per node :      2210     2164

 maximum number of plane-waves:      8799
 maximum index in each direction: 
   IXMAX=   13   IYMAX=   13   IZMAX=   11
   IXMIN=  -13   IYMIN=  -13   IZMIN=  -11


 parallel 3D FFT for wavefunctions:
    minimum data exchange during FFTs selected (reduces bandwidth)
 parallel 3D FFT for charge:
    minimum data exchange during FFTs selected (reduces bandwidth)


 total amount of memory used by VASP MPI-rank0   751840. kBytes
=======================================================================

   base      :      30000. kBytes
   nonl-proj :      34307. kBytes
   fftplans  :      21726. kBytes
   grid      :      14732. kBytes
   one-center:        279. kBytes
   wavefun   :     650796. kBytes
 
     INWAV:  cpu time    0.0000: real time    0.0000
 Broyden mixing: mesh for mixing (old mesh)
   NGX = 27   NGY = 27   NGZ = 23
  (NGX  =108   NGY  =108   NGZ  = 96)
  gives a total of  16767 points

 initial charge density was supplied:
 charge density of overlapping atoms calculated
 number of electron     180.0000000 magnetization       6.0000000
 keeping initial charge density in first step


--------------------------------------------------------------------------------------------------------


 Maximum index for augmentation-charges        11261 (set IRDMAX)


--------------------------------------------------------------------------------------------------------


 First call to EWALD:  gamma=   0.227
 Maximum number of real-space cells 3x 3x 3
 Maximum number of reciprocal cells 3x 3x 3

    FEWALD:  cpu time    0.0021: real time    0.0021


--------------------------------------- Iteration      1(   1)  ---------------------------------------


    POTLOK:  cpu time    0.2647: real time    0.2647
    SETDIJ:  cpu time    0.3336: real time    0.3624
    TRIAL :  cpu time   18.6050: real time   19.4013
    CORREC:  cpu time    0.0066: real time    0.0076
    --------------------------------------------
      LOOP:  cpu time   19.4229: real time   20.2549

 eigenvalue-minimisations  : 23296
 total energy-change (2. order) : 0.1351199E+04  (-0.5881903E+04)
 number of electron     180.0000000 magnetization       6.0000000
 augmentation part      180.0000000 magnetization       6.0000000

 Free energy of the ion-electron system (eV)
  ---------------------------------------------------
  alpha Z        PSCENC =       532.25742704
  Ewald energy   TEWEN  =     -8601.05107233
  -Hartree energ DENC   =     -1903.73857242
  -exchange      EXHF   =         0.00000000
  -V(xc)+E(xc)   XCENC  =      -664.69011139
  PAW double counting   =      8494.55058411    -7650.81563588
  entropy T*S    EENTRO =        -0.00854479
  eigenvalues    EBANDS =      2679.57869615
  atomic energy  EATOM  =      8465.11600846
  ---------------------------------------------------
  free energy    TOTEN  =      1351.19877895 eV

  energy without entropy =     1351.20732374  energy(sigma->0) =     1351.20162721


--------------------------------------------------------------------------------------------------------




--------------------------------------- Iteration      1(   2)  ---------------------------------------


    TRIAL :  cpu time   19.3696: real time   19.4398
    CORREC:  cpu time    0.0082: real time    0.0083
    --------------------------------------------
      LOOP:  cpu time   19.3788: real time   19.4513

 eigenvalue-minimisations  : 23296
 total energy-change (2. order) :-0.1412380E+04  (-0.1379267E+04)
 number of electron     180.0000000 magnetization       6.0000000
 augmentation part      180.0000000 magnetization       6.0000000

 Free energy of the ion-electron system (eV)
  ---------------------------------------------------
  alpha Z        PSCENC =       532.25742704
  Ewald energy   TEWEN  =     -8601.05107233
  -Hartree energ DENC   =     -1903.73857242
  -exchange      EXHF   =         0.00000000
  -V(xc)+E(xc)   XCENC  =      -664.69011139
  PAW double counting   =      8494.55058411    -7650.81563588
  entropy T*S    EENTRO =         0.00015667
  eigenvalues    EBANDS =      1267.19024770
  atomic energy  EATOM  =      8465.11600846
  ---------------------------------------------------
  free energy    TOTEN  =       -61.18096804 eV

  energy without entropy =      -61.18112471  energy(sigma->0) =      -61.18102026


--------------------------------------------------------------------------------------------------------




--------------------------------------- Iteration      1(   3)  ---------------------------------------


    TRIAL :  cpu time   25.8461: real time   26.1381
    CORREC:  cpu time    0.0094: real time    0.0103
    --------------------------------------------
      LOOP:  cpu time   25.8568: real time   26.1525

 eigenvalue-minimisations  : 35488
 total energy-change (2. order) :-0.1772958E+03  (-0.1591549E+03)
 number of electron     180.0000000 magnetization       6.0000000
 augmentation part      180.0000000 magnetization       6.0000000

 Free energy of the ion-electron system (eV)
  ---------------------------------------------------
  alpha Z        PSCENC =       532.25742704
  Ewald energy   TEWEN  =     -8601.05107233
  -Hartree energ DENC   =     -1903.73857242
  -exchange      EXHF   =         0.00000000
  -V(xc)+E(xc)   XCENC  =      -664.69011139
  PAW double counting   =      8494.55058411    -7650.81563588
  entropy T*S    EENTRO =         0.01039533
  eigenvalues    EBANDS =      1089.88421628
  atomic energy  EATOM  =      8465.11600846
  ---------------------------------------------------
  free energy    TOTEN  =      -238.47676080 eV

  energy without entropy =     -238.48715612  energy(sigma->0) =     -238.48022591


--------------------------------------------------------------------------------------------------------




--------------------------------------- Iteration      1(   4)  ---------------------------------------


    TRIAL :  cpu time   27.1291: real time   28.0352
    CORREC:  cpu time    0.0098: real time    0.0099
    --------------------------------------------
      LOOP:  cpu time   27.1405: real time   28.0488

 eigenvalue-minimisations  : 37920
 total energy-change (2. order) :-0.2823665E+02  (-0.2512195E+02)
 number of electron     180.0000000 magnetization       6.0000000
 augmentation part      180.0000000 magnetization       6.0000000

 Free energy of the ion-electron system (eV)
  ---------------------------------------------------
  alpha Z        PSCENC =       532.25742704
  Ewald energy   TEWEN  =     -8601.05107233
  -Hartree energ DENC   =     -1903.73857242
  -exchange      EXHF   =         0.00000000
  -V(xc)+E(xc)   XCENC  =      -664.69011139
  PAW double counting   =      8494.55058411    -7650.81563588
  entropy T*S    EENTRO =         0.02999887
  eigenvalues    EBANDS =      1061.62796091
  atomic energy  EATOM  =      8465.11600846
  ---------------------------------------------------
  free energy    TOTEN  =      -266.71341263 eV

  energy without entropy =     -266.74341150  energy(sigma->0) =     -266.72341225


--------------------------------------------------------------------------------------------------------




--------------------------------------- Iteration      1(   5)  ---------------------------------------


    TRIAL :  cpu time   27.9406: real time   28.1958
    CORREC:  cpu time    0.0101: real time    0.0110
    --------------------------------------------
      LOOP:  cpu time   27.9530: real time   28.2111

 eigenvalue-minimisations  : 38976
 total energy-change (2. order) :-0.3080334E+01  (-0.2934986E+01)
 number of electron     180.0000000 magnetization       6.0000000
 augmentation part      180.0000000 magnetization       6.0000000

 Free energy of the ion-electron system (eV)
  ---------------------------------------------------
  alpha Z        PSCENC =       532.25742704
  Ewald energy   TEWEN  =     -8601.05107233
  -Hartree energ DENC   =     -1903.73857242
  -exchange      EXHF   =         0.00000000
  -V(xc)+E(xc)   XCENC  =      -664.69011139
  PAW double counting   =      8494.55058411    -7650.81563588
  entropy T*S    EENTRO =         0.03411744
  eigenvalues    EBANDS =      1058.54350808
  atomic energy  EATOM  =      8465.11600846
  ---------------------------------------------------
  free energy    TOTEN  =      -269.79374688 eV

  energy without entropy =     -269.82786432  energy(sigma->0) =     -269.80511936


--------------------------------------------------------------------------------------------------------




--------------------------------------- Iteration      1(   6)  ---------------------------------------


    TRIAL :  cpu time   28.3236: real time   28.4379
    CORREC:  cpu time    0.0102: real time    0.0103
    --------------------------------------------
      LOOP:  cpu time   28.3348: real time   28.4518

 eigenvalue-minimisations  : 38632
 total energy-change (2. order) :-0.2458247E+00  (-0.2395273E+00)
 number of electron     180.0000000 magnetization       6.0000000
 augmentation part      180.0000000 magnetization       6.0000000

 Free energy of the ion-electron system (eV)
  ---------------------------------------------------
  alpha Z        PSCENC =       532.25742704
  Ewald energy   TEWEN  =     -8601.05107233
  -Hartree energ DENC   =     -1903.73857242
  -exchange      EXHF   =         0.00000000
  -V(xc)+E(xc)   XCENC  =      -664.69011139
  PAW double counting   =      8494.55058411    -7650.81563588
  entropy T*S    EENTRO =         0.03582889
  eigenvalues    EBANDS =      1058.29597193
  atomic energy  EATOM  =      8465.11600846
  ---------------------------------------------------
  free energy    TOTEN  =      -270.03957159 eV

  energy without entropy =     -270.07540047  energy(sigma->0) =     -270.05151455


--------------------------------------------------------------------------------------------------------




--------------------------------------- Iteration      1(   7)  ---------------------------------------


    TRIAL :  cpu time   28.3115: real time   28.5962
    CORREC:  cpu time    0.0102: real time    0.0112
    --------------------------------------------
      LOOP:  cpu time   28.3229: real time   28.6113

 eigenvalue-minimisations  : 39616
 total energy-change (2. order) :-0.2601459E-01  (-0.2566599E-01)
 number of electron     180.0000000 magnetization       6.0000000
 augmentation part      180.0000000 magnetization       6.0000000

 Free energy of the ion-electron system (eV)
  ---------------------------------------------------
  alpha Z        PSCENC =       532.25742704
  Ewald energy   TEWEN  =     -8601.05107233
  -Hartree energ DENC   =     -1903.73857242
  -exchange      EXHF   =         0.00000000
  -V(xc)+E(xc)   XCENC  =      -664.69011139
  PAW double counting   =      8494.55058411    -7650.81563588
  entropy T*S    EENTRO =         0.03634935
  eigenvalues    EBANDS =      1058.26943688
  atomic energy  EATOM  =      8465.11600846
  ---------------------------------------------------
  free energy    TOTEN  =      -270.06558618 eV

  energy without entropy =     -270.10193553  energy(sigma->0) =     -270.07770263


--------------------------------------------------------------------------------------------------------




--------------------------------------- Iteration      1(   8)  ---------------------------------------


    TRIAL :  cpu time   27.8506: real time   27.9826
    CORREC:  cpu time    0.0102: real time    0.0103
    CHARGE:  cpu time    1.7143: real time    1.7146
    --------------------------------------------
      LOOP:  cpu time   29.5762: real time   29.7115

 eigenvalue-minimisations  : 37792
 total energy-change (2. order) :-0.2197378E-02  (-0.2176758E-02)
 number of electron     179.9999997 magnetization       3.7379052
 augmentation part       42.5168167 magnetization       2.2265487

 Free energy of the ion-electron system (eV)
  ---------------------------------------------------
  alpha Z        PSCENC =       532.25742704
  Ewald energy   TEWEN  =     -8601.05107233
  -Hartree energ DENC   =     -1903.73857242
  -exchange      EXHF   =         0.00000000
  -V(xc)+E(xc)   XCENC  =      -664.69011139
  PAW double counting   =      8494.55058411    -7650.81563588
  entropy T*S    EENTRO =         0.03652139
  eigenvalues    EBANDS =      1058.26706747
  atomic energy  EATOM  =      8465.11600846
  ---------------------------------------------------
  free energy    TOTEN  =      -270.06778355 eV

  energy without entropy =     -270.10430494  energy(sigma->0) =     -270.07995735


--------------------------------------------------------------------------------------------------------




--------------------------------------- Iteration      1(   9)  ---------------------------------------


    POTLOK:  cpu time    0.2780: real time    0.2788
    SETDIJ:  cpu time    0.3183: real time    0.3194
    TRIAL :  cpu time    9.1316: real time    9.2519
    CORREC:  cpu time    3.3800: real time    3.4376
    CHARGE:  cpu time    1.1015: real time    1.1541
    --------------------------------------------
      LOOP:  cpu time   14.2133: real time   14.4465

 eigenvalue-minimisations  :     0
 total energy-change (2. order) : 0.2063412E+03  (-0.1480252E+03)
 number of electron     179.9999996 magnetization       3.8836061
 augmentation part       54.8485865 magnetization       2.6266398

 Free energy of the ion-electron system (eV)
  ---------------------------------------------------
  alpha Z        PSCENC =       532.25742704
  Ewald energy   TEWEN  =     -8601.05107233
  -Hartree energ DENC   =      -836.01014825
  -exchange      EXHF   =         0.00000000
  -V(xc)+E(xc)   XCENC  =      -694.52416331
  PAW double counting   =     12753.62480733   -11806.51973323
  entropy T*S    EENTRO =         0.01517599
  eigenvalues    EBANDS =       123.34376122
  atomic energy  EATOM  =      8465.11600846
  ---------------------------------------------------
  free energy    TOTEN  =       -63.72659168 eV

  energy without entropy =      -63.74176766  energy(sigma->0) =      -63.73165034


--------------------------------------------------------------------------------------------------------




--------------------------------------- Iteration      1(  10)  ---------------------------------------


    POTLOK:  cpu time    0.2487: real time    0.2489
    SETDIJ:  cpu time    0.3266: real time    0.3266
    TRIAL :  cpu time    9.1491: real time    9.2399
    CORREC:  cpu time    3.4027: real time    3.4471
    CHARGE:  cpu time    1.1296: real time    1.1301
    --------------------------------------------
      LOOP:  cpu time   14.2586: real time   14.3955

 eigenvalue-minimisations  :     0
 total energy-change (2. order) :-0.1461024E+03  (-0.8730819E+01)
 number of electron     179.9999996 magnetization       3.9250145
 augmentation part       57.9554342 magnetization       2.7298709

 Free energy of the ion-electron system (eV)
  ---------------------------------------------------
  alpha Z        PSCENC =       532.25742704
  Ewald energy   TEWEN  =     -8601.05107233
  -Hartree energ DENC   =     -1394.65939516
  -exchange      EXHF   =         0.00000000
  -V(xc)+E(xc)   XCENC  =      -675.37796496
  PAW double counting   =     13769.35213376   -12944.25044870
  entropy T*S    EENTRO =         0.00906395
  eigenvalues    EBANDS =       638.76915677
  atomic energy  EATOM  =      8465.11600846
  ---------------------------------------------------
  free energy    TOTEN  =      -209.82897912 eV

  energy without entropy =     -209.83804307  energy(sigma->0) =     -209.83200044


--------------------------------------------------------------------------------------------------------




--------------------------------------- Iteration      1(  11)  ---------------------------------------


    POTLOK:  cpu time    0.2485: real time    0.2485
    SETDIJ:  cpu time    0.3218: real time    0.3220
    TRIAL :  cpu time    9.2182: real time    9.3016
    CORREC:  cpu time    3.4034: real time    3.4191
    CHARGE:  cpu time    1.8543: real time    1.8668
    --------------------------------------------
      LOOP:  cpu time   15.0480: real time   15.1613

 eigenvalue-minimisations  :     0
 total energy-change (2. order) :-0.8793117E+01  (-0.8902133E+01)
 number of electron     179.9999996 magnetization       4.1595694
 augmentation part       59.2125592 magnetization       2.9360984

 Free energy of the ion-electron system (eV)
  ---------------------------------------------------
  alpha Z        PSCENC =       532.25742704
  Ewald energy   TEWEN  =     -8601.05107233
  -Hartree energ DENC   =     -1578.63323014
  -exchange      EXHF   =         0.00000000
  -V(xc)+E(xc)   XCENC  =      -668.85380069
  PAW double counting   =     14500.03941158   -13705.85791025
  entropy T*S    EENTRO =         0.00202712
  eigenvalues    EBANDS =       838.35200629
  atomic energy  EATOM  =      8465.11600846
  ---------------------------------------------------
  free energy    TOTEN  =      -218.62209609 eV

  energy without entropy =     -218.62412321  energy(sigma->0) =     -218.62277179


--------------------------------------------------------------------------------------------------------




--------------------------------------- Iteration      1(  12)  ---------------------------------------


    POTLOK:  cpu time    0.2487: real time    0.2488
    SETDIJ:  cpu time    0.3208: real time    0.3208
    TRIAL :  cpu time    9.1164: real time    9.1551
    CORREC:  cpu time    3.4514: real time    3.4533
    CHARGE:  cpu time    1.0755: real time    1.0757
    --------------------------------------------
      LOOP:  cpu time   14.2141: real time   14.2561

 eigenvalue-minimisations  :     0
 total energy-change (2. order) :-0.8965175E+01  (-0.5848482E+01)
 number of electron     179.9999996 magnetization       4.1569425
 augmentation part       58.1429166 magnetization       2.9430224

 Free energy of the ion-electron system (eV)
  ---------------------------------------------------
  alpha Z        PSCENC =       532.25742704
  Ewald energy   TEWEN  =     -8601.05107233
  -Hartree energ DENC   =     -1709.70366708
  -exchange      EXHF   =         0.00000000
  -V(xc)+E(xc)   XCENC  =      -664.56499778
  PAW double counting   =     14469.13287175   -13673.61288216
  entropy T*S    EENTRO =        -0.00009900
  eigenvalues    EBANDS =       954.83701394
  atomic energy  EATOM  =      8465.11600846
  ---------------------------------------------------
  free energy    TOTEN  =      -227.58727104 eV

  energy without entropy =     -227.58717204  energy(sigma->0) =     -227.58723804


--------------------------------------------------------------------------------------------------------




--------------------------------------- Iteration      1(  13)  ---------------------------------------


    POTLOK:  cpu time    0.2451: real time    0.2455
    SETDIJ:  cpu time    0.3138: real time    0.3138
    TRIAL :  cpu time    9.1660: real time    9.2633
    CORREC:  cpu time    3.3629: real time    3.4131
    CHARGE:  cpu time    1.0954: real time    1.0954
    --------------------------------------------
      LOOP:  cpu time   15.1111: real time   15.2594

 eigenvalue-minimisations  :     0
 total energy-change (2. order) :-0.5811522E+01  (-0.8810252E+00)
 number of electron     179.9999997 magnetization       4.1453045
 augmentation part       57.3002057 magnetization       2.9140729

 Free energy of the ion-electron system (eV)
  ---------------------------------------------------
  alpha Z        PSCENC =       532.25742704
  Ewald energy   TEWEN  =     -8601.05107233
  -Hartree energ DENC   =     -1698.09287977
  -exchange      EXHF   =         0.00000000
  -V(xc)+E(xc)   XCENC  =      -665.30915674
  PAW double counting   =     14189.72989036   -13368.45140155
  entropy T*S    EENTRO =         0.00013175
  eigenvalues    EBANDS =       912.40249002
  atomic energy  EATOM  =      8465.11600846
  ---------------------------------------------------
  free energy    TOTEN  =      -233.39879351 eV

  energy without entropy =     -233.39892527  energy(sigma->0) =     -233.39883743


--------------------------------------------------------------------------------------------------------




--------------------------------------- Iteration      1(  14)  ---------------------------------------


    POTLOK:  cpu time    0.2450: real time    0.3050
    SETDIJ:  cpu time    0.3141: real time    0.3141
    TRIAL :  cpu time    9.1246: real time    9.1958
    CORREC:  cpu time    3.4034: real time    3.4724
    CHARGE:  cpu time    1.1267: real time    1.1269
    --------------------------------------------
      LOOP:  cpu time   14.2157: real time   14.4175

 eigenvalue-minimisations  :     0
 total energy-change (2. order) :-0.8756591E+00  (-0.7899084E+00)
 number of electron     179.9999996 magnetization       4.1224866
 augmentation part       57.2379850 magnetization       2.8852980

 Free energy of the ion-electron system (eV)
  ---------------------------------------------------
  alpha Z        PSCENC =       532.25742704
  Ewald energy   TEWEN  =     -8601.05107233
  -Hartree energ DENC   =     -1653.35505318
  -exchange      EXHF   =         0.00000000
  -V(xc)+E(xc)   XCENC  =      -666.91318700
  PAW double counting   =     13866.84434806   -13033.13471391
  entropy T*S    EENTRO =         0.00256002
  eigenvalues    EBANDS =       855.96165848
  atomic energy  EATOM  =      8465.11600846
  ---------------------------------------------------
  free energy    TOTEN  =      -234.27445263 eV

  energy without entropy =     -234.27701265  energy(sigma->0) =     -234.27530597


--------------------------------------------------------------------------------------------------------




--------------------------------------- Iteration      1(  15)  ---------------------------------------


    POTLOK:  cpu time    0.2476: real time    0.2480
    SETDIJ:  cpu time    0.3181: real time    0.3190
    TRIAL :  cpu time    9.2311: real time    9.2576
    CORREC:  cpu time    3.4338: real time    3.4442
    CHARGE:  cpu time    1.0958: real time    1.1020
    --------------------------------------------
      LOOP:  cpu time   14.3279: real time   14.3739

 eigenvalue-minimisations  :     0
 total energy-change (2. order) :-0.7890746E+00  (-0.5029856E+00)
 number of electron     179.9999996 magnetization       4.0900379
 augmentation part       57.7657409 magnetization       2.8738357

 Free energy of the ion-electron system (eV)
  ---------------------------------------------------
  alpha Z        PSCENC =       532.25742704
  Ewald energy   TEWEN  =     -8601.05107233
  -Hartree energ DENC   =     -1638.85570587
  -exchange      EXHF   =         0.00000000
  -V(xc)+E(xc)   XCENC  =      -667.32421481
  PAW double counting   =     13349.46101059   -12511.87424318
  entropy T*S    EENTRO =         0.00257409
  eigenvalues    EBANDS =       837.20470285
  atomic energy  EATOM  =      8465.11600846
  ---------------------------------------------------
  free energy    TOTEN  =      -235.06352724 eV

  energy without entropy =     -235.06610133  energy(sigma->0) =     -235.06438527


--------------------------------------------------------------------------------------------------------




--------------------------------------- Iteration      1(  16)  ---------------------------------------


    POTLOK:  cpu time    0.2471: real time    0.2471
    SETDIJ:  cpu time    0.7557: real time    0.7706
    TRIAL :  cpu time    9.5395: real time    9.5785
    CORREC:  cpu time    3.4242: real time    3.4258
    CHARGE:  cpu time    1.0803: real time    1.0805
    --------------------------------------------
      LOOP:  cpu time   15.0498: real time   15.1076

 eigenvalue-minimisations  :     0
 total energy-change (2. order) :-0.5078268E+00  (-0.1761017E+00)
 number of electron     179.9999996 magnetization       4.0869402
 augmentation part       58.1684084 magnetization       2.8917658

 Free energy of the ion-electron system (eV)
  ---------------------------------------------------
  alpha Z        PSCENC =       532.25742704
  Ewald energy   TEWEN  =     -8601.05107233
  -Hartree energ DENC   =     -1657.09121412
  -exchange      EXHF   =         0.00000000
  -V(xc)+E(xc)   XCENC  =      -666.52183271
  PAW double counting   =     13072.59653737   -12239.05855045
  entropy T*S    EENTRO =         0.00383592
  eigenvalues    EBANDS =       858.17876864
  atomic energy  EATOM  =      8465.11600846
  ---------------------------------------------------
  free energy    TOTEN  =      -235.57135403 eV

  energy without entropy =     -235.57518994  energy(sigma->0) =     -235.57263267


--------------------------------------------------------------------------------------------------------




--------------------------------------- Iteration      1(  17)  ---------------------------------------


    POTLOK:  cpu time    0.2488: real time    0.2488
    SETDIJ:  cpu time    0.6267: real time    0.6267
    TRIAL :  cpu time    9.6761: real time    9.7875
    CORREC:  cpu time    3.4030: real time    3.4560
    CHARGE:  cpu time    1.0932: real time    1.0932
    --------------------------------------------
      LOOP:  cpu time   15.0510: real time   15.2165

 eigenvalue-minimisations  :     0
 total energy-change (2. order) :-0.1761258E+00  (-0.1716900E+00)
 number of electron     179.9999996 magnetization       4.0619991
 augmentation part       58.2004745 magnetization       2.9070645

 Free energy of the ion-electron system (eV)
  ---------------------------------------------------
  alpha Z        PSCENC =       532.25742704
  Ewald energy   TEWEN  =     -8601.05107233
  -Hartree energ DENC   =     -1674.99809803
  -exchange      EXHF   =         0.00000000
  -V(xc)+E(xc)   XCENC  =      -665.73303513
  PAW double counting   =     13021.61174892   -12192.38047551
  entropy T*S    EENTRO =         0.00457383
  eigenvalues    EBANDS =       879.42618087
  atomic energy  EATOM  =      8465.11600846
  ---------------------------------------------------
  free energy    TOTEN  =      -235.74747979 eV

  energy without entropy =     -235.75205362  energy(sigma->0) =     -235.74900440


--------------------------------------------------------------------------------------------------------




--------------------------------------- Iteration      1(  18)  ---------------------------------------


    POTLOK:  cpu time    0.2481: real time    0.2481
    SETDIJ:  cpu time    0.3248: real time    0.3248
    TRIAL :  cpu time    9.1428: real time    9.2915
    CORREC:  cpu time    3.3763: real time    3.4210
    CHARGE:  cpu time    1.0957: real time    1.0957
    --------------------------------------------
      LOOP:  cpu time   14.1968: real time   14.3905

 eigenvalue-minimisations  :     0
 total energy-change (2. order) :-0.1715470E+00  (-0.8918097E-01)
 number of electron     179.9999996 magnetization       4.0467716
 augmentation part       58.0041491 magnetization       2.9110799

 Free energy of the ion-electron system (eV)
  ---------------------------------------------------
  alpha Z        PSCENC =       532.25742704
  Ewald energy   TEWEN  =     -8601.05107233
  -Hartree energ DENC   =     -1674.34307452
  -exchange      EXHF   =         0.00000000
  -V(xc)+E(xc)   XCENC  =      -665.52948990
  PAW double counting   =     12985.62151953   -12156.96309934
  entropy T*S    EENTRO =         0.00574974
  eigenvalues    EBANDS =       878.96818050
  atomic energy  EATOM  =      8465.11600846
  ---------------------------------------------------
  free energy    TOTEN  =      -235.91902674 eV

  energy without entropy =     -235.92477648  energy(sigma->0) =     -235.92094332


--------------------------------------------------------------------------------------------------------




--------------------------------------- Iteration      1(  19)  ---------------------------------------


    POTLOK:  cpu time    0.2487: real time    0.2487
    SETDIJ:  cpu time    0.3214: real time    0.3214
    TRIAL :  cpu time    9.2243: real time    9.2703
    CORREC:  cpu time    3.4624: real time    3.4754
    CHARGE:  cpu time    1.0932: real time    1.0933
    --------------------------------------------
      LOOP:  cpu time   14.3534: real time   14.4146

 eigenvalue-minimisations  :     0
 total energy-change (2. order) :-0.8865296E-01  (-0.4651241E-01)
 number of electron     179.9999996 magnetization       4.0392730
 augmentation part       57.8164884 magnetization       2.9114967

 Free energy of the ion-electron system (eV)
  ---------------------------------------------------
  alpha Z        PSCENC =       532.25742704
  Ewald energy   TEWEN  =     -8601.05107233
  -Hartree energ DENC   =     -1663.55825944
  -exchange      EXHF   =         0.00000000
  -V(xc)+E(xc)   XCENC  =      -665.78780729
  PAW double counting   =     12966.90974606   -12136.29461516
  entropy T*S    EENTRO =         0.00638639
  eigenvalues    EBANDS =       866.39514323
  atomic energy  EATOM  =      8465.11600846
  ---------------------------------------------------
  free energy    TOTEN  =      -236.00767970 eV

  energy without entropy =     -236.01406609  energy(sigma->0) =     -236.00980850


--------------------------------------------------------------------------------------------------------




--------------------------------------- Iteration      1(  20)  ---------------------------------------


    POTLOK:  cpu time    0.2476: real time    0.2476
    SETDIJ:  cpu time    0.3205: real time    0.3321
    TRIAL :  cpu time    9.1377: real time    9.8621
    CORREC:  cpu time    3.3551: real time    3.3722
    CHARGE:  cpu time    1.1284: real time    1.1285
    --------------------------------------------
      LOOP:  cpu time   14.1927: real time   14.9468

 eigenvalue-minimisations  :     0
 total energy-change (2. order) :-0.4647972E-01  (-0.6179389E-01)
 number of electron     179.9999996 magnetization       4.0197768
 augmentation part       57.7761283 magnetization       2.9132058

 Free energy of the ion-electron system (eV)
  ---------------------------------------------------
  alpha Z        PSCENC =       532.25742704
  Ewald energy   TEWEN  =     -8601.05107233
  -Hartree energ DENC   =     -1654.98650686
  -exchange      EXHF   =         0.00000000
  -V(xc)+E(xc)   XCENC  =      -666.01184781
  PAW double counting   =     12959.51251736   -12127.10307045
  entropy T*S    EENTRO =         0.00755833
  eigenvalues    EBANDS =       856.20599878
  atomic energy  EATOM  =      8465.11600846
  ---------------------------------------------------
  free energy    TOTEN  =      -236.05415942 eV

  energy without entropy =     -236.06171775  energy(sigma->0) =     -236.05667887


--------------------------------------------------------------------------------------------------------




--------------------------------------- Iteration      1(  21)  ---------------------------------------


    POTLOK:  cpu time    0.2485: real time    0.2484
    SETDIJ:  cpu time    0.3378: real time    0.3378
    TRIAL :  cpu time    9.7151: real time    9.8121
    CORREC:  cpu time    3.3965: real time    3.4052
    CHARGE:  cpu time    1.0880: real time    1.0883
    --------------------------------------------
      LOOP:  cpu time   14.7912: real time   14.8980

 eigenvalue-minimisations  :     0
 total energy-change (2. order) :-0.6178291E-01  (-0.2893609E-01)
 number of electron     179.9999996 magnetization       4.0106821
 augmentation part       57.8813208 magnetization       2.9159230

 Free energy of the ion-electron system (eV)
  ---------------------------------------------------
  alpha Z        PSCENC =       532.25742704
  Ewald energy   TEWEN  =     -8601.05107233
  -Hartree energ DENC   =     -1655.85255909
  -exchange      EXHF   =         0.00000000
  -V(xc)+E(xc)   XCENC  =      -665.86660757
  PAW double counting   =     12976.91219099   -12144.54876835
  entropy T*S    EENTRO =         0.00796352
  eigenvalues    EBANDS =       856.90988019
  atomic energy  EATOM  =      8465.11600846
  ---------------------------------------------------
  free energy    TOTEN  =      -236.11594234 eV

  energy without entropy =     -236.12390586  energy(sigma->0) =     -236.11859684


--------------------------------------------------------------------------------------------------------




--------------------------------------- Iteration      1(  22)  ---------------------------------------


    POTLOK:  cpu time    0.2503: real time    0.2963
    SETDIJ:  cpu time    0.3176: real time    0.3176
    TRIAL :  cpu time    9.1081: real time    9.2307
    CORREC:  cpu time    3.4480: real time    3.4617
    CHARGE:  cpu time    1.1081: real time    1.1483
    --------------------------------------------
      LOOP:  cpu time   14.2360: real time   14.4587

 eigenvalue-minimisations  :     0
 total energy-change (2. order) :-0.2889300E-01  (-0.1287292E-01)
 number of electron     179.9999996 magnetization       4.0133304
 augmentation part       57.9534583 magnetization       2.9208533

 Free energy of the ion-electron system (eV)
  ---------------------------------------------------
  alpha Z        PSCENC =       532.25742704
  Ewald energy   TEWEN  =     -8601.05107233
  -Hartree energ DENC   =     -1662.85638153
  -exchange      EXHF   =         0.00000000
  -V(xc)+E(xc)   XCENC  =      -665.55774075
  PAW double counting   =     12997.04020867   -12166.07815918
  entropy T*S    EENTRO =         0.00835177
  eigenvalues    EBANDS =       864.97691077
  atomic energy  EATOM  =      8465.11600846
  ---------------------------------------------------
  free energy    TOTEN  =      -236.14483533 eV

  energy without entropy =     -236.15318711  energy(sigma->0) =     -236.14761926


--------------------------------------------------------------------------------------------------------




--------------------------------------- Iteration      1(  23)  ---------------------------------------


    POTLOK:  cpu time    0.2489: real time    0.2489
    SETDIJ:  cpu time    0.3196: real time    0.3196
    TRIAL :  cpu time    9.1351: real time    9.2065
    CORREC:  cpu time    3.4589: real time    3.4778
    CHARGE:  cpu time    1.1565: real time    1.1565
    --------------------------------------------
[...]
  8.439  14.381  -0.000  -0.000   0.000  -0.000  -0.000   0.000
 14.381  24.507  -0.000  -0.000   0.000  -0.000  -0.001   0.000
 -0.000  -0.000   1.996  -0.000  -0.000   5.749  -0.000  -0.000
 -0.000  -0.000  -0.000   1.996  -0.000  -0.000   5.748   0.000
  0.000   0.000  -0.000  -0.000   1.996  -0.000   0.000   5.749
 -0.000  -0.000   5.749  -0.000  -0.000  16.474  -0.000  -0.000
 -0.000  -0.001  -0.000   5.748   0.000  -0.000  16.472   0.000
  0.000   0.000  -0.000   0.000   5.749  -0.000   0.000  16.475
 total augmentation occupancy for first ion, spin component:           1
  4.376  -1.251   0.002  -0.002  -0.002  -0.001  -0.000   0.000
 -1.251   0.378  -0.001   0.002   0.000   0.000  -0.000  -0.000
  0.002  -0.001   1.423   0.002  -0.004  -0.101  -0.000   0.000
 -0.002   0.002   0.002   1.489   0.000  -0.000  -0.101  -0.000
 -0.002   0.000  -0.004   0.000   1.421   0.000  -0.000  -0.101
 -0.001   0.000  -0.101  -0.000   0.000   0.008   0.000   0.000
 -0.000  -0.000  -0.000  -0.101  -0.000   0.000   0.007   0.000
  0.000  -0.000   0.000  -0.000  -0.101   0.000   0.000   0.008
 total augmentation occupancy for first ion, spin component:           2
 -0.063   0.020  -0.018  -0.031  -0.017   0.001   0.001   0.001
  0.020  -0.006  -0.002  -0.003  -0.001   0.000   0.000   0.000
 -0.018  -0.002  -0.025  -0.022   0.048   0.002   0.000  -0.001
 -0.031  -0.003  -0.022  -0.043  -0.026   0.000   0.002   0.001
 -0.017  -0.001   0.048  -0.026  -0.022  -0.001   0.001   0.001
  0.001   0.000   0.002   0.000  -0.001  -0.000   0.000  -0.000
  0.001   0.000   0.000   0.002   0.001   0.000  -0.000   0.000
  0.001   0.000  -0.001   0.001   0.001  -0.000   0.000  -0.000


------------------------ aborting loop because EDIFF is reached ----------------------------------------


 


 total charge     
 
# of ion       s       p       d       tot
------------------------------------------
    1        0.405   0.428   0.000   0.833
    2        0.405   0.428   0.000   0.834
    3        0.406   0.424   0.000   0.830
    4        0.406   0.424   0.000   0.830
    5        0.404   0.431   0.000   0.835
    6        0.404   0.431   0.000   0.835
    7        0.405   0.429   0.000   0.834
    8        0.405   0.429   0.000   0.835
    9        0.405   0.429   0.000   0.835
   10        0.405   0.430   0.000   0.836
   11        0.405   0.428   0.000   0.833
   12        0.405   0.427   0.000   0.832
   13        0.404   0.428   0.000   0.833
   14        0.404   0.428   0.000   0.832
   15        0.406   0.425   0.000   0.831
   16        0.406   0.424   0.000   0.830
   17        0.405   0.427   0.000   0.832
   18        0.405   0.427   0.000   0.832
   19        0.333   0.356   5.127   5.817
   20        0.333   0.356   5.134   5.823
   21        0.338   0.360   5.112   5.810
   22        0.339   0.357   5.115   5.811
   23        0.338   0.352   5.129   5.819
   24        0.337   0.361   5.115   5.812
   25        0.331   0.355   5.138   5.823
   26        0.333   0.358   5.121   5.812
   27        0.332   0.356   5.130   5.818
   28        0.332   0.356   5.135   5.823
   29        0.333   0.356   5.133   5.821
   30        0.332   0.356   5.134   5.822
   31        0.336   0.352   5.132   5.821
   32        0.337   0.357   5.123   5.817
   33        0.337   0.356   5.127   5.820
   34        0.337   0.355   5.128   5.820
   35        0.340   0.357   5.112   5.809
   36        0.340   0.360   5.106   5.807
--------------------------------------------------
tot         13.332  14.116  92.250 119.698
 


 magnetization (x)
 
# of ion       s       p       d       tot
------------------------------------------
    1       -0.005  -0.009   0.000  -0.014
    2       -0.004  -0.010   0.000  -0.014
    3       -0.004  -0.011   0.000  -0.015
    4       -0.005  -0.011   0.000  -0.016
    5       -0.001  -0.001   0.000  -0.002
    6       -0.001  -0.001   0.000  -0.002
    7       -0.003  -0.008   0.000  -0.012
    8       -0.003  -0.008   0.000  -0.011
    9        0.001   0.006   0.000   0.007
   10        0.001   0.006   0.000   0.007
   11        0.001   0.001   0.000   0.001
   12        0.001   0.001   0.000   0.002
   13       -0.003  -0.002   0.000  -0.005
   14       -0.002  -0.002   0.000  -0.005
   15       -0.006  -0.015   0.000  -0.021
   16       -0.006  -0.014   0.000  -0.021
   17       -0.001  -0.000   0.000  -0.001
   18       -0.000   0.000   0.000  -0.000
   19        0.014   0.021   2.255   2.291
   20       -0.024  -0.023  -2.201  -2.248
   21       -0.040  -0.029  -2.486  -2.555
   22       -0.036  -0.013  -2.568  -2.617
   23        0.039   0.012   2.434   2.486
   24        0.042   0.030   2.372   2.444
   25       -0.020  -0.021  -2.133  -2.175
   26        0.014   0.020   2.338   2.372
   27       -0.012  -0.011  -2.248  -2.270
   28        0.015   0.010   2.182   2.207
   29       -0.012  -0.009  -2.221  -2.242
   30        0.015   0.010   2.166   2.190
   31        0.025   0.009   2.371   2.404
   32        0.029   0.022   2.365   2.417
   33        0.035   0.018   2.313   2.365
   34        0.033   0.016   2.365   2.413
   35       -0.043  -0.022  -2.598  -2.663
   36       -0.045  -0.025  -2.582  -2.652
--------------------------------------------------
tot         -0.014  -0.064   4.126   4.048
 
    FORLOC:  cpu time    0.0289: real time    0.0289
    FORNL :  cpu time   13.2316: real time   13.3512
    STRESS:  cpu time   19.2338: real time   19.3421
    FORCOR:  cpu time    0.2708: real time    0.2710
    OFIELD:  cpu time    0.0014: real time    0.0014

  FORCE on cell =-STRESS in cart. coord.  units (eV):
  Direction    XX          YY          ZZ          XY          YZ          ZX
  --------------------------------------------------------------------------------------
  Alpha Z   532.25743   532.25743   532.25743
  Ewald   -2702.40749 -2702.40749 -3196.26924    -0.00000    -0.00000    -0.00000
  Hartree   718.71255   719.38808   226.21401     0.04478    -0.00000    -0.00000
  E(xc)    -760.48629  -760.68407  -760.76646    -0.03816    -0.00000     0.00000
  Local     251.03067   250.08105  1259.86356    -0.13216     0.00000    -0.00000
  n-local  -107.38818  -107.41074  -116.77984     0.16193    -0.14054    -0.12306
  augment   521.28526   521.68875   515.67815     0.01434     0.00001     0.00001
  Kinetic  1553.10886  1553.87600  1542.64996     0.33379     0.34152     0.00682
  Fock        0.00000     0.00000     0.00000     0.00000     0.00000     0.00000
  -------------------------------------------------------------------------------------
  Total       6.11280     6.78901     2.84756     0.38451     0.00000     0.00000
  in kB      20.69370    22.98288     9.63986     1.30170     0.00000     0.00000
  external pressure =       17.77 kB  Pullay stress =        0.00 kB


 VOLUME and BASIS-vectors are now :
 -----------------------------------------------------------------------------
  energy-cutoff  :      404.80
  volume of cell :      473.27
      direct lattice vectors                 reciprocal lattice vectors
     8.250148166  0.000000000  0.000000000     0.121209944  0.000000000  0.000000000
     0.000000000  8.250148166  0.000000000     0.000000000  0.121209944  0.000000000
     0.000000000  0.000000000  6.953274261     0.000000000  0.000000000  0.143817137

  length of vectors
     8.250148166  8.250148166  6.953274261     0.121209944  0.121209944  0.143817137


 FORCES acting on ions:
    Electron-Ion                     Ewald-Force                    Non-Local-Force
 -----------------------------------------------------------------------------------------------
   0.359E-02 0.923E-01 0.121E+00   -.239E-08 -.239E-08 0.411E-08   0.486E-01 -.477E-01 -.267E-02
   0.359E-02 0.923E-01 -.121E+00   -.239E-08 -.239E-08 0.411E-08   0.486E-01 -.477E-01 0.267E-02
   -.378E-01 -.501E-01 -.445E-01   -.239E-08 -.802E-09 0.411E-08   -.666E-01 0.469E-02 0.497E-01
   -.378E-01 -.501E-01 0.445E-01   -.239E-08 -.802E-09 0.411E-08   -.666E-01 0.469E-02 -.497E-01
   0.568E-01 -.311E-01 -.322E-02   -.239E-08 0.631E-08 0.411E-08   -.117E-01 0.401E-01 0.664E-02
   0.568E-01 -.311E-01 0.322E-02   -.239E-08 0.631E-08 0.411E-08   -.117E-01 0.401E-01 -.664E-02
   0.157E+00 -.153E+00 0.489E-01   -.802E-09 -.239E-08 0.411E-08   -.114E+00 0.137E-01 -.321E-01
   0.157E+00 -.153E+00 -.489E-01   -.802E-09 -.239E-08 0.411E-08   -.114E+00 0.137E-01 0.321E-01
   0.226E+00 0.947E-01 -.120E-01   -.802E-09 -.802E-09 0.411E-08   -.112E+00 0.701E-04 0.601E-02
   0.226E+00 0.947E-01 0.120E-01   -.802E-09 -.802E-09 0.411E-08   -.112E+00 0.701E-04 -.601E-02
   0.163E+00 0.535E-01 -.185E-01   -.802E-09 0.631E-08 0.411E-08   -.109E+00 -.324E-01 0.162E-01
   0.163E+00 0.535E-01 0.185E-01   -.802E-09 0.631E-08 0.411E-08   -.109E+00 -.324E-01 -.162E-01
   -.176E+00 0.902E-01 0.243E-01   0.631E-08 -.239E-08 0.411E-08   0.774E-01 -.321E-01 -.429E-01
   -.176E+00 0.902E-01 -.243E-01   0.631E-08 -.239E-08 0.411E-08   0.774E-01 -.321E-01 0.429E-01
   -.208E+00 -.131E-01 -.203E-01   0.631E-08 -.802E-09 0.411E-08   0.161E+00 0.522E-03 -.445E-01
   -.208E+00 -.131E-01 0.203E-01   0.631E-08 -.802E-09 0.411E-08   0.161E+00 0.522E-03 0.445E-01
   -.193E+00 -.835E-01 -.217E-01   0.631E-08 0.631E-08 0.411E-08   0.115E+00 0.571E-01 -.752E-02
   -.193E+00 -.835E-01 0.217E-01   0.631E-08 0.631E-08 0.411E-08   0.115E+00 0.571E-01 0.752E-02
   -.562E+00 -.387E+00 -.745E-08   -.169E-07 -.169E-07 -.411E-08   0.280E+00 0.253E+00 0.000E+00
   -.216E+00 0.127E+00 0.209E-08   -.169E-07 -.169E-07 -.411E-08   0.930E-01 0.759E-01 0.000E+00
   0.525E+00 0.400E+00 -.829E-08   -.169E-07 0.802E-09 -.411E-08   -.272E+00 -.299E+00 0.000E+00
   -.849E-01 -.202E+00 0.210E-08   -.169E-07 0.802E-09 -.411E-08   -.500E-01 0.386E-01 0.000E+00
   -.919E-01 0.375E+00 -.240E-08   -.169E-07 0.130E-07 -.411E-08   -.598E-01 -.150E+00 0.000E+00
   0.425E+00 -.135E+00 -.239E-08   -.169E-07 0.130E-07 -.411E-08   -.115E+00 0.771E-01 0.000E+00
   0.202E+00 -.619E-01 -.382E-08   0.802E-09 -.169E-07 -.411E-08   -.109E+00 0.937E-02 0.000E+00
   0.488E+00 -.134E+00 -.573E-09   0.802E-09 -.169E-07 -.411E-08   -.282E+00 0.134E+00 0.000E+00
   -.290E+00 0.195E+00 -.500E-08   0.802E-09 0.802E-09 -.411E-08   0.257E+00 -.131E+00 0.000E+00
   0.115E+00 0.175E+00 -.656E-09   0.802E-09 0.802E-09 -.411E-08   -.157E-01 -.140E+00 0.000E+00
   0.150E+00 -.896E-01 0.876E-09   0.802E-09 0.130E-07 -.411E-08   -.909E-01 0.366E-01 0.000E+00
   -.313E+00 -.769E-01 -.518E-08   0.802E-09 0.130E-07 -.411E-08   0.311E+00 0.582E-01 0.000E+00
   0.596E+00 0.408E+00 -.333E-08   0.130E-07 -.169E-07 -.411E-08   -.339E+00 -.234E+00 0.000E+00
   -.360E+00 0.358E+00 0.517E-09   0.130E-07 -.169E-07 -.411E-08   0.427E-01 -.169E+00 0.000E+00
   0.923E-01 -.410E+00 -.435E-08   0.130E-07 0.802E-09 -.411E-08   0.383E-01 0.102E+00 0.000E+00
   -.224E+00 -.359E+00 0.385E-09   0.130E-07 0.802E-09 -.411E-08   0.286E-01 0.179E+00 0.000E+00
   -.456E+00 -.920E-01 0.154E-08   0.130E-07 0.130E-07 -.411E-08   0.155E+00 0.178E-01 0.000E+00
   0.110E+00 -.104E+00 -.397E-08   0.130E-07 0.130E-07 -.411E-08   0.551E-01 0.146E+00 0.000E+00
 -----------------------------------------------------------------------------------------------
   0.961E-01 -.125E-01 -.765E-07   -.197E-14 0.275E-13 0.265E-14   -.962E-01 0.125E-01 0.000E+00
 
 
 POSITION                                       TOTAL-FORCE (eV/Angst)
 -----------------------------------------------------------------------------------
      0.00000      0.00000      0.00000         0.048476      0.049782      0.117854
      0.00000      0.00000      3.47664         0.048476      0.049782     -0.117854
      0.00000      2.75005      0.00000        -0.098625     -0.046529      0.000814
      0.00000      2.75005      3.47664        -0.098625     -0.046529     -0.000814
      0.00000      5.50010      0.00000         0.046554      0.005512      0.002788
      0.00000      5.50010      3.47664         0.046554      0.005512     -0.002788
      2.75005      0.00000      0.00000         0.053507     -0.140029      0.019631
      2.75005      0.00000      3.47664         0.053507     -0.140029     -0.019631
      2.75005      2.75005      0.00000         0.124181      0.094298     -0.006617
      2.75005      2.75005      3.47664         0.124181      0.094298      0.006617
      2.75005      5.50010      0.00000         0.063487      0.023770     -0.003716
      2.75005      5.50010      3.47664         0.063487      0.023770      0.003716
      5.50010      0.00000      0.00000        -0.105419      0.061566     -0.015280
      5.50010      0.00000      3.47664        -0.105419      0.061566      0.015280
      5.50010      2.75005      0.00000        -0.061843     -0.012970     -0.060507
      5.50010      2.75005      3.47664        -0.061843     -0.012970      0.060507
      5.50010      5.50010      0.00000        -0.088731     -0.031497     -0.028790
      5.50010      5.50010      3.47664        -0.088731     -0.031497      0.028790
      1.37502      1.37502      1.73832        -0.292099     -0.129171      0.000000
      1.37502      1.37502      5.21496        -0.127898      0.201075      0.000000
      1.37502      4.12507      1.73832         0.263010      0.109777      0.000000
      1.37502      4.12507      5.21496        -0.139196     -0.167312      0.000000
      1.37502      6.87512      1.73832        -0.160408      0.230749      0.000000
      1.37502      6.87512      5.21496         0.308574     -0.060998      0.000000
      4.12507      1.37502      1.73832         0.100705     -0.051220      0.000000
      4.12507      1.37502      5.21496         0.212664     -0.002929      0.000000
      4.12507      4.12507      1.73832        -0.031292      0.067551      0.000000
      4.12507      4.12507      5.21496         0.093246      0.035638      0.000000
      4.12507      6.87512      1.73832         0.055401     -0.055780      0.000000
      4.12507      6.87512      5.21496         0.003792     -0.017436      0.000000
      6.87512      1.37502      1.73832         0.270567      0.178547      0.000000
      6.87512      1.37502      5.21496        -0.325191      0.191920      0.000000
      6.87512      4.12507      1.73832         0.136516     -0.313277      0.000000
      6.87512      4.12507      5.21496        -0.193020     -0.186079      0.000000
      6.87512      6.87512      1.73832        -0.308897     -0.077962      0.000000
      6.87512      6.87512      5.21496         0.170352      0.039098      0.000000
 -----------------------------------------------------------------------------------
    total drift:                               -0.000022      0.000010     -0.000000


--------------------------------------------------------------------------------------------------------



  FREE ENERGIE OF THE ION-ELECTRON SYSTEM (eV)
  ---------------------------------------------------
  free  energy   TOTEN  =      -236.22837744 eV

  energy  without entropy=     -236.23940990  energy(sigma->0) =     -236.23205493
 


--------------------------------------------------------------------------------------------------------


    POTLOK:  cpu time    0.5886: real time    0.5896


--------------------------------------------------------------------------------------------------------


     LOOP+:  cpu time 1085.7941: real time 1097.6457
    4ORBIT:  cpu time    0.0000: real time    0.0000
 


 total charge     
 
# of ion       s       p       d       tot
------------------------------------------
    1        0.405   0.428   0.000   0.833
    2        0.405   0.428   0.000   0.834
    3        0.406   0.424   0.000   0.830
    4        0.406   0.424   0.000   0.830
    5        0.404   0.431   0.000   0.835
    6        0.404   0.431   0.000   0.835
    7        0.405   0.429   0.000   0.834
    8        0.405   0.429   0.000   0.835
    9        0.405   0.429   0.000   0.835
   10        0.405   0.430   0.000   0.836
   11        0.405   0.428   0.000   0.833
   12        0.405   0.427   0.000   0.832
   13        0.404   0.428   0.000   0.833
   14        0.404   0.428   0.000   0.832
   15        0.406   0.425   0.000   0.831
   16        0.406   0.424   0.000   0.830
   17        0.405   0.427   0.000   0.832
   18        0.405   0.427   0.000   0.832
   19        0.333   0.356   5.127   5.817
   20        0.333   0.356   5.134   5.823
   21        0.338   0.360   5.112   5.810
   22        0.339   0.357   5.115   5.811
   23        0.338   0.352   5.129   5.819
   24        0.337   0.361   5.115   5.812
   25        0.331   0.355   5.138   5.823
   26        0.333   0.358   5.121   5.812
   27        0.332   0.356   5.130   5.818
   28        0.332   0.356   5.135   5.823
   29        0.333   0.356   5.133   5.821
   30        0.332   0.356   5.134   5.822
   31        0.336   0.352   5.132   5.821
   32        0.337   0.357   5.123   5.817
   33        0.337   0.356   5.127   5.820
   34        0.337   0.355   5.128   5.820
   35        0.340   0.357   5.112   5.809
   36        0.340   0.360   5.106   5.807
--------------------------------------------------
tot         13.332  14.116  92.250 119.698
 


 magnetization (x)
 
# of ion       s       p       d       tot
------------------------------------------
    1       -0.005  -0.009   0.000  -0.014
    2       -0.004  -0.010   0.000  -0.014
    3       -0.004  -0.011   0.000  -0.015
    4       -0.005  -0.011   0.000  -0.016
    5       -0.001  -0.001   0.000  -0.002
    6       -0.001  -0.001   0.000  -0.002
    7       -0.003  -0.008   0.000  -0.012
    8       -0.003  -0.008   0.000  -0.011
    9        0.001   0.006   0.000   0.007
   10        0.001   0.006   0.000   0.007
   11        0.001   0.001   0.000   0.001
   12        0.001   0.001   0.000   0.002
   13       -0.003  -0.002   0.000  -0.005
   14       -0.002  -0.002   0.000  -0.005
   15       -0.006  -0.015   0.000  -0.021
   16       -0.006  -0.014   0.000  -0.021
   17       -0.001  -0.000   0.000  -0.001
   18       -0.000   0.000   0.000  -0.000
   19        0.014   0.021   2.255   2.291
   20       -0.024  -0.023  -2.201  -2.248
   21       -0.040  -0.029  -2.486  -2.555
   22       -0.036  -0.013  -2.568  -2.617
   23        0.039   0.012   2.434   2.486
   24        0.042   0.030   2.372   2.444
   25       -0.020  -0.021  -2.133  -2.175
   26        0.014   0.020   2.338   2.372
   27       -0.012  -0.011  -2.248  -2.270
   28        0.015   0.010   2.182   2.207
   29       -0.012  -0.009  -2.221  -2.242
   30        0.015   0.010   2.166   2.190
   31        0.025   0.009   2.371   2.404
   32        0.029   0.022   2.365   2.417
   33        0.035   0.018   2.313   2.365
   34        0.033   0.016   2.365   2.413
   35       -0.043  -0.022  -2.598  -2.663
   36       -0.045  -0.025  -2.582  -2.652
--------------------------------------------------
tot         -0.014  -0.064   4.126   4.048
 

 total amount of memory used by VASP MPI-rank0   751840. kBytes
=======================================================================

   base      :      30000. kBytes
   nonl-proj :      34307. kBytes
   fftplans  :      21726. kBytes
   grid      :      14732. kBytes
   one-center:        279. kBytes
   wavefun   :     650796. kBytes
 
  
  
 General timing and accounting informations for this job:
 ========================================================
  
                  Total CPU time used (sec):     1111.796
                            User time (sec):     1090.621
                          System time (sec):       21.176
                         Elapsed time (sec):     1125.335
  
                   Maximum memory used (kb):      890292.
                   Average memory used (kb):           0.
  
                          Minor page faults:       379949
                          Major page faults:           17
                 Voluntary context switches:         4401
