 vasp.5.4.4.18Apr17-6-g9f103f2a35 (build Dec 20 2018 12:05:58) complex          
  
 executed on             LinuxIFC date 2019.06.21  10:27:38
 running on   64 total cores
 distrk:  each k-point on   16 cores,    4 groups
 distr:  one band on NCORES_PER_BAND=   4 cores,    4 groups


--------------------------------------------------------------------------------------------------------


 INCAR:
 POTCAR:    PAW_PBE Al 04Jan2001                  
 POTCAR:    PAW_PBE Mn 06Sep2000                  

 ----------------------------------------------------------------------------- 
|                                                                             |
|           W    W    AA    RRRRR   N    N  II  N    N   GGGG   !!!           |
|           W    W   A  A   R    R  NN   N  II  NN   N  G    G  !!!           |
|           W    W  A    A  R    R  N N  N  II  N N  N  G       !!!           |
|           W WW W  AAAAAA  RRRRR   N  N N  II  N  N N  G  GGG   !            |
|           WW  WW  A    A  R   R   N   NN  II  N   NN  G    G                |
|           W    W  A    A  R    R  N    N  II  N    N   GGGG   !!!           |
|                                                                             |
|      You have enabled k-point parallelism (KPAR>1).                         |
|      This developmental code was originally  written by Paul Kent at ORNL,  |
|      and carefully double checked in Vienna.                                |
|      GW as well as linear response parallelism added by Martijn Marsman     |
|      and Georg Kresse.                                                      |
|      Carefully verify results versus KPAR=1.                                |
|      Report problems to Paul Kent and Vienna.                               |
|                                                                             |
 ----------------------------------------------------------------------------- 

 POTCAR:    PAW_PBE Al 04Jan2001                  
   VRHFIN =Al: s2p1                                                             
   LEXCH  = PE                                                                  
   EATOM  =    53.5387 eV,    3.9350 Ry                                         
                                                                                
   TITEL  = PAW_PBE Al 04Jan2001                                                
   LULTRA =        F    use ultrasoft PP ?                                      
   IUNSCR =        1    unscreen: 0-lin 1-nonlin 2-no                           
   RPACOR =    1.500    partial core radius                                     
   POMASS =   26.981; ZVAL   =    3.000    mass and valenz                      
   RCORE  =    1.900    outmost cutoff radius                                   
   RWIGS  =    2.650; RWIGS  =    1.402    wigner-seitz radius (au A)           
   ENMAX  =  240.300; ENMIN  =  180.225 eV                                      
   ICORE  =        2    local potential                                         
   LCOR   =        T    correct aug charges                                     
   LPAW   =        T    paw PP                                                  
   EAUG   =  291.052                                                            
   DEXC   =    0.000                                                            
   RMAX   =    1.939    core radius for proj-oper                               
   RAUG   =    1.300    factor for augmentation sphere                          
   RDEP   =    1.966    radius for radial grids                                 
   RDEPT  =    1.856    core radius for aug-charge                              
                                                                                
   Atomic configuration                                                         
    6 entries                                                                   
     n  l   j            E        occ.                                          
     1  0  0.50     -1511.1048   2.0000                                         
     2  0  0.50      -108.1629   2.0000                                         
     2  1  1.50       -69.6402   6.0000                                         
     3  0  0.50        -7.7528   2.0000                                         
     3  1  1.50        -2.7121   1.0000                                         
     3  2  2.50        -2.7212   0.0000                                         
   Description                                                                  
     l       E           TYP  RCUT    TYP  RCUT                                 
     0     -7.7528455     23  1.900                                             
     0     -3.3096929     23  1.900                                             
     1     -2.7120682     23  1.900                                             
     1     13.6058260     23  1.900                                             
     2     -2.7211652      7  1.900                                             
  local pseudopotential read in
  partial core-charges read in
  partial kinetic energy density read in
  atomic valenz-charges read in
  non local Contribution for L=           0  read in
    real space projection operators read in
  non local Contribution for L=           0  read in
    real space projection operators read in
  non local Contribution for L=           1  read in
    real space projection operators read in
  non local Contribution for L=           1  read in
    real space projection operators read in
    PAW grid and wavefunctions read in
 
   number of l-projection  operators is LMAX  =           4
   number of lm-projection operators is LMMAX =           8
 
 POTCAR:    PAW_PBE Mn 06Sep2000                  
   VRHFIN =Mn: d6 s1                                                            
   LEXCH  = PE                                                                  
   EATOM  =   416.7541 eV,   30.6306 Ry                                         
                                                                                
   TITEL  = PAW_PBE Mn 06Sep2000                                                
   LULTRA =        F    use ultrasoft PP ?                                      
   IUNSCR =        1    unscreen: 0-lin 1-nonlin 2-no                           
   RPACOR =    2.000    partial core radius                                     
   POMASS =   54.938; ZVAL   =    7.000    mass and valenz                      
   RCORE  =    2.300    outmost cutoff radius                                   
   RWIGS  =    2.500; RWIGS  =    1.323    wigner-seitz radius (au A)           
   ENMAX  =  269.864; ENMIN  =  202.398 eV                                      
   RCLOC  =    1.725    cutoff for local pot                                    
   LCOR   =        T    correct aug charges                                     
   LPAW   =        T    paw PP                                                  
   EAUG   =  500.711                                                            
   DEXC   =    0.000                                                            
   RMAX   =    2.343    core radius for proj-oper                               
   RAUG   =    1.300    factor for augmentation sphere                          
   RDEP   =    2.338    radius for radial grids                                 
   RDEPT  =    1.911    core radius for aug-charge                              
                                                                                
   Atomic configuration                                                         
    9 entries                                                                   
     n  l   j            E        occ.                                          
     1  0  0.50     -6424.8288   2.0000                                         
     2  0  0.50      -739.1154   2.0000                                         
     2  1  1.50      -625.3949   6.0000                                         
     3  0  0.50       -81.6100   2.0000                                         
     3  1  1.50       -50.4667   6.0000                                         
     3  2  2.50        -3.3745   6.0000                                         
     4  0  0.50        -4.1331   1.0000                                         
     4  1  0.50        -4.0817   0.0000                                         
     4  3  2.50        -1.3606   0.0000                                         
   Description                                                                  
     l       E           TYP  RCUT    TYP  RCUT                                 
     2     -3.3744664     23  2.300                                             
     2     -4.7350490     23  2.300                                             
     0     -4.1331408     23  2.300                                             
     0      7.6656614     23  2.300                                             
     1     -2.7211652     23  2.300                                             
     1     20.4087390     23  2.300                                             
  local pseudopotential read in
  partial core-charges read in
  partial kinetic energy density read in
  atomic valenz-charges read in
  non local Contribution for L=           2  read in
    real space projection operators read in
  non local Contribution for L=           2  read in
    real space projection operators read in
  non local Contribution for L=           0  read in
    real space projection operators read in
  non local Contribution for L=           0  read in
    real space projection operators read in
  non local Contribution for L=           1  read in
    real space projection operators read in
  non local Contribution for L=           1  read in
    real space projection operators read in
    PAW grid and wavefunctions read in
 
   number of l-projection  operators is LMAX  =           6
   number of lm-projection operators is LMMAX =          18
 

 ----------------------------------------------------------------------------- 
|                                                                             |
|  ADVICE TO THIS USER RUNNING 'VASP/VAMP'   (HEAR YOUR MASTER'S VOICE ...):  |
|                                                                             |
|      You have a (more or less) 'large supercell' and for larger cells       |
|      it might be more efficient to use real space projection opertators     |
|      So try LREAL= Auto  in the INCAR   file.                               |
|      Mind:          For very  accurate calculation you might also keep the  |
|      reciprocal projection scheme          (i.e. LREAL=.FALSE.)             |
|                                                                             |
 ----------------------------------------------------------------------------- 

  PAW_PBE Al 04Jan2001                  :
 energy of atom  1       EATOM=  -53.5387
 kinetic energy error for atom=    0.0005 (will be added to EATOM!!)
  PAW_PBE Mn 06Sep2000                  :
 energy of atom  2       EATOM= -416.7541
 kinetic energy error for atom=    0.0080 (will be added to EATOM!!)
 
 
 POSCAR: NewRef: 27, @ ['Mn', array([1.37502469, 
  positions in cartesian coordinates
  velocities in cartesian coordinates
  No initial velocities read in
 exchange correlation table for  LEXCH =        8
   RHO(1)=    0.500       N(1)  =     2000
   RHO(2)=  100.500       N(2)  =     4000
 


--------------------------------------------------------------------------------------------------------


 ion  position               nearest neighbor table
   1  0.000  0.000  0.000-  28 2.61  30 2.61  34 2.61  36 2.61  46 2.61  48 2.61  52 2.61  54 2.61
                             4 2.75  10 2.75   7 2.75  19 2.75
   2  0.000  0.000  0.333-  28 2.61  34 2.61  46 2.61  52 2.61  29 2.61  47 2.61  35 2.61  53 2.61
                             5 2.75  11 2.75   8 2.75  20 2.75
   3  0.000  0.000  0.667-  29 2.61  35 2.61  47 2.61  53 2.61  30 2.61  48 2.61  36 2.61  54 2.61
                             6 2.75  12 2.75   9 2.75  21 2.75
   4  0.000  0.333  0.000-  28 2.61  30 2.61  46 2.61  48 2.61  31 2.61  33 2.61  49 2.61  51 2.61
                            13 2.75   1 2.75   7 2.75  22 2.75
   5  0.000  0.333  0.333-  28 2.61  46 2.61  31 2.61  49 2.61  47 2.61  29 2.61  32 2.61  50 2.61
                            14 2.75   2 2.75   8 2.75  23 2.75
   6  0.000  0.333  0.667-  29 2.61  47 2.61  32 2.61  50 2.61  48 2.61  30 2.61  33 2.61  51 2.61
                            15 2.75   3 2.75   9 2.75  24 2.75
   7  0.000  0.667  0.000-  31 2.61  33 2.61  49 2.61  51 2.61  34 2.61  36 2.61  52 2.61  54 2.61
                             4 2.75  16 2.75   1 2.75  25 2.75
   8  0.000  0.667  0.333-  31 2.61  49 2.61  34 2.61  52 2.61  50 2.61  32 2.61  35 2.61  53 2.61
                             5 2.75  17 2.75   2 2.75  26 2.75
   9  0.000  0.667  0.667-  32 2.61  50 2.61  35 2.61  53 2.61  51 2.61  33 2.61  36 2.61  54 2.61
                             6 2.75  18 2.75   3 2.75  27 2.75
  10  0.333  0.000  0.000-  28 2.61  30 2.61  34 2.61  36 2.61  37 2.61  39 2.61  43 2.61  45 2.61
                            19 2.75   1 2.75  13 2.75  16 2.75
  11  0.333  0.000  0.333-  28 2.61  34 2.61  37 2.61  43 2.61  29 2.61  35 2.61  38 2.61  44 2.61
                            20 2.75   2 2.75  14 2.75  17 2.75
  12  0.333  0.000  0.667-  29 2.61  35 2.61  38 2.61  44 2.61  30 2.61  36 2.61  39 2.61  45 2.61
                            21 2.75   3 2.75  15 2.75  18 2.75
  13  0.333  0.333  0.000-  28 2.61  30 2.61  31 2.61  33 2.61  37 2.61  39 2.61  40 2.61  42 2.61
                             4 2.75  10 2.75  16 2.75  22 2.75
  14  0.333  0.333  0.333-  28 2.61  31 2.61  37 2.61  29 2.61  40 2.61  38 2.61  32 2.61  41 2.61
                             5 2.75  11 2.75  17 2.75  23 2.75
  15  0.333  0.333  0.667-  29 2.61  32 2.61  38 2.61  30 2.61  41 2.61  39 2.61  33 2.61  42 2.61
                             6 2.75  12 2.75  18 2.75  24 2.75
  16  0.333  0.667  0.000-  31 2.61  33 2.61  34 2.61  36 2.61  40 2.61  42 2.61  43 2.61  45 2.61
                            25 2.75   7 2.75  13 2.75  10 2.75
  17  0.333  0.667  0.333-  31 2.61  34 2.61  40 2.61  32 2.61  43 2.61  41 2.61  35 2.61  44 2.61
                            26 2.75   8 2.75  14 2.75  11 2.75
  18  0.333  0.667  0.667-  32 2.61  35 2.61  41 2.61  33 2.61  44 2.61  42 2.61  36 2.61  45 2.61
                            27 2.75   9 2.75  15 2.75  12 2.75
  19  0.667  0.000  0.000-  37 2.61  39 2.61  43 2.61  45 2.61  46 2.61  48 2.61  52 2.61  54 2.61
                            10 2.75  22 2.75   1 2.75  25 2.75
  20  0.667  0.000  0.333-  37 2.61  43 2.61  46 2.61  52 2.61  38 2.61  44 2.61  47 2.61  53 2.61
                            11 2.75  23 2.75   2 2.75  26 2.75
  21  0.667  0.000  0.667-  38 2.61  44 2.61  47 2.61  53 2.61  39 2.61  45 2.61  48 2.61  54 2.61
                            12 2.75  24 2.75   3 2.75  27 2.75
  22  0.667  0.333  0.000-  37 2.61  39 2.61  40 2.61  42 2.61  46 2.61  48 2.61  49 2.61  51 2.61
                            25 2.75  13 2.75  19 2.75   4 2.75
  23  0.667  0.333  0.333-  37 2.61  40 2.61  46 2.61  38 2.61  49 2.61  47 2.61  41 2.61  50 2.61
                            26 2.75  14 2.75  20 2.75   5 2.75
  24  0.667  0.333  0.667-  38 2.61  41 2.61  47 2.61  39 2.61  50 2.61  48 2.61  42 2.61  51 2.61
                            27 2.75  15 2.75  21 2.75   6 2.75
  25  0.667  0.667  0.000-  40 2.61  42 2.61  43 2.61  45 2.61  49 2.61  51 2.61  52 2.61  54 2.61
                            16 2.75  22 2.75  19 2.75   7 2.75
  26  0.667  0.667  0.333-  40 2.61  43 2.61  49 2.61  41 2.61  52 2.61  50 2.61  44 2.61  53 2.61
                            17 2.75  23 2.75  20 2.75   8 2.75
  27  0.667  0.667  0.667-  41 2.61  44 2.61  50 2.61  42 2.61  53 2.61  51 2.61  45 2.61  54 2.61
                            18 2.75  24 2.75  21 2.75   9 2.75
  28  0.167  0.167  0.167-  14 2.61  11 2.61   5 2.61  13 2.61   2 2.61  10 2.61   4 2.61   1 2.61
                            31 2.75  37 2.75  34 2.75  46 2.75
  29  0.167  0.167  0.500-  15 2.61  12 2.61   6 2.61  14 2.61   3 2.61  11 2.61   5 2.61   2 2.61
                            32 2.75  38 2.75  35 2.75  47 2.75
  30  0.167  0.167  0.833-  13 2.61  15 2.61  10 2.61  12 2.61   4 2.61   6 2.61   1 2.61   3 2.61
                            33 2.75  39 2.75  36 2.75  48 2.75
  31  0.167  0.500  0.167-  17 2.61  14 2.61   8 2.61  16 2.61   5 2.61  13 2.61   7 2.61   4 2.61
                            28 2.75  34 2.75  40 2.75  49 2.75
  32  0.167  0.500  0.500-  18 2.61  15 2.61   9 2.61  17 2.61   6 2.61  14 2.61   8 2.61   5 2.61
                            29 2.75  35 2.75  41 2.75  50 2.75
  33  0.167  0.500  0.833-  16 2.61  18 2.61  13 2.61  15 2.61   7 2.61   9 2.61   4 2.61   6 2.61
                            30 2.75  36 2.75  42 2.75  51 2.75
  34  0.167  0.833  0.167-  11 2.61  17 2.61   2 2.61   8 2.61  16 2.61  10 2.61   7 2.61   1 2.61
                            31 2.75  43 2.75  28 2.75  52 2.75
  35  0.167  0.833  0.500-  12 2.61  18 2.61   3 2.61   9 2.61  17 2.61  11 2.61   8 2.61   2 2.61
                            32 2.75  44 2.75  29 2.75  53 2.75
  36  0.167  0.833  0.833-  10 2.61  12 2.61  16 2.61  18 2.61   1 2.61   3 2.61   7 2.61   9 2.61
                            33 2.75  45 2.75  30 2.75  54 2.75
  37  0.500  0.167  0.167-  23 2.61  20 2.61  14 2.61  22 2.61  11 2.61  19 2.61  13 2.61  10 2.61
                            28 2.75  40 2.75  46 2.75  43 2.75
  38  0.500  0.167  0.500-  24 2.61  21 2.61  15 2.61  23 2.61  12 2.61  20 2.61  14 2.61  11 2.61
                            29 2.75  41 2.75  47 2.75  44 2.75
  39  0.500  0.167  0.833-  22 2.61  24 2.61  19 2.61  21 2.61  13 2.61  15 2.61  10 2.61  12 2.61
                            30 2.75  42 2.75  48 2.75  45 2.75
  40  0.500  0.500  0.167-  26 2.61  23 2.61  17 2.61  25 2.61  14 2.61  22 2.61  16 2.61  13 2.61
                            31 2.75  37 2.75  43 2.75  49 2.75
  41  0.500  0.500  0.500-  27 2.61  24 2.61  18 2.61  26 2.61  15 2.61  23 2.61  17 2.61  14 2.61
                            32 2.75  38 2.75  44 2.75  50 2.75
  42  0.500  0.500  0.833-  25 2.61  27 2.61  22 2.61  24 2.61  16 2.61  18 2.61  13 2.61  15 2.61
                            33 2.75  39 2.75  45 2.75  51 2.75
  43  0.500  0.833  0.167-  20 2.61  26 2.61  11 2.61  17 2.61  25 2.61  19 2.61  16 2.61  10 2.61
                            34 2.75  40 2.75  52 2.75  37 2.75
  44  0.500  0.833  0.500-  21 2.61  27 2.61  12 2.61  18 2.61  26 2.61  20 2.61  17 2.61  11 2.61
                            35 2.75  41 2.75  53 2.75  38 2.75
  45  0.500  0.833  0.833-  19 2.61  21 2.61  25 2.61  27 2.61  10 2.61  12 2.61  16 2.61  18 2.61
                            36 2.75  42 2.75  54 2.75  39 2.75
  46  0.833  0.167  0.167-   5 2.61  23 2.61  20 2.61   2 2.61  22 2.61   4 2.61  19 2.61   1 2.61
                            37 2.75  49 2.75  28 2.75  52 2.75
  47  0.833  0.167  0.500-   6 2.61  24 2.61  21 2.61   3 2.61  23 2.61   5 2.61  20 2.61   2 2.61
                            38 2.75  50 2.75  29 2.75  53 2.75
  48  0.833  0.167  0.833-   4 2.61   6 2.61  22 2.61  24 2.61  19 2.61  21 2.61   1 2.61   3 2.61
                            39 2.75  51 2.75  30 2.75  54 2.75
  49  0.833  0.500  0.167-   8 2.61  26 2.61  23 2.61   5 2.61  25 2.61   7 2.61  22 2.61   4 2.61
                            40 2.75  46 2.75  52 2.75  31 2.75
  50  0.833  0.500  0.500-   9 2.61  27 2.61  24 2.61   6 2.61  26 2.61   8 2.61  23 2.61   5 2.61
                            41 2.75  47 2.75  53 2.75  32 2.75
  51  0.833  0.500  0.833-   7 2.61   9 2.61  25 2.61  27 2.61  22 2.61  24 2.61   4 2.61   6 2.61
                            42 2.75  48 2.75  54 2.75  33 2.75
  52  0.833  0.833  0.167-   2 2.61   8 2.61  20 2.61  26 2.61  19 2.61   7 2.61  25 2.61   1 2.61
                            43 2.75  49 2.75  46 2.75  34 2.75
  53  0.833  0.833  0.500-   3 2.61   9 2.61  21 2.61  27 2.61  20 2.61   8 2.61  26 2.61   2 2.61
                            44 2.75  50 2.75  47 2.75  35 2.75
  54  0.833  0.833  0.833-   1 2.61   3 2.61   7 2.61   9 2.61  19 2.61  21 2.61  25 2.61  27 2.61
                            45 2.75  51 2.75  48 2.75  36 2.75
 
  LATTYP: Found a simple tetragonal cell.
 ALAT       =     8.2501481662
 C/A-ratio  =     1.2642089792
  
  Lattice vectors:
  
 A1 = (   8.2501481662,   0.0000000000,   0.0000000000)
 A2 = (   0.0000000000,   8.2501481662,   0.0000000000)
 A3 = (   0.0000000000,   0.0000000000,  10.4299113916)


Analysis of symmetry for initial positions (statically):
=====================================================================
 Subroutine PRICEL returns following result:
 
  LATTYP: Found a simple tetragonal cell.
 ALAT       =     2.7500493888
 C/A-ratio  =     1.2642089792
  
  Lattice vectors:
  
 A1 = (   2.7500493888,   0.0000000000,   0.0000000000)
 A2 = (   0.0000000000,   2.7500493888,   0.0000000000)
 A3 = (   0.0000000000,   0.0000000000,   3.4766371306)
 
  27 primitive cells build up your supercell.
 

 Routine SETGRP: Setting up the symmetry group for a 
 simple tetragonal supercell.


 Subroutine GETGRP returns: Found 16 space group operations
 (whereof 16 operations were pure point group operations)
 out of a pool of 16 trial point group operations.


The static configuration has the point symmetry D_4h.


Analysis of symmetry for dynamics (positions and initial velocities):
=====================================================================
 Subroutine PRICEL returns following result:
 
  LATTYP: Found a simple tetragonal cell.
 ALAT       =     2.7500493888
 C/A-ratio  =     1.2642089792
  
  Lattice vectors:
  
 A1 = (   2.7500493888,   0.0000000000,   0.0000000000)
 A2 = (   0.0000000000,   2.7500493888,   0.0000000000)
 A3 = (   0.0000000000,   0.0000000000,   3.4766371306)
 
  27 primitive cells build up your supercell.
 

 Routine SETGRP: Setting up the symmetry group for a 
 simple tetragonal supercell.


 Subroutine GETGRP returns: Found 16 space group operations
 (whereof 16 operations were pure point group operations)
 out of a pool of 16 trial point group operations.


The dynamic configuration has the point symmetry D_4h.


Analysis of structural, dynamic, and magnetic symmetry:
=====================================================================
 Subroutine PRICEL returns following result:
 
  LATTYP: Found a simple tetragonal cell.
 ALAT       =     2.7500493888
 C/A-ratio  =     1.2642089792
  
  Lattice vectors:
  
 A1 = (   2.7500493888,   0.0000000000,   0.0000000000)
 A2 = (   0.0000000000,   2.7500493888,   0.0000000000)
 A3 = (   0.0000000000,   0.0000000000,   3.4766371306)
 
  27 primitive cells build up your supercell.
 

 Routine SETGRP: Setting up the symmetry group for a 
 simple tetragonal supercell.


 Subroutine GETGRP returns: Found 16 space group operations
 (whereof 16 operations were pure point group operations)
 out of a pool of 16 trial point group operations.


The magnetic configuration has the point symmetry D_4h.


 Subroutine INISYM returns: Found 16 space group operations
 (whereof 16 operations are pure point group operations),
 and found    27 'primitive' translations

 
 
 KPOINTS: automatic KPOINTS                       

Automatic generation of k-mesh.
 generate k-points for:    5    5    4
Space group operators:
 irot       det(A)        alpha          n_x          n_y          n_z        tau_x        tau_y        tau_z
    1     1.000000     0.000001     1.000000     0.000000     0.000000     0.000000     0.000000     0.000000
    2    -1.000000     0.000001     1.000000     0.000000     0.000000     0.000000     0.000000     0.000000
    3     1.000000    90.000000     0.000000     0.000000    -1.000000     0.000000     0.000000     0.000000
    4    -1.000000    90.000000     0.000000     0.000000    -1.000000     0.000000     0.000000     0.000000
    5     1.000000   180.000000     0.000000     0.000000     1.000000     0.000000     0.000000     0.000000
    6    -1.000000   180.000000     0.000000     0.000000     1.000000     0.000000     0.000000     0.000000
    7     1.000000    90.000000     0.000000     0.000000     1.000000     0.000000     0.000000     0.000000
    8    -1.000000    90.000000     0.000000     0.000000     1.000000     0.000000     0.000000     0.000000
    9     1.000000   180.000000     0.000000     1.000000     0.000000     0.000000     0.000000     0.000000
   10    -1.000000   180.000000     0.000000     1.000000     0.000000     0.000000     0.000000     0.000000
   11     1.000000   180.000000     0.707107     0.707107     0.000000     0.000000     0.000000     0.000000
   12    -1.000000   180.000000     0.707107     0.707107     0.000000     0.000000     0.000000     0.000000
   13     1.000000   180.000000     1.000000     0.000000     0.000000     0.000000     0.000000     0.000000
   14    -1.000000   180.000000     1.000000     0.000000     0.000000     0.000000     0.000000     0.000000
   15     1.000000   180.000000     0.707107    -0.707107     0.000000     0.000000     0.000000     0.000000
   16    -1.000000   180.000000     0.707107    -0.707107     0.000000     0.000000     0.000000     0.000000
 
 Subroutine IBZKPT returns following result:
 ===========================================
 
 Found     18 irreducible k-points:
 
 Following reciprocal coordinates:
            Coordinates               Weight
  0.000000  0.000000  0.000000      1.000000
  0.200000  0.000000  0.000000      4.000000
  0.400000  0.000000  0.000000      4.000000
  0.200000  0.200000  0.000000      4.000000
  0.400000  0.200000  0.000000      8.000000
  0.400000  0.400000  0.000000      4.000000
  0.000000  0.000000  0.250000      2.000000
  0.200000  0.000000  0.250000      8.000000
  0.400000  0.000000  0.250000      8.000000
  0.200000  0.200000  0.250000      8.000000
  0.400000  0.200000  0.250000     16.000000
  0.400000  0.400000  0.250000      8.000000
  0.000000  0.000000  0.500000      1.000000
  0.200000  0.000000  0.500000      4.000000
  0.400000  0.000000  0.500000      4.000000
  0.200000  0.200000  0.500000      4.000000
  0.400000  0.200000  0.500000      8.000000
  0.400000  0.400000  0.500000      4.000000
 
 Following cartesian coordinates:
            Coordinates               Weight
  0.000000  0.000000  0.000000      1.000000
  0.024242  0.000000  0.000000      4.000000
  0.048484  0.000000  0.000000      4.000000
  0.024242  0.024242  0.000000      4.000000
  0.048484  0.024242  0.000000      8.000000
  0.048484  0.048484  0.000000      4.000000
  0.000000  0.000000  0.023970      2.000000
  0.024242  0.000000  0.023970      8.000000
  0.048484  0.000000  0.023970      8.000000
  0.024242  0.024242  0.023970      8.000000
  0.048484  0.024242  0.023970     16.000000
  0.048484  0.048484  0.023970      8.000000
  0.000000  0.000000  0.047939      1.000000
  0.024242  0.000000  0.047939      4.000000
  0.048484  0.000000  0.047939      4.000000
  0.024242  0.024242  0.047939      4.000000
  0.048484  0.024242  0.047939      8.000000
  0.048484  0.048484  0.047939      4.000000
 

 ----------------------------------------------------------------------------- 
|                                                                             |
|           W    W    AA    RRRRR   N    N  II  N    N   GGGG   !!!           |
|           W    W   A  A   R    R  NN   N  II  NN   N  G    G  !!!           |
|           W    W  A    A  R    R  N N  N  II  N N  N  G       !!!           |
|           W WW W  AAAAAA  RRRRR   N  N N  II  N  N N  G  GGG   !            |
|           WW  WW  A    A  R   R   N   NN  II  N   NN  G    G                |
|           W    W  A    A  R    R  N    N  II  N    N   GGGG   !!!           |
|                                                                             |
|      The number of bands has been changed from the values supplied          |
|      in the INCAR file. This is a result of running the parallel version.   |
|      The orbitals not found in the WAVECAR file will be initialized with    |
|      random numbers, which is usually adequate. For correlated              |
|      calculations, however, you should redo the groundstate calculation.    |
|      I found NBANDS    =      270  now  NBANDS  =     272                   |
|                                                                             |
 ----------------------------------------------------------------------------- 



--------------------------------------------------------------------------------------------------------




 Dimension of arrays:
   k-points           NKPTS =     18   k-points in BZ     NKDIM =     18   number of bands    NBANDS=    272
   number of dos      NEDOS =    301   number of ions     NIONS =     54
   non local maximal  LDIM  =      6   non local SUM 2l+1 LMDIM =     18
   total plane-waves  NPLWV = 204120
   max r-space proj   IRMAX =      1   max aug-charges    IRDMAX=  89713
   dimension x,y,z NGX =    54 NGY =   54 NGZ =   70
   dimension x,y,z NGXF=   108 NGYF=  108 NGZF=  140
   support grid    NGXF=   216 NGYF=  216 NGZF=  280
   ions per type =              27  27
   NGX,Y,Z   is equivalent  to a cutoff of  10.88, 10.88, 11.16 a.u.
   NGXF,Y,Z  is equivalent  to a cutoff of  21.76, 21.76, 22.32 a.u.

 SYSTEM =  AlMn_pv                                 
 POSCAR =  NewRef: 27, @ ['Mn', array([1.37502469, 

 Startparameter for this run:
   NWRITE =      2    write-flag & timer
   PREC   = accura    normal or accurate (medium, high low for compatibility)
   ISTART =      0    job   : 0-new  1-cont  2-samecut
   ICHARG =      2    charge: 1-file 2-atom 10-const
   ISPIN  =      2    spin polarized calculation?
   LNONCOLLINEAR =      F non collinear calculations
   LSORBIT =      F    spin-orbit coupling
   INIWAV =      1    electr: 0-lowe 1-rand  2-diag
   LASPH  =      F    aspherical Exc in radial PAW
   METAGGA=      F    non-selfconsistent MetaGGA calc.

 Electronic Relaxation 1
   ENCUT  =  404.8 eV  29.75 Ry    5.45 a.u.  13.53 13.53 17.11*2*pi/ulx,y,z
   ENINI  =  404.8     initial cutoff
   ENAUG  =  500.7 eV  augmentation charge cutoff
   NELM   =    100;   NELMIN=  4; NELMDL= -8     # of ELM steps 
   EDIFF  = 0.1E-06   stopping-criterion for ELM
   LREAL  =      F    real-space projection
   NLSPLINE    = F    spline interpolate recip. space projectors
   LCOMPAT=      F    compatible to vasp.4.4
   GGA_COMPAT  = T    GGA compatible to vasp.4.4-vasp.4.6
   LMAXPAW     = -100 max onsite density
   LMAXMIX     =    2 max onsite mixed and CHGCAR
   VOSKOWN=      0    Vosko Wilk Nusair interpolation
   ROPT   =    0.00000   0.00000
 Ionic relaxation
   EDIFFG = 0.1E-05   stopping-criterion for IOM
   NSW    =      0    number of steps for IOM
   NBLOCK =      1;   KBLOCK =      1    inner block; outer block 
   IBRION =     -1    ionic relax: 0-MD 1-quasi-New 2-CG
   NFREE  =      0    steps in history (QN), initial steepest desc. (CG)
   ISIF   =      2    stress and relaxation
   IWAVPR =     10    prediction:  0-non 1-charg 2-wave 3-comb
   ISYM   =      2    0-nonsym 1-usesym 2-fastsym
   LCORR  =      T    Harris-Foulkes like correction to forces

   POTIM  = 0.2000    time-step for ionic-motion
   TEIN   =    0.0    initial temperature
   TEBEG  =    0.0;   TEEND  =   0.0 temperature during run
   SMASS  =  -3.00    Nose mass-parameter (am)
   estimated Nose-frequenzy (Omega)   =  0.10E-29 period in steps =****** mass=  -0.156E-26a.u.
   SCALEE = 1.0000    scale energy and forces
   NPACO  =    256;   APACO  = 16.0  distance and # of slots for P.C.
   PSTRESS=    0.0 pullay stress

  Mass of Ions in am
   POMASS =  26.98 54.94
  Ionic Valenz
   ZVAL   =   3.00  7.00
  Atomic Wigner-Seitz radii
   RWIGS  =  -1.00 -1.00
  virtual crystal weights 
   VCA    =   1.00  1.00
   NELECT =     270.0000    total number of electrons
   NUPDOWN=      -1.0000    fix difference up-down

 DOS related values:
   EMIN   =  10.00;   EMAX   =-10.00  energy-range for DOS
   EFERMI =   0.00
   ISMEAR =     1;   SIGMA  =   0.20  broadening in eV -4-tet -1-fermi 0-gaus

 Electronic relaxation 2 (details)
   IALGO  =     58    algorithm
   LDIAG  =      T    sub-space diagonalisation (order eigenvalues)
   LSUBROT=      F    optimize rotation matrix (better conditioning)
   TURBO    =      0    0=normal 1=particle mesh
   IRESTART =      0    0=no restart 2=restart with 2 vectors
   NREBOOT  =      0    no. of reboots
   NMIN     =      0    reboot dimension
   EREF     =   0.00    reference energy to select bands
   IMIX   =      4    mixing-type and parameters
     AMIX     =   0.40;   BMIX     =  1.00
     AMIX_MAG =   1.60;   BMIX_MAG =  1.00
     AMIN     =   0.10
     WC   =   100.;   INIMIX=   1;  MIXPRE=   1;  MAXMIX= -45

 Intra band minimization:
   WEIMIN = 0.0000     energy-eigenvalue tresh-hold
   EBREAK =  0.92E-10  absolut break condition
   DEPER  =   0.30     relativ break condition  

   TIME   =   0.40     timestep for ELM

  volume/ion in A,a.u.               =      13.15        88.72
  Fermi-wavevector in a.u.,A,eV,Ry     =   1.186118  2.241439 19.141722  1.406877
  Thomas-Fermi vector in A             =   2.322298
 
 Write flags
   LWAVE        =      F    write WAVECAR
   LDOWNSAMPLE  =      F    k-point downsampling of WAVECAR
   LCHARG       =      F    write CHGCAR
   LVTOT        =      F    write LOCPOT, total local potential
   LVHAR        =      F    write LOCPOT, Hartree potential only
   LELF         =      F    write electronic localiz. function (ELF)
   LORBIT       =     10    0 simple, 1 ext, 2 COOP (PROOUT), +10 PAW based schemes


 Dipole corrections
   LMONO  =      F    monopole corrections only (constant potential shift)
   LDIPOL =      F    correct potential (dipole corrections)
   IDIPOL =      0    1-x, 2-y, 3-z, 4-all directions 
   EPSILON=  1.0000000 bulk dielectric constant

 Exchange correlation treatment:
   GGA     =    --    GGA type
   LEXCH   =     8    internal setting for exchange type
   VOSKOWN=      0    Vosko Wilk Nusair interpolation
   LHFCALC =     F    Hartree Fock is set to
   LHFONE  =     F    Hartree Fock one center treatment
   AEXX    =    0.0000 exact exchange contribution

 Linear response parameters
   LEPSILON=     F    determine dielectric tensor
   LRPA    =     F    only Hartree local field effects (RPA)
   LNABLA  =     F    use nabla operator in PAW spheres
   LVEL    =     F    velocity operator in full k-point grid
   LINTERFAST=   F  fast interpolation
   KINTER  =     0    interpolate to denser k-point grid
   CSHIFT  =0.1000    complex shift for real part using Kramers Kronig
   OMEGAMAX=  -1.0    maximum frequency
   DEG_THRESHOLD= 0.2000000E-02 threshold for treating states as degnerate
   RTIME   =   -0.100 relaxation time in fs
  (WPLASMAI=    0.000 imaginary part of plasma frequency in eV, 0.658/RTIME)
   DFIELD  = 0.0000000 0.0000000 0.0000000 field for delta impulse in time
 
 Orbital magnetization related:
   ORBITALMAG=     F  switch on orbital magnetization
   LCHIMAG   =     F  perturbation theory with respect to B field
   DQ        =  0.001000  dq finite difference perturbation B field
   LLRAUG    =     F  two centre corrections for induced B field



--------------------------------------------------------------------------------------------------------


 Static calculation
 charge density and potential will be updated during run
 spin polarized calculation
 Conjugate gradient for all bands (Freysoldt, et al. PRB 79, 241103 (2009))
 preconditioned conjugated gradient                                        
 perform sub-space diagonalisation
    before iterative eigenvector-optimisation
 modified Broyden-mixing scheme, WC =      100.0
 initial mixing is a Kerker type mixing with AMIX =  0.4000 and BMIX =      1.0000
 Hartree-type preconditioning will be used
 using additional bands          137
 reciprocal scheme for non local part
 use partial core corrections
 no Harris-corrections to forces 
 use gradient corrections 
 use of overlap-Matrix (Vanderbilt PP)
 Methfessel and Paxton  Order N= 1 SIGMA  =   0.20


--------------------------------------------------------------------------------------------------------


  energy-cutoff  :      404.80
  volume of cell :      709.91
      direct lattice vectors                 reciprocal lattice vectors
     8.250148166  0.000000000  0.000000000     0.121209944  0.000000000  0.000000000
     0.000000000  8.250148166  0.000000000     0.000000000  0.121209944  0.000000000
     0.000000000  0.000000000 10.429911392     0.000000000  0.000000000  0.095878092

  length of vectors
     8.250148166  8.250148166 10.429911392     0.121209944  0.121209944  0.095878092


 
 k-points in units of 2pi/SCALE and weight: automatic KPOINTS                       
   0.00000000  0.00000000  0.00000000       0.010
   0.02424199  0.00000000  0.00000000       0.040
   0.04848398  0.00000000  0.00000000       0.040
   0.02424199  0.02424199  0.00000000       0.040
   0.04848398  0.02424199  0.00000000       0.080
   0.04848398  0.04848398  0.00000000       0.040
   0.00000000  0.00000000  0.02396952       0.020
   0.02424199  0.00000000  0.02396952       0.080
   0.04848398  0.00000000  0.02396952       0.080
   0.02424199  0.02424199  0.02396952       0.080
   0.04848398  0.02424199  0.02396952       0.160
   0.04848398  0.04848398  0.02396952       0.080
   0.00000000  0.00000000  0.04793905       0.010
   0.02424199  0.00000000  0.04793905       0.040
   0.04848398  0.00000000  0.04793905       0.040
   0.02424199  0.02424199  0.04793905       0.040
   0.04848398  0.02424199  0.04793905       0.080
   0.04848398  0.04848398  0.04793905       0.040
 
 k-points in reciprocal lattice and weights: automatic KPOINTS                       
   0.00000000  0.00000000  0.00000000       0.010
   0.20000000  0.00000000  0.00000000       0.040
   0.40000000  0.00000000  0.00000000       0.040
   0.20000000  0.20000000  0.00000000       0.040
   0.40000000  0.20000000  0.00000000       0.080
   0.40000000  0.40000000  0.00000000       0.040
   0.00000000  0.00000000  0.25000000       0.020
   0.20000000  0.00000000  0.25000000       0.080
   0.40000000  0.00000000  0.25000000       0.080
   0.20000000  0.20000000  0.25000000       0.080
   0.40000000  0.20000000  0.25000000       0.160
   0.40000000  0.40000000  0.25000000       0.080
   0.00000000  0.00000000  0.50000000       0.010
   0.20000000  0.00000000  0.50000000       0.040
   0.40000000  0.00000000  0.50000000       0.040
   0.20000000  0.20000000  0.50000000       0.040
   0.40000000  0.20000000  0.50000000       0.080
   0.40000000  0.40000000  0.50000000       0.040
 
 position of ions in fractional coordinates (direct lattice) 
   0.00000000  0.00000000  0.00000000
   0.00000000  0.00000000  0.33333333
   0.00000000  0.00000000  0.66666667
   0.00000000  0.33333333  0.00000000
   0.00000000  0.33333333  0.33333333
   0.00000000  0.33333333  0.66666667
   0.00000000  0.66666667  0.00000000
   0.00000000  0.66666667  0.33333333
   0.00000000  0.66666667  0.66666667
   0.33333333  0.00000000  0.00000000
   0.33333333  0.00000000  0.33333333
   0.33333333  0.00000000  0.66666667
   0.33333333  0.33333333  0.00000000
   0.33333333  0.33333333  0.33333333
   0.33333333  0.33333333  0.66666667
   0.33333333  0.66666667  0.00000000
   0.33333333  0.66666667  0.33333333
   0.33333333  0.66666667  0.66666667
   0.66666667  0.00000000  0.00000000
   0.66666667  0.00000000  0.33333333
   0.66666667  0.00000000  0.66666667
   0.66666667  0.33333333  0.00000000
   0.66666667  0.33333333  0.33333333
   0.66666667  0.33333333  0.66666667
   0.66666667  0.66666667  0.00000000
   0.66666667  0.66666667  0.33333333
   0.66666667  0.66666667  0.66666667
   0.16666667  0.16666667  0.16666667
   0.16666667  0.16666667  0.50000000
   0.16666667  0.16666667  0.83333333
   0.16666667  0.50000000  0.16666667
   0.16666667  0.50000000  0.50000000
   0.16666667  0.50000000  0.83333333
   0.16666667  0.83333333  0.16666667
   0.16666667  0.83333333  0.50000000
   0.16666667  0.83333333  0.83333333
   0.50000000  0.16666667  0.16666667
   0.50000000  0.16666667  0.50000000
   0.50000000  0.16666667  0.83333333
   0.50000000  0.50000000  0.16666667
   0.50000000  0.50000000  0.50000000
   0.50000000  0.50000000  0.83333333
   0.50000000  0.83333333  0.16666667
   0.50000000  0.83333333  0.50000000
   0.50000000  0.83333333  0.83333333
   0.83333333  0.16666667  0.16666667
   0.83333333  0.16666667  0.50000000
   0.83333333  0.16666667  0.83333333
   0.83333333  0.50000000  0.16666667
   0.83333333  0.50000000  0.50000000
   0.83333333  0.50000000  0.83333333
   0.83333333  0.83333333  0.16666667
   0.83333333  0.83333333  0.50000000
   0.83333333  0.83333333  0.83333333
 
 position of ions in cartesian coordinates  (Angst):
   0.00000000  0.00000000  0.00000000
   0.00000000  0.00000000  3.47663713
   0.00000000  0.00000000  6.95327426
   0.00000000  2.75004939  0.00000000
   0.00000000  2.75004939  3.47663713
   0.00000000  2.75004939  6.95327426
   0.00000000  5.50009878  0.00000000
   0.00000000  5.50009878  3.47663713
   0.00000000  5.50009878  6.95327426
   2.75004939  0.00000000  0.00000000
   2.75004939  0.00000000  3.47663713
   2.75004939  0.00000000  6.95327426
   2.75004939  2.75004939  0.00000000
   2.75004939  2.75004939  3.47663713
   2.75004939  2.75004939  6.95327426
   2.75004939  5.50009878  0.00000000
   2.75004939  5.50009878  3.47663713
   2.75004939  5.50009878  6.95327426
   5.50009878  0.00000000  0.00000000
   5.50009878  0.00000000  3.47663713
   5.50009878  0.00000000  6.95327426
   5.50009878  2.75004939  0.00000000
   5.50009878  2.75004939  3.47663713
   5.50009878  2.75004939  6.95327426
   5.50009878  5.50009878  0.00000000
   5.50009878  5.50009878  3.47663713
   5.50009878  5.50009878  6.95327426
   1.37502469  1.37502469  1.73831857
   1.37502469  1.37502469  5.21495570
   1.37502469  1.37502469  8.69159283
   1.37502469  4.12507408  1.73831857
   1.37502469  4.12507408  5.21495570
   1.37502469  4.12507408  8.69159283
   1.37502469  6.87512347  1.73831857
   1.37502469  6.87512347  5.21495570
   1.37502469  6.87512347  8.69159283
   4.12507408  1.37502469  1.73831857
   4.12507408  1.37502469  5.21495570
   4.12507408  1.37502469  8.69159283
   4.12507408  4.12507408  1.73831857
   4.12507408  4.12507408  5.21495570
   4.12507408  4.12507408  8.69159283
   4.12507408  6.87512347  1.73831857
   4.12507408  6.87512347  5.21495570
   4.12507408  6.87512347  8.69159283
   6.87512347  1.37502469  1.73831857
   6.87512347  1.37502469  5.21495570
   6.87512347  1.37502469  8.69159283
   6.87512347  4.12507408  1.73831857
   6.87512347  4.12507408  5.21495570
   6.87512347  4.12507408  8.69159283
   6.87512347  6.87512347  1.73831857
   6.87512347  6.87512347  5.21495570
   6.87512347  6.87512347  8.69159283
 


--------------------------------------------------------------------------------------------------------


 k-point  1 :   0.0000 0.0000 0.0000  plane waves:   13099
 k-point  2 :   0.2000 0.0000 0.0000  plane waves:   13101
 k-point  3 :   0.4000 0.0000 0.0000  plane waves:   13111
 k-point  4 :   0.2000 0.2000 0.0000  plane waves:   13137
 k-point  5 :   0.4000 0.2000 0.0000  plane waves:   13119
 k-point  6 :   0.4000 0.4000 0.0000  plane waves:   13129
 k-point  7 :   0.0000 0.0000 0.2500  plane waves:   13134
 k-point  8 :   0.2000 0.0000 0.2500  plane waves:   13149
 k-point  9 :   0.4000 0.0000 0.2500  plane waves:   13119
 k-point 10 :   0.2000 0.2000 0.2500  plane waves:   13145
 k-point 11 :   0.4000 0.2000 0.2500  plane waves:   13134
 k-point 12 :   0.4000 0.4000 0.2500  plane waves:   13108
 k-point 13 :   0.0000 0.0000 0.5000  plane waves:   13186
 k-point 14 :   0.2000 0.0000 0.5000  plane waves:   13124
 k-point 15 :   0.4000 0.0000 0.5000  plane waves:   13152
 k-point 16 :   0.2000 0.2000 0.5000  plane waves:   13136
 k-point 17 :   0.4000 0.2000 0.5000  plane waves:   13128
 k-point 18 :   0.4000 0.4000 0.5000  plane waves:   13112

 maximum and minimum number of plane-waves per node :      3304     3246

 maximum number of plane-waves:     13186
 maximum index in each direction: 
   IXMAX=   13   IYMAX=   13   IZMAX=   17
   IXMIN=  -13   IYMIN=  -13   IZMIN=  -17


 parallel 3D FFT for wavefunctions:
    minimum data exchange during FFTs selected (reduces bandwidth)
 parallel 3D FFT for charge:
    minimum data exchange during FFTs selected (reduces bandwidth)


 total amount of memory used by VASP MPI-rank0   489552. kBytes
=======================================================================

   base      :      30000. kBytes
   nonl-proj :      19958. kBytes
   fftplans  :      16955. kBytes
   grid      :      12821. kBytes
   one-center:        435. kBytes
   wavefun   :     409383. kBytes
 
     INWAV:  cpu time    0.0001: real time    0.0001
 Broyden mixing: mesh for mixing (old mesh)
   NGX = 27   NGY = 27   NGZ = 35
  (NGX  =108   NGY  =108   NGZ  =140)
  gives a total of  25515 points

 initial charge density was supplied:
 charge density of overlapping atoms calculated
 number of electron     270.0000000 magnetization     -81.0000000
 keeping initial charge density in first step


--------------------------------------------------------------------------------------------------------


 Maximum index for augmentation-charges         6675 (set IRDMAX)


--------------------------------------------------------------------------------------------------------


 First call to EWALD:  gamma=   0.199
 Maximum number of real-space cells 3x 3x 2
 Maximum number of reciprocal cells 3x 3x 3

    FEWALD:  cpu time    0.0856: real time    0.0856


--------------------------------------- Iteration      1(   1)  ---------------------------------------


    POTLOK:  cpu time    0.1896: real time    0.2480
    SETDIJ:  cpu time    0.2794: real time    0.2794
    TRIAL :  cpu time   19.9323: real time   20.0604
    CORREC:  cpu time    0.0032: real time    0.0033
    --------------------------------------------
      LOOP:  cpu time   20.5481: real time   20.7489

 eigenvalue-minimisations  : 19584
 total energy-change (2. order) : 0.1913457E+04  (-0.9774369E+04)
 number of electron     270.0000000 magnetization     -81.0000000
 augmentation part      270.0000000 magnetization     -81.0000000

 Free energy of the ion-electron system (eV)
  ---------------------------------------------------
  alpha Z        PSCENC =       798.38614055
  Ewald energy   TEWEN  =    -12901.57693327
  -Hartree energ DENC   =     -2855.60785864
  -exchange      EXHF   =         0.00000000
  -V(xc)+E(xc)   XCENC  =      -995.47442382
  PAW double counting   =     12741.82587617   -11476.22345381
  entropy T*S    EENTRO =         0.00169309
  eigenvalues    EBANDS =      3904.45225214
  atomic energy  EATOM  =     12697.67401269
  ---------------------------------------------------
  free energy    TOTEN  =      1913.45730508 eV

  energy without entropy =     1913.45561199  energy(sigma->0) =     1913.45674072


--------------------------------------------------------------------------------------------------------




--------------------------------------- Iteration      1(   2)  ---------------------------------------


    TRIAL :  cpu time   20.8722: real time   21.0658
    CORREC:  cpu time    0.0039: real time    0.0045
    --------------------------------------------
      LOOP:  cpu time   20.8773: real time   21.0733

 eigenvalue-minimisations  : 19584
 total energy-change (2. order) :-0.2105587E+04  (-0.1913155E+04)
 number of electron     270.0000000 magnetization     -81.0000000
 augmentation part      270.0000000 magnetization     -81.0000000

 Free energy of the ion-electron system (eV)
  ---------------------------------------------------
  alpha Z        PSCENC =       798.38614055
  Ewald energy   TEWEN  =    -12901.57693327
  -Hartree energ DENC   =     -2855.60785864
  -exchange      EXHF   =         0.00000000
  -V(xc)+E(xc)   XCENC  =      -995.47442382
  PAW double counting   =     12741.82587617   -11476.22345381
  entropy T*S    EENTRO =         0.00504837
  eigenvalues    EBANDS =      1798.86218977
  atomic energy  EATOM  =     12697.67401269
  ---------------------------------------------------
  free energy    TOTEN  =      -192.12940201 eV

  energy without entropy =     -192.13445038  energy(sigma->0) =     -192.13108480


--------------------------------------------------------------------------------------------------------




--------------------------------------- Iteration      1(   3)  ---------------------------------------


    TRIAL :  cpu time   21.6211: real time   21.7720
    CORREC:  cpu time    0.0595: real time    0.0596
    --------------------------------------------
      LOOP:  cpu time   21.6821: real time   21.8348

 eigenvalue-minimisations  : 20544
 total energy-change (2. order) :-0.1965962E+03  (-0.1568757E+03)
 number of electron     270.0000000 magnetization     -81.0000000
 augmentation part      270.0000000 magnetization     -81.0000000

 Free energy of the ion-electron system (eV)
  ---------------------------------------------------
  alpha Z        PSCENC =       798.38614055
  Ewald energy   TEWEN  =    -12901.57693327
  -Hartree energ DENC   =     -2855.60785864
  -exchange      EXHF   =         0.00000000
  -V(xc)+E(xc)   XCENC  =      -995.47442382
  PAW double counting   =     12741.82587617   -11476.22345381
  entropy T*S    EENTRO =         0.08595019
  eigenvalues    EBANDS =      1602.18512316
  atomic energy  EATOM  =     12697.67401269
  ---------------------------------------------------
  free energy    TOTEN  =      -388.72556680 eV

  energy without entropy =     -388.81151698  energy(sigma->0) =     -388.75421686


--------------------------------------------------------------------------------------------------------




--------------------------------------- Iteration      1(   4)  ---------------------------------------


    TRIAL :  cpu time   30.1057: real time   30.3065
    CORREC:  cpu time    0.0479: real time    0.0479
    --------------------------------------------
      LOOP:  cpu time   30.1550: real time   30.3579

 eigenvalue-minimisations  : 31080
 total energy-change (2. order) :-0.1441202E+02  (-0.1381017E+02)
 number of electron     270.0000000 magnetization     -81.0000000
 augmentation part      270.0000000 magnetization     -81.0000000

 Free energy of the ion-electron system (eV)
  ---------------------------------------------------
  alpha Z        PSCENC =       798.38614055
  Ewald energy   TEWEN  =    -12901.57693327
  -Hartree energ DENC   =     -2855.60785864
  -exchange      EXHF   =         0.00000000
  -V(xc)+E(xc)   XCENC  =      -995.47442382
  PAW double counting   =     12741.82587617   -11476.22345381
  entropy T*S    EENTRO =         0.09294088
  eigenvalues    EBANDS =      1587.76611363
  atomic energy  EATOM  =     12697.67401269
  ---------------------------------------------------
  free energy    TOTEN  =      -403.13758563 eV

  energy without entropy =     -403.23052651  energy(sigma->0) =     -403.16856593


--------------------------------------------------------------------------------------------------------




--------------------------------------- Iteration      1(   5)  ---------------------------------------


    TRIAL :  cpu time   28.9203: real time   29.0803
    CORREC:  cpu time    0.0043: real time    0.0044
    --------------------------------------------
      LOOP:  cpu time   28.9351: real time   29.0953

 eigenvalue-minimisations  : 30432
 total energy-change (2. order) :-0.2748434E+00  (-0.2742961E+00)
 number of electron     270.0000000 magnetization     -81.0000000
 augmentation part      270.0000000 magnetization     -81.0000000

 Free energy of the ion-electron system (eV)
  ---------------------------------------------------
  alpha Z        PSCENC =       798.38614055
  Ewald energy   TEWEN  =    -12901.57693327
  -Hartree energ DENC   =     -2855.60785864
  -exchange      EXHF   =         0.00000000
  -V(xc)+E(xc)   XCENC  =      -995.47442382
  PAW double counting   =     12741.82587617   -11476.22345381
  entropy T*S    EENTRO =         0.09302193
  eigenvalues    EBANDS =      1587.49118915
  atomic energy  EATOM  =     12697.67401269
  ---------------------------------------------------
  free energy    TOTEN  =      -403.41242906 eV

  energy without entropy =     -403.50545099  energy(sigma->0) =     -403.44343637


--------------------------------------------------------------------------------------------------------




--------------------------------------- Iteration      1(   6)  ---------------------------------------


    TRIAL :  cpu time   29.9198: real time   30.0943
    CORREC:  cpu time    0.0195: real time    0.0200
    --------------------------------------------
      LOOP:  cpu time   29.9423: real time   30.1173

 eigenvalue-minimisations  : 30776
 total energy-change (2. order) :-0.4892987E-02  (-0.4892312E-02)
 number of electron     270.0000000 magnetization     -81.0000000
 augmentation part      270.0000000 magnetization     -81.0000000

 Free energy of the ion-electron system (eV)
  ---------------------------------------------------
  alpha Z        PSCENC =       798.38614055
  Ewald energy   TEWEN  =    -12901.57693327
  -Hartree energ DENC   =     -2855.60785864
  -exchange      EXHF   =         0.00000000
  -V(xc)+E(xc)   XCENC  =      -995.47442382
  PAW double counting   =     12741.82587617   -11476.22345381
  entropy T*S    EENTRO =         0.09302071
  eigenvalues    EBANDS =      1587.48629738
  atomic energy  EATOM  =     12697.67401269
  ---------------------------------------------------
  free energy    TOTEN  =      -403.41732205 eV

  energy without entropy =     -403.51034276  energy(sigma->0) =     -403.44832895


--------------------------------------------------------------------------------------------------------




--------------------------------------- Iteration      1(   7)  ---------------------------------------


    TRIAL :  cpu time   29.1027: real time   29.3688
    CORREC:  cpu time    0.0041: real time    0.0048
    --------------------------------------------
      LOOP:  cpu time   29.1374: real time   29.4059

 eigenvalue-minimisations  : 30664
 total energy-change (2. order) :-0.1338540E-03  (-0.1338511E-03)
 number of electron     270.0000000 magnetization     -81.0000000
 augmentation part      270.0000000 magnetization     -81.0000000

 Free energy of the ion-electron system (eV)
  ---------------------------------------------------
  alpha Z        PSCENC =       798.38614055
  Ewald energy   TEWEN  =    -12901.57693327
  -Hartree energ DENC   =     -2855.60785864
  -exchange      EXHF   =         0.00000000
  -V(xc)+E(xc)   XCENC  =      -995.47442382
  PAW double counting   =     12741.82587617   -11476.22345381
  entropy T*S    EENTRO =         0.09302069
  eigenvalues    EBANDS =      1587.48616355
  atomic energy  EATOM  =     12697.67401269
  ---------------------------------------------------
  free energy    TOTEN  =      -403.41745591 eV

  energy without entropy =     -403.51047660  energy(sigma->0) =     -403.44846280


--------------------------------------------------------------------------------------------------------




--------------------------------------- Iteration      1(   8)  ---------------------------------------


    TRIAL :  cpu time   29.7037: real time   29.8860
    CORREC:  cpu time    0.0044: real time    0.0045
    CHARGE:  cpu time    1.9337: real time    1.9429
    --------------------------------------------
      LOOP:  cpu time   31.6434: real time   31.8368

 eigenvalue-minimisations  : 30856
 total energy-change (2. order) :-0.4971045E-05  (-0.4971117E-05)
 number of electron     269.9999995 magnetization     -58.8022445
 augmentation part       64.4393332 magnetization     -33.8070356

 Free energy of the ion-electron system (eV)
  ---------------------------------------------------
  alpha Z        PSCENC =       798.38614055
  Ewald energy   TEWEN  =    -12901.57693327
  -Hartree energ DENC   =     -2855.60785864
  -exchange      EXHF   =         0.00000000
  -V(xc)+E(xc)   XCENC  =      -995.47442382
  PAW double counting   =     12741.82587617   -11476.22345381
  entropy T*S    EENTRO =         0.09302069
  eigenvalues    EBANDS =      1587.48615858
  atomic energy  EATOM  =     12697.67401269
  ---------------------------------------------------
  free energy    TOTEN  =      -403.41746088 eV

  energy without entropy =     -403.51048157  energy(sigma->0) =     -403.44846777


--------------------------------------------------------------------------------------------------------




--------------------------------------- Iteration      1(   9)  ---------------------------------------


    POTLOK:  cpu time    0.1940: real time    0.1940
    SETDIJ:  cpu time    0.2929: real time    0.2929
    TRIAL :  cpu time   10.5321: real time   10.5542
    CORREC:  cpu time    3.8041: real time    3.8055
    CHARGE:  cpu time    1.1590: real time    1.1656
    --------------------------------------------
      LOOP:  cpu time   15.9895: real time   16.0198

 eigenvalue-minimisations  :     0
 total energy-change (2. order) : 0.2923811E+03  (-0.1958027E+03)
 number of electron     269.9999993 magnetization     -62.8971397
 augmentation part       83.9056364 magnetization     -42.6208210

 Free energy of the ion-electron system (eV)
  ---------------------------------------------------
  alpha Z        PSCENC =       798.38614055
  Ewald energy   TEWEN  =    -12901.57693327
  -Hartree energ DENC   =     -1281.58142020
  -exchange      EXHF   =         0.00000000
  -V(xc)+E(xc)   XCENC  =     -1041.70269237
  PAW double counting   =     19195.67680741   -17776.94325614
  entropy T*S    EENTRO =         0.03391876
  eigenvalues    EBANDS =       198.93796649
  atomic energy  EATOM  =     12697.67401269
  ---------------------------------------------------
  free energy    TOTEN  =      -111.03635416 eV

  energy without entropy =     -111.07027292  energy(sigma->0) =     -111.04766041


--------------------------------------------------------------------------------------------------------




--------------------------------------- Iteration      1(  10)  ---------------------------------------


    POTLOK:  cpu time    0.1918: real time    0.1918
    SETDIJ:  cpu time    0.2758: real time    0.2758
    TRIAL :  cpu time   11.6061: real time   11.7489
    CORREC:  cpu time    4.5793: real time    4.5809
    CHARGE:  cpu time    1.1051: real time    1.1053
    --------------------------------------------
      LOOP:  cpu time   17.7597: real time   17.9061

 eigenvalue-minimisations  :     0
 total energy-change (2. order) :-0.2074722E+03  (-0.3029660E+02)
 number of electron     269.9999992 magnetization     -63.9929536
 augmentation part       88.3402580 magnetization     -43.9834988

 Free energy of the ion-electron system (eV)
  ---------------------------------------------------
  alpha Z        PSCENC =       798.38614055
  Ewald energy   TEWEN  =    -12901.57693327
  -Hartree energ DENC   =     -2176.37379132
  -exchange      EXHF   =         0.00000000
  -V(xc)+E(xc)   XCENC  =     -1007.82941354
  PAW double counting   =     21207.50543330   -19995.81523422
  entropy T*S    EENTRO =         0.04448769
  eigenvalues    EBANDS =      1059.48727178
  atomic energy  EATOM  =     12697.67401269
  ---------------------------------------------------
  free energy    TOTEN  =      -318.50859527 eV

  energy without entropy =     -318.55308296  energy(sigma->0) =     -318.52342450


--------------------------------------------------------------------------------------------------------




--------------------------------------- Iteration      1(  11)  ---------------------------------------


    POTLOK:  cpu time    0.1911: real time    0.1912
    SETDIJ:  cpu time    0.2759: real time    0.2911
    TRIAL :  cpu time   10.6371: real time   10.6767
    CORREC:  cpu time    3.7688: real time    3.7845
    CHARGE:  cpu time    1.1041: real time    1.1043
    --------------------------------------------
      LOOP:  cpu time   16.0317: real time   16.1025

 eigenvalue-minimisations  :     0
 total energy-change (2. order) :-0.3076631E+02  (-0.5921409E+01)
 number of electron     269.9999992 magnetization     -63.8167975
 augmentation part       86.1281897 magnetization     -42.9584978

 Free energy of the ion-electron system (eV)
  ---------------------------------------------------
  alpha Z        PSCENC =       798.38614055
  Ewald energy   TEWEN  =    -12901.57693327
  -Hartree energ DENC   =     -2575.25929182
  -exchange      EXHF   =         0.00000000
  -V(xc)+E(xc)   XCENC  =      -996.67345719
  PAW double counting   =     20750.17808485   -19546.80177274
  entropy T*S    EENTRO =         0.04287576
  eigenvalues    EBANDS =      1424.75382703
  atomic energy  EATOM  =     12697.67401269
  ---------------------------------------------------
  free energy    TOTEN  =      -349.27490221 eV

  energy without entropy =     -349.31777797  energy(sigma->0) =     -349.28919413


--------------------------------------------------------------------------------------------------------




--------------------------------------- Iteration      1(  12)  ---------------------------------------


    POTLOK:  cpu time    0.1915: real time    0.1915
    SETDIJ:  cpu time    1.1514: real time    1.1515
    TRIAL :  cpu time   10.5459: real time   10.7181
    CORREC:  cpu time    3.8394: real time    3.8414
    CHARGE:  cpu time    1.0934: real time    1.1124
    --------------------------------------------
      LOOP:  cpu time   16.8490: real time   17.0424

 eigenvalue-minimisations  :     0
 total energy-change (2. order) :-0.5950675E+01  (-0.1827421E+01)
 number of electron     269.9999992 magnetization     -63.5939868
 augmentation part       86.4007017 magnetization     -42.7143236

 Free energy of the ion-electron system (eV)
  ---------------------------------------------------
  alpha Z        PSCENC =       798.38614055
  Ewald energy   TEWEN  =    -12901.57693327
  -Hartree energ DENC   =     -2498.09726174
  -exchange      EXHF   =         0.00000000
  -V(xc)+E(xc)   XCENC  =     -1000.93869750
  PAW double counting   =     19986.25680161   -18737.75780155
  entropy T*S    EENTRO =         0.03631807
  eigenvalues    EBANDS =      1300.78528586
  atomic energy  EATOM  =     12697.67401269
  ---------------------------------------------------
  free energy    TOTEN  =      -355.22557759 eV

  energy without entropy =     -355.26189565  energy(sigma->0) =     -355.23768361


--------------------------------------------------------------------------------------------------------




--------------------------------------- Iteration      1(  13)  ---------------------------------------


    POTLOK:  cpu time    0.1911: real time    0.1915
    SETDIJ:  cpu time    0.3310: real time    0.3317
    TRIAL :  cpu time   11.5329: real time   11.5671
    CORREC:  cpu time    3.7657: real time    3.7980
    CHARGE:  cpu time    1.1066: real time    1.1143
    --------------------------------------------
      LOOP:  cpu time   16.9346: real time   17.0118

 eigenvalue-minimisations  :     0
 total energy-change (2. order) :-0.1827875E+01  (-0.3976605E+00)
 number of electron     269.9999992 magnetization     -63.4340525
 augmentation part       87.2588822 magnetization     -43.1719613

 Free energy of the ion-electron system (eV)
  ---------------------------------------------------
  alpha Z        PSCENC =       798.38614055
  Ewald energy   TEWEN  =    -12901.57693327
  -Hartree energ DENC   =     -2480.01568246
  -exchange      EXHF   =         0.00000000
  -V(xc)+E(xc)   XCENC  =     -1001.24529327
  PAW double counting   =     19369.16323294   -18113.84462886
  entropy T*S    EENTRO =         0.03122764
  eigenvalues    EBANDS =      1274.36938105
  atomic energy  EATOM  =     12697.67401269
  ---------------------------------------------------
  free energy    TOTEN  =      -357.05345256 eV

  energy without entropy =     -357.08468020  energy(sigma->0) =     -357.06386178


--------------------------------------------------------------------------------------------------------




--------------------------------------- Iteration      1(  14)  ---------------------------------------


    POTLOK:  cpu time    0.1913: real time    0.1915
    SETDIJ:  cpu time    0.2619: real time    0.2620
    TRIAL :  cpu time   10.5112: real time   10.6304
    CORREC:  cpu time    3.8490: real time    3.8715
    CHARGE:  cpu time    1.1159: real time    1.1161
    --------------------------------------------
      LOOP:  cpu time   15.9312: real time   16.3188

 eigenvalue-minimisations  :     0
 total energy-change (2. order) :-0.3980073E+00  (-0.2158033E+00)
 number of electron     269.9999992 magnetization     -63.1865872
 augmentation part       87.0949221 magnetization     -43.5392273

 Free energy of the ion-electron system (eV)
  ---------------------------------------------------
  alpha Z        PSCENC =       798.38614055
  Ewald energy   TEWEN  =    -12901.57693327
  -Hartree energ DENC   =     -2515.88126598
  -exchange      EXHF   =         0.00000000
  -V(xc)+E(xc)   XCENC  =      -999.43908761
  PAW double counting   =     19456.74636224   -18210.20720632
  entropy T*S    EENTRO =         0.02511707
  eigenvalues    EBANDS =      1316.81529017
  atomic energy  EATOM  =     12697.67401269
  ---------------------------------------------------
  free energy    TOTEN  =      -357.45145989 eV

  energy without entropy =     -357.47657697  energy(sigma->0) =     -357.45983225


--------------------------------------------------------------------------------------------------------




--------------------------------------- Iteration      1(  15)  ---------------------------------------


    POTLOK:  cpu time    0.1912: real time    0.1912
    SETDIJ:  cpu time    0.2845: real time    0.2846
    TRIAL :  cpu time   11.5717: real time   11.6137
    CORREC:  cpu time    3.7638: real time    3.7771
    CHARGE:  cpu time    1.1105: real time    1.1668
    --------------------------------------------
      LOOP:  cpu time   16.9241: real time   17.0384

 eigenvalue-minimisations  :     0
 total energy-change (2. order) :-0.2157810E+00  (-0.7680620E-01)
 number of electron     269.9999992 magnetization     -62.9726481
 augmentation part       86.8304894 magnetization     -43.6519284

 Free energy of the ion-electron system (eV)
  ---------------------------------------------------
  alpha Z        PSCENC =       798.38614055
  Ewald energy   TEWEN  =    -12901.57693327
  -Hartree energ DENC   =     -2507.75836921
  -exchange      EXHF   =         0.00000000
  -V(xc)+E(xc)   XCENC  =      -999.26402501
  PAW double counting   =     19604.05697621   -18355.35778579
  entropy T*S    EENTRO =         0.02124091
  eigenvalues    EBANDS =      1306.14762587
  atomic energy  EATOM  =     12697.67401269
  ---------------------------------------------------
  free energy    TOTEN  =      -357.66724089 eV

  energy without entropy =     -357.68848180  energy(sigma->0) =     -357.67432119


--------------------------------------------------------------------------------------------------------




--------------------------------------- Iteration      1(  16)  ---------------------------------------


    POTLOK:  cpu time    0.2010: real time    0.2080
    SETDIJ:  cpu time    0.2840: real time    0.2840
    TRIAL :  cpu time   10.5876: real time   10.6423
    CORREC:  cpu time    3.7669: real time    3.7685
    CHARGE:  cpu time    1.1162: real time    1.1164
    --------------------------------------------
      LOOP:  cpu time   15.9579: real time   16.0237

 eigenvalue-minimisations  :     0
 total energy-change (2. order) :-0.7672534E-01  (-0.3790239E-01)
 number of electron     269.9999992 magnetization     -62.8357571
 augmentation part       87.0052944 magnetization     -43.8096669

 Free energy of the ion-electron system (eV)
  ---------------------------------------------------
  alpha Z        PSCENC =       798.38614055
  Ewald energy   TEWEN  =    -12901.57693327
  -Hartree energ DENC   =     -2496.81151753
  -exchange      EXHF   =         0.00000000
  -V(xc)+E(xc)   XCENC  =      -999.43323503
  PAW double counting   =     19521.89892229   -18270.71083935
  entropy T*S    EENTRO =         0.01942818
  eigenvalues    EBANDS =      1292.80824250
  atomic energy  EATOM  =     12697.67401269
  ---------------------------------------------------
  free energy    TOTEN  =      -357.74396623 eV

  energy without entropy =     -357.76339440  energy(sigma->0) =     -357.75044228


--------------------------------------------------------------------------------------------------------




--------------------------------------- Iteration      1(  17)  ---------------------------------------


    POTLOK:  cpu time    0.1916: real time    0.1916
    SETDIJ:  cpu time    0.2674: real time    0.2675
    TRIAL :  cpu time   11.5483: real time   11.5983
    CORREC:  cpu time    3.7664: real time    3.8601
    CHARGE:  cpu time    1.6745: real time    1.6747
    --------------------------------------------
      LOOP:  cpu time   17.4494: real time   17.5952

 eigenvalue-minimisations  :     0
 total energy-change (2. order) :-0.3790886E-01  (-0.1631593E-01)
 number of electron     269.9999992 magnetization     -62.7589440
 augmentation part       87.0456433 magnetization     -43.9216158

 Free energy of the ion-electron system (eV)
  ---------------------------------------------------
  alpha Z        PSCENC =       798.38614055
  Ewald energy   TEWEN  =    -12901.57693327
  -Hartree energ DENC   =     -2506.93020253
  -exchange      EXHF   =         0.00000000
  -V(xc)+E(xc)   XCENC  =      -998.87176550
  PAW double counting   =     19479.54874861   -18231.01460657
  entropy T*S    EENTRO =         0.01894988
  eigenvalues    EBANDS =      1304.98330276
  atomic energy  EATOM  =     12697.67401269
  ---------------------------------------------------
  free energy    TOTEN  =      -357.78187508 eV

  energy without entropy =     -357.80082496  energy(sigma->0) =     -357.78819171


--------------------------------------------------------------------------------------------------------




--------------------------------------- Iteration      1(  18)  ---------------------------------------


    POTLOK:  cpu time    0.1913: real time    0.1913
    SETDIJ:  cpu time    0.2629: real time    0.2629
    TRIAL :  cpu time   10.5963: real time   10.6291
    CORREC:  cpu time    3.7897: real time    3.8295
    CHARGE:  cpu time    1.1025: real time    1.1212
    --------------------------------------------
      LOOP:  cpu time   15.9440: real time   16.0379

 eigenvalue-minimisations  :     0
 total energy-change (2. order) :-0.1625308E-01  (-0.4787494E-02)
 number of electron     269.9999992 magnetization     -62.7436547
 augmentation part       86.9683476 magnetization     -43.9707124

 Free energy of the ion-electron system (eV)
  ---------------------------------------------------
  alpha Z        PSCENC =       798.38614055
  Ewald energy   TEWEN  =    -12901.57693327
  -Hartree energ DENC   =     -2507.97123047
  -exchange      EXHF   =         0.00000000
  -V(xc)+E(xc)   XCENC  =      -998.63133171
  PAW double counting   =     19458.64961632   -18210.78950017
  entropy T*S    EENTRO =         0.01902170
  eigenvalues    EBANDS =      1306.44214802
  atomic energy  EATOM  =     12697.67401269
  ---------------------------------------------------
  free energy    TOTEN  =      -357.79812816 eV

  energy without entropy =     -357.81714987  energy(sigma->0) =     -357.80446873


--------------------------------------------------------------------------------------------------------




--------------------------------------- Iteration      1(  19)  ---------------------------------------


    POTLOK:  cpu time    0.1918: real time    0.1918
    SETDIJ:  cpu time    0.3060: real time    0.3060
    TRIAL :  cpu time   12.1927: real time   12.3408
    CORREC:  cpu time    3.7518: real time    3.7693
    CHARGE:  cpu time    1.1080: real time    1.1082
    --------------------------------------------
      LOOP:  cpu time   17.5524: real time   17.7204

 eigenvalue-minimisations  :     0
 total energy-change (2. order) :-0.4788248E-02  (-0.2592570E-02)
 number of electron     269.9999992 magnetization     -62.7538314
 augmentation part       86.9930982 magnetization     -44.0679681

 Free energy of the ion-electron system (eV)
  ---------------------------------------------------
  alpha Z        PSCENC =       798.38614055
  Ewald energy   TEWEN  =    -12901.57693327
  -Hartree energ DENC   =     -2503.48428585
  -exchange      EXHF   =         0.00000000
  -V(xc)+E(xc)   XCENC  =      -998.69202256
  PAW double counting   =     19454.59925653   -18205.81074272
  entropy T*S    EENTRO =         0.01936923
  eigenvalues    EBANDS =      1301.08263653
  atomic energy  EATOM  =     12697.67401269
  ---------------------------------------------------
  free energy    TOTEN  =      -357.80291641 eV

  energy without entropy =     -357.82228564  energy(sigma->0) =     -357.80937282


--------------------------------------------------------------------------------------------------------




--------------------------------------- Iteration      1(  20)  ---------------------------------------


    POTLOK:  cpu time    0.1911: real time    0.1912
    SETDIJ:  cpu time    0.2907: real time    0.2907
    TRIAL :  cpu time   10.5842: real time   10.5988
    CORREC:  cpu time    4.5776: real time    4.5899
    CHARGE:  cpu time    1.1162: real time    1.1179
    --------------------------------------------
      LOOP:  cpu time   16.7618: real time   16.7918

 eigenvalue-minimisations  :     0
 total energy-change (2. order) :-0.2592459E-02  (-0.5544539E-03)
 number of electron     269.9999992 magnetization     -62.7808386
 augmentation part       87.0154011 magnetization     -44.1062420

 Free energy of the ion-electron system (eV)
  ---------------------------------------------------
  alpha Z        PSCENC =       798.38614055
  Ewald energy   TEWEN  =    -12901.57693327
  -Hartree energ DENC   =     -2504.57275524
  -exchange      EXHF   =         0.00000000
  -V(xc)+E(xc)   XCENC  =      -998.53352839
  PAW double counting   =     19469.47724958   -18220.95195833
  entropy T*S    EENTRO =         0.01979334
  eigenvalues    EBANDS =      1302.27289431
  atomic energy  EATOM  =     12697.67401269
  ---------------------------------------------------
  free energy    TOTEN  =      -357.80550887 eV

  energy without entropy =     -357.82530221  energy(sigma->0) =     -357.81210665


--------------------------------------------------------------------------------------------------------




--------------------------------------- Iteration      1(  21)  ---------------------------------------


    POTLOK:  cpu time    0.1912: real time    0.1912
    SETDIJ:  cpu time    0.2620: real time    0.2620
    TRIAL :  cpu time   10.5273: real time   10.6211
    CORREC:  cpu time    3.8275: real time    3.8387
    CHARGE:  cpu time    1.1588: real time    1.1751
    --------------------------------------------
      LOOP:  cpu time   15.9686: real time   16.0919

 eigenvalue-minimisations  :     0
 total energy-change (2. order) :-0.5561415E-03  (-0.3216730E-03)
 number of electron     269.9999992 magnetization     -62.8093266
 augmentation part       86.9985569 magnetization     -44.1223802

 Free energy of the ion-electron system (eV)
  ---------------------------------------------------
  alpha Z        PSCENC =       798.38614055
  Ewald energy   TEWEN  =    -12901.57693327
  -Hartree energ DENC   =     -2505.93479054
  -exchange      EXHF   =         0.00000000
  -V(xc)+E(xc)   XCENC  =      -998.43991596
  PAW double counting   =     19472.02652044   -18223.75644818
  entropy T*S    EENTRO =         0.02019042
  eigenvalues    EBANDS =      1303.79555592
  atomic energy  EATOM  =     12697.67401269
  ---------------------------------------------------
  free energy    TOTEN  =      -357.80606501 eV

  energy without entropy =     -357.82625543  energy(sigma->0) =     -357.81279515


--------------------------------------------------------------------------------------------------------




--------------------------------------- Iteration      1(  22)  ---------------------------------------


    POTLOK:  cpu time    0.1922: real time    0.1924
    SETDIJ:  cpu time    0.3017: real time    0.3017
    TRIAL :  cpu time   10.5705: real time   10.5942
    CORREC:  cpu time    4.7007: real time    4.7408
    CHARGE:  cpu time    1.0961: real time    1.1083
    --------------------------------------------
      LOOP:  cpu time   16.8625: real time   16.9414

 eigenvalue-minimisations  :     0
 total energy-change (2. order) :-0.3216696E-03  (-0.1548276E-03)
 number of electron     269.9999992 magnetization     -62.8458685
 augmentation part       86.9946082 magnetization     -44.1413079

 Free energy of the ion-electron system (eV)
  ---------------------------------------------------
  alpha Z        PSCENC =       798.38614055
  Ewald energy   TEWEN  =    -12901.57693327
  -Hartree energ DENC   =     -2505.19960817
  -exchange      EXHF   =         0.00000000
  -V(xc)+E(xc)   XCENC  =      -998.43706313
  PAW double counting   =     19470.34397366   -18221.87808067
  entropy T*S    EENTRO =         0.02062317
  eigenvalues    EBANDS =      1302.86098124
  atomic energy  EATOM  =     12697.67401269
  ---------------------------------------------------
  free energy    TOTEN  =      -357.80638668 eV

  energy without entropy =     -357.82700985  energy(sigma->0) =     -357.81326107


--------------------------------------------------------------------------------------------------------




--------------------------------------- Iteration      1(  23)  ---------------------------------------


    POTLOK:  cpu time    0.1914: real time    0.1915
    SETDIJ:  cpu time    0.3278: real time    0.3278
    TRIAL :  cpu time   10.5533: real time   10.6679
    CORREC:  cpu time    3.8141: real time    3.8495
    CHARGE:  cpu time    1.1066: real time    1.1070
    --------------------------------------------
      LOOP:  cpu time   15.9948: real time   16.1474

 eigenvalue-minimisations  :     0
 total energy-change (2. order) :-0.1501702E-03  (-0.4483040E-04)
 number of electron     269.9999992 magnetization     -62.8645492
 augmentation part       87.0020367 magnetization     -44.1568371

 Free energy of the ion-electron system (eV)
  ---------------------------------------------------
  alpha Z        PSCENC =       798.38614055
  Ewald energy   TEWEN  =    -12901.57693327
  -Hartree energ DENC   =     -2504.90239234
  -exchange      EXHF   =         0.00000000
  -V(xc)+E(xc)   XCENC  =      -998.41266533
  PAW double counting   =     19473.40454364   -18224.94817016
  entropy T*S    EENTRO =         0.02082584
  eigenvalues    EBANDS =      1302.54830419
  atomic energy  EATOM  =     12697.67401269
  ---------------------------------------------------
  free energy    TOTEN  =      -357.80653685 eV

  energy without entropy =     -357.82736269  energy(sigma->0) =     -357.81347880


[...]
   45       -0.018  -0.021  -2.308  -2.346
   46       -0.018  -0.021  -2.308  -2.346
   47       -0.018  -0.021  -2.308  -2.346
   48       -0.018  -0.021  -2.308  -2.346
   49       -0.018  -0.021  -2.308  -2.346
   50       -0.018  -0.021  -2.308  -2.346
   51       -0.018  -0.021  -2.308  -2.346
   52       -0.018  -0.021  -2.308  -2.346
   53       -0.018  -0.021  -2.308  -2.346
   54       -0.018  -0.021  -2.308  -2.346
--------------------------------------------------
tot          0.083   0.411 -62.309 -61.815
 
    FORLOC:  cpu time    0.0281: real time    0.0281
    FORNL :  cpu time   13.8256: real time   13.8818
    STRESS:  cpu time   18.9926: real time   19.2281
    FORCOR:  cpu time    0.2123: real time    0.2123
    OFIELD:  cpu time    0.0014: real time    0.0014

  FORCE on cell =-STRESS in cart. coord.  units (eV):
  Direction    XX          YY          ZZ          XY          YZ          ZX
  --------------------------------------------------------------------------------------
  Alpha Z   798.38614   798.38614   798.38614
  Ewald   -4053.61603 -4053.61603 -4794.40593     0.00000    -0.00000    -0.00000
  Hartree  1085.02027  1085.02027   335.02668    -0.00000    -0.00000    -0.00000
  E(xc)   -1141.07095 -1141.07095 -1139.80682    -0.00000     0.00000    -0.00000
  Local     371.38710   371.38710  1900.78185    -0.00000    -0.00000     0.00000
  n-local  -178.27143  -175.53404  -180.98207    -0.64597    -0.31090    -0.33830
  augment   783.45547   783.45547   768.27359     0.00000     0.00001     0.00001
  Kinetic  2327.06183  2343.17417  2314.36775     0.20133     0.64441     0.37319
  Fock        0.00000     0.00000     0.00000     0.00000     0.00000     0.00000
  -------------------------------------------------------------------------------------
  Total       1.77726     1.77726     1.64119     0.00000    -0.00000     0.00000
  in kB       4.01105     4.01105     3.70396     0.00000    -0.00000     0.00000
  external pressure =        3.91 kB  Pullay stress =        0.00 kB


 VOLUME and BASIS-vectors are now :
 -----------------------------------------------------------------------------
  energy-cutoff  :      404.80
  volume of cell :      709.91
      direct lattice vectors                 reciprocal lattice vectors
     8.250148166  0.000000000  0.000000000     0.121209944  0.000000000  0.000000000
     0.000000000  8.250148166  0.000000000     0.000000000  0.121209944  0.000000000
     0.000000000  0.000000000 10.429911392     0.000000000  0.000000000  0.095878092

  length of vectors
     8.250148166  8.250148166 10.429911392     0.121209944  0.121209944  0.095878092


 FORCES acting on ions:
    Electron-Ion                     Ewald-Force                    Non-Local-Force
 -----------------------------------------------------------------------------------------------
   -.254E-10 -.254E-10 -.224E-10   -.239E-08 -.239E-08 -.210E-08   -.169E-24 0.186E-23 -.165E-21
   -.254E-10 -.254E-10 0.489E-06   -.239E-08 -.239E-08 0.171E-08   -.207E-24 -.620E-24 0.132E-21
   -.254E-10 -.254E-10 -.497E-06   -.239E-08 -.239E-08 0.861E-08   0.750E-24 0.165E-23 -.631E-22
   -.254E-10 -.623E-09 -.224E-10   -.239E-08 -.802E-09 -.210E-08   -.517E-24 -.248E-23 -.629E-22
   -.254E-10 -.623E-09 0.489E-06   -.239E-08 -.802E-09 0.171E-08   -.362E-24 -.140E-23 0.662E-23
   -.254E-10 -.623E-09 -.497E-06   -.239E-08 -.802E-09 0.861E-08   0.310E-24 -.114E-23 -.138E-22
   -.254E-10 -.379E-08 -.224E-10   -.239E-08 0.631E-08 -.210E-08   -.931E-24 0.147E-23 -.132E-22
   -.254E-10 -.379E-08 0.489E-06   -.239E-08 0.631E-08 0.171E-08   0.124E-23 -.202E-23 0.364E-22
   -.254E-10 -.379E-08 -.497E-06   -.239E-08 0.631E-08 0.861E-08   -.207E-24 0.414E-24 -.163E-22
   -.623E-09 -.254E-10 -.219E-10   -.802E-09 -.239E-08 -.210E-08   0.207E-24 0.982E-24 -.112E-21
   -.623E-09 -.254E-10 0.489E-06   -.802E-09 -.239E-08 0.171E-08   0.414E-24 -.827E-24 0.142E-21
   -.623E-09 -.254E-10 -.497E-06   -.803E-09 -.239E-08 0.861E-08   0.202E-23 0.827E-24 -.143E-21
   -.623E-09 -.623E-09 -.219E-10   -.802E-09 -.802E-09 -.210E-08   -.109E-23 -.414E-24 -.596E-22
   -.623E-09 -.623E-09 0.489E-06   -.802E-09 -.802E-09 0.171E-08   0.109E-23 0.207E-24 -.232E-22
   -.623E-09 -.623E-09 -.497E-06   -.803E-09 -.802E-09 0.861E-08   0.414E-24 0.233E-24 0.429E-22
   -.623E-09 -.379E-08 -.219E-10   -.802E-09 0.631E-08 -.210E-08   0.517E-24 -.310E-23 -.662E-23
   -.623E-09 -.379E-08 0.489E-06   -.802E-09 0.631E-08 0.171E-08   -.827E-24 -.724E-24 -.430E-22
   -.623E-09 -.379E-08 -.497E-06   -.803E-09 0.631E-08 0.861E-08   -.827E-24 -.127E-23 0.428E-22
   -.379E-08 -.254E-10 -.214E-10   0.631E-08 -.239E-08 -.210E-08   -.103E-23 0.207E-24 -.112E-21
   -.379E-08 -.254E-10 0.489E-06   0.631E-08 -.239E-08 0.171E-08   0.207E-24 0.181E-24 0.562E-22
   -.379E-08 -.254E-10 -.497E-06   0.631E-08 -.239E-08 0.861E-08   -.132E-23 -.103E-24 -.634E-22
   -.379E-08 -.623E-09 -.214E-10   0.631E-08 -.802E-09 -.210E-08   0.595E-24 0.215E-23 0.298E-22
   -.379E-08 -.623E-09 0.489E-06   0.631E-08 -.802E-09 0.171E-08   -.827E-24 0.172E-23 0.165E-22
   -.379E-08 -.623E-09 -.497E-06   0.631E-08 -.802E-09 0.861E-08   0.207E-24 0.200E-23 0.257E-22
   -.379E-08 -.379E-08 -.214E-10   0.631E-08 0.631E-08 -.210E-08   0.258E-24 -.155E-23 0.794E-22
   -.379E-08 -.379E-08 0.489E-06   0.631E-08 0.631E-08 0.171E-08   -.827E-24 -.227E-23 0.662E-23
   -.379E-08 -.379E-08 -.497E-06   0.631E-08 0.631E-08 0.861E-08   -.103E-23 -.879E-24 0.223E-22
   0.522E-08 0.522E-08 0.266E-05   -.169E-07 -.169E-07 -.180E-07   0.931E-24 -.114E-23 0.190E-21
   0.522E-08 0.522E-08 -.206E-10   -.169E-07 -.169E-07 -.170E-08   0.150E-23 -.217E-23 0.288E-21
   0.522E-08 0.522E-08 -.266E-05   -.169E-07 -.169E-07 0.115E-07   -.103E-24 -.414E-24 -.245E-21
   0.522E-08 0.815E-11 0.266E-05   -.169E-07 0.802E-09 -.180E-07   -.176E-23 -.288E-23 -.207E-21
   0.522E-08 0.823E-11 -.206E-10   -.169E-07 0.802E-09 -.170E-08   0.931E-24 0.119E-23 -.268E-21
   0.522E-08 0.820E-11 -.266E-05   -.169E-07 0.802E-09 0.115E-07   0.517E-24 0.207E-24 0.192E-21
   0.522E-08 -.526E-08 0.266E-05   -.169E-07 0.130E-07 -.180E-07   0.465E-24 0.103E-23 -.413E-22
   0.522E-08 -.526E-08 -.206E-10   -.169E-07 0.130E-07 -.170E-08   0.827E-24 -.501E-23 -.496E-22
   0.522E-08 -.526E-08 -.266E-05   -.169E-07 0.130E-07 0.115E-07   -.227E-23 -.258E-25 -.397E-22
   0.859E-11 0.522E-08 0.266E-05   0.802E-09 -.169E-07 -.180E-07   -.258E-25 -.620E-24 0.799E-23
   0.860E-11 0.522E-08 -.151E-10   0.802E-09 -.169E-07 -.170E-08   0.827E-24 0.445E-23 0.106E-21
   0.859E-11 0.522E-08 -.266E-05   0.802E-09 -.169E-07 0.115E-07   0.279E-23 -.165E-23 0.463E-22
   0.860E-11 0.792E-11 0.266E-05   0.802E-09 0.802E-09 -.180E-07   -.145E-23 0.165E-23 -.316E-22
   0.860E-11 0.937E-11 -.151E-10   0.802E-09 0.802E-09 -.170E-08   -.233E-23 0.724E-24 0.132E-22
   0.861E-11 0.973E-11 -.266E-05   0.802E-09 0.802E-09 0.115E-07   -.124E-23 -.620E-24 0.132E-21
   0.860E-11 -.526E-08 0.266E-05   0.802E-09 0.130E-07 -.180E-07   0.158E-23 0.532E-23 -.150E-22
   0.860E-11 -.526E-08 -.147E-10   0.802E-09 0.130E-07 -.170E-08   0.672E-24 -.548E-23 0.298E-22
   0.861E-11 -.526E-08 -.266E-05   0.802E-09 0.130E-07 0.115E-07   0.737E-24 -.827E-24 0.662E-22
   -.526E-08 0.522E-08 0.266E-05   0.130E-07 -.169E-07 -.180E-07   0.750E-24 -.145E-23 0.124E-21
   -.526E-08 0.522E-08 -.111E-10   0.130E-07 -.169E-07 -.170E-08   -.145E-23 0.248E-23 0.993E-23
   -.526E-08 0.522E-08 -.266E-05   0.130E-07 -.169E-07 0.115E-07   -.103E-23 0.000E+00 -.232E-21
   -.526E-08 0.932E-11 0.266E-05   0.130E-07 0.802E-09 -.180E-07   0.103E-23 0.000E+00 0.445E-22
   -.526E-08 0.609E-11 -.108E-10   0.130E-07 0.802E-09 -.170E-08   -.600E-23 0.352E-23 -.695E-22
   -.526E-08 0.770E-11 -.266E-05   0.130E-07 0.802E-09 0.115E-07   -.239E-23 -.103E-24 -.926E-22
   -.526E-08 -.526E-08 0.266E-05   0.130E-07 0.130E-07 -.180E-07   -.362E-24 0.414E-23 0.810E-22
   -.526E-08 -.526E-08 -.111E-10   0.130E-07 0.130E-07 -.170E-08   -.496E-23 -.527E-23 -.331E-22
   -.526E-08 -.526E-08 -.266E-05   0.130E-07 0.130E-07 0.115E-07   -.140E-23 0.414E-24 -.397E-22
 -----------------------------------------------------------------------------------------------
   -.449E-07 -.449E-07 -.750E-07   -.614E-13 -.142E-13 0.128E-13   -.152E-22 -.743E-23 -.291E-21
 
 
 POSITION                                       TOTAL-FORCE (eV/Angst)
 -----------------------------------------------------------------------------------
      0.00000      0.00000      0.00000        -0.000000     -0.000000      0.000000
      0.00000      0.00000      3.47664         0.000000      0.000000     -0.000000
      0.00000      0.00000      6.95327        -0.000000      0.000000      0.000000
      0.00000      2.75005      0.00000         0.000000      0.000000      0.000000
      0.00000      2.75005      3.47664         0.000000      0.000000      0.000000
      0.00000      2.75005      6.95327        -0.000000      0.000000     -0.000000
      0.00000      5.50010      0.00000         0.000000      0.000000     -0.000000
      0.00000      5.50010      3.47664        -0.000000     -0.000000      0.000000
      0.00000      5.50010      6.95327         0.000000     -0.000000      0.000000
      2.75005      0.00000      0.00000        -0.000000     -0.000000      0.000000
      2.75005      0.00000      3.47664        -0.000000      0.000000     -0.000000
      2.75005      0.00000      6.95327        -0.000000      0.000000      0.000000
      2.75005      2.75005      0.00000         0.000000      0.000000      0.000000
      2.75005      2.75005      3.47664         0.000000      0.000000     -0.000000
      2.75005      2.75005      6.95327         0.000000     -0.000000      0.000000
      2.75005      5.50010      0.00000        -0.000000      0.000000     -0.000000
      2.75005      5.50010      3.47664         0.000000      0.000000      0.000000
      2.75005      5.50010      6.95327         0.000000     -0.000000     -0.000000
      5.50010      0.00000      0.00000         0.000000      0.000000      0.000000
      5.50010      0.00000      3.47664        -0.000000     -0.000000     -0.000000
      5.50010      0.00000      6.95327        -0.000000     -0.000000      0.000000
      5.50010      2.75005      0.00000        -0.000000     -0.000000      0.000000
      5.50010      2.75005      3.47664        -0.000000      0.000000     -0.000000
      5.50010      2.75005      6.95327         0.000000     -0.000000      0.000000
      5.50010      5.50010      0.00000         0.000000     -0.000000     -0.000000
      5.50010      5.50010      3.47664         0.000000      0.000000      0.000000
      5.50010      5.50010      6.95327        -0.000000     -0.000000     -0.000000
      1.37502      1.37502      1.73832        -0.000000      0.000000      0.000000
      1.37502      1.37502      5.21496        -0.000000     -0.000000      0.000000
      1.37502      1.37502      8.69159        -0.000000      0.000000      0.000000
      1.37502      4.12507      1.73832        -0.000000      0.000000     -0.000000
      1.37502      4.12507      5.21496        -0.000000     -0.000000     -0.000000
      1.37502      4.12507      8.69159        -0.000000     -0.000000      0.000000
      1.37502      6.87512      1.73832        -0.000000     -0.000000      0.000000
      1.37502      6.87512      5.21496        -0.000000      0.000000      0.000000
      1.37502      6.87512      8.69159        -0.000000     -0.000000      0.000000
      4.12507      1.37502      1.73832        -0.000000      0.000000     -0.000000
      4.12507      1.37502      5.21496         0.000000      0.000000     -0.000000
      4.12507      1.37502      8.69159         0.000000     -0.000000     -0.000000
      4.12507      4.12507      1.73832         0.000000      0.000000     -0.000000
      4.12507      4.12507      5.21496         0.000000     -0.000000      0.000000
      4.12507      4.12507      8.69159         0.000000     -0.000000      0.000000
      4.12507      6.87512      1.73832         0.000000     -0.000000     -0.000000
      4.12507      6.87512      5.21496        -0.000000      0.000000     -0.000000
      4.12507      6.87512      8.69159        -0.000000     -0.000000      0.000000
      6.87512      1.37502      1.73832         0.000000      0.000000      0.000000
      6.87512      1.37502      5.21496        -0.000000     -0.000000      0.000000
      6.87512      1.37502      8.69159        -0.000000      0.000000      0.000000
      6.87512      4.12507      1.73832         0.000000      0.000000      0.000000
      6.87512      4.12507      5.21496         0.000000     -0.000000     -0.000000
      6.87512      4.12507      8.69159        -0.000000      0.000000      0.000000
      6.87512      6.87512      1.73832         0.000000     -0.000000     -0.000000
      6.87512      6.87512      5.21496         0.000000      0.000000     -0.000000
      6.87512      6.87512      8.69159         0.000000      0.000000     -0.000000
 -----------------------------------------------------------------------------------
    total drift:                               -0.000000     -0.000000     -0.000000


--------------------------------------------------------------------------------------------------------



  FREE ENERGIE OF THE ION-ELECTRON SYSTEM (eV)
  ---------------------------------------------------
  free  energy   TOTEN  =      -357.80663487 eV

  energy  without entropy=     -357.82777776  energy(sigma->0) =     -357.81368250
 


--------------------------------------------------------------------------------------------------------


    POTLOK:  cpu time    0.5470: real time    0.5471


--------------------------------------------------------------------------------------------------------


     LOOP+:  cpu time  614.8422: real time  619.3993
    4ORBIT:  cpu time    0.0000: real time    0.0000
 


 total charge     
 
# of ion       s       p       d       tot
------------------------------------------
    1        0.404   0.428   0.000   0.831
    2        0.404   0.428   0.000   0.831
    3        0.404   0.428   0.000   0.831
    4        0.404   0.428   0.000   0.831
    5        0.404   0.428   0.000   0.831
    6        0.404   0.428   0.000   0.831
    7        0.404   0.428   0.000   0.831
    8        0.404   0.428   0.000   0.831
    9        0.404   0.428   0.000   0.831
   10        0.404   0.428   0.000   0.831
   11        0.404   0.428   0.000   0.831
   12        0.404   0.428   0.000   0.831
   13        0.404   0.428   0.000   0.831
   14        0.404   0.428   0.000   0.831
   15        0.404   0.428   0.000   0.831
   16        0.404   0.428   0.000   0.831
   17        0.404   0.428   0.000   0.831
   18        0.404   0.428   0.000   0.831
   19        0.404   0.428   0.000   0.831
   20        0.404   0.428   0.000   0.831
   21        0.404   0.428   0.000   0.831
   22        0.404   0.428   0.000   0.831
   23        0.404   0.428   0.000   0.831
   24        0.404   0.428   0.000   0.831
   25        0.404   0.428   0.000   0.831
   26        0.404   0.428   0.000   0.831
   27        0.404   0.428   0.000   0.831
   28        0.332   0.349   5.142   5.824
   29        0.332   0.349   5.142   5.824
   30        0.332   0.349   5.142   5.824
   31        0.332   0.349   5.142   5.824
   32        0.332   0.349   5.142   5.824
   33        0.332   0.349   5.142   5.824
   34        0.332   0.349   5.142   5.824
   35        0.332   0.349   5.142   5.824
   36        0.332   0.349   5.142   5.824
   37        0.332   0.349   5.142   5.824
   38        0.332   0.349   5.142   5.824
   39        0.332   0.349   5.142   5.824
   40        0.332   0.349   5.142   5.824
   41        0.332   0.349   5.142   5.824
   42        0.332   0.349   5.142   5.824
   43        0.332   0.349   5.142   5.824
   44        0.332   0.349   5.142   5.824
   45        0.332   0.349   5.142   5.824
   46        0.332   0.349   5.142   5.824
   47        0.332   0.349   5.142   5.824
   48        0.332   0.349   5.142   5.824
   49        0.332   0.349   5.142   5.824
   50        0.332   0.349   5.142   5.824
   51        0.332   0.349   5.142   5.824
   52        0.332   0.349   5.142   5.824
   53        0.332   0.349   5.142   5.824
   54        0.332   0.349   5.142   5.824
--------------------------------------------------
tot         19.880  20.980 138.829 179.689
 


 magnetization (x)
 
# of ion       s       p       d       tot
------------------------------------------
    1        0.021   0.036   0.000   0.057
    2        0.021   0.036   0.000   0.057
    3        0.021   0.036   0.000   0.057
    4        0.021   0.036   0.000   0.057
    5        0.021   0.036   0.000   0.057
    6        0.021   0.036   0.000   0.057
    7        0.021   0.036   0.000   0.057
    8        0.021   0.036   0.000   0.057
    9        0.021   0.036   0.000   0.057
   10        0.021   0.036   0.000   0.057
   11        0.021   0.036   0.000   0.057
   12        0.021   0.036   0.000   0.057
   13        0.021   0.036   0.000   0.057
   14        0.021   0.036   0.000   0.057
   15        0.021   0.036   0.000   0.057
   16        0.021   0.036   0.000   0.057
   17        0.021   0.036   0.000   0.057
   18        0.021   0.036   0.000   0.057
   19        0.021   0.036   0.000   0.057
   20        0.021   0.036   0.000   0.057
   21        0.021   0.036   0.000   0.057
   22        0.021   0.036   0.000   0.057
   23        0.021   0.036   0.000   0.057
   24        0.021   0.036   0.000   0.057
   25        0.021   0.036   0.000   0.057
   26        0.021   0.036   0.000   0.057
   27        0.021   0.036   0.000   0.057
   28       -0.018  -0.021  -2.308  -2.346
   29       -0.018  -0.021  -2.308  -2.346
   30       -0.018  -0.021  -2.308  -2.346
   31       -0.018  -0.021  -2.308  -2.346
   32       -0.018  -0.021  -2.308  -2.346
   33       -0.018  -0.021  -2.308  -2.346
   34       -0.018  -0.021  -2.308  -2.346
   35       -0.018  -0.021  -2.308  -2.346
   36       -0.018  -0.021  -2.308  -2.346
   37       -0.018  -0.021  -2.308  -2.346
   38       -0.018  -0.021  -2.308  -2.346
   39       -0.018  -0.021  -2.308  -2.346
   40       -0.018  -0.021  -2.308  -2.346
   41       -0.018  -0.021  -2.308  -2.346
   42       -0.018  -0.021  -2.308  -2.346
   43       -0.018  -0.021  -2.308  -2.346
   44       -0.018  -0.021  -2.308  -2.346
   45       -0.018  -0.021  -2.308  -2.346
   46       -0.018  -0.021  -2.308  -2.346
   47       -0.018  -0.021  -2.308  -2.346
   48       -0.018  -0.021  -2.308  -2.346
   49       -0.018  -0.021  -2.308  -2.346
   50       -0.018  -0.021  -2.308  -2.346
   51       -0.018  -0.021  -2.308  -2.346
   52       -0.018  -0.021  -2.308  -2.346
   53       -0.018  -0.021  -2.308  -2.346
   54       -0.018  -0.021  -2.308  -2.346
--------------------------------------------------
tot          0.083   0.411 -62.309 -61.815
 

 total amount of memory used by VASP MPI-rank0   489552. kBytes
=======================================================================

   base      :      30000. kBytes
   nonl-proj :      19958. kBytes
   fftplans  :      16955. kBytes
   grid      :      12821. kBytes
   one-center:        435. kBytes
   wavefun   :     409383. kBytes
 
  
  
 General timing and accounting informations for this job:
 ========================================================
  
                  Total CPU time used (sec):      646.394
                            User time (sec):      627.856
                          System time (sec):       18.538
                         Elapsed time (sec):      654.584
  
                   Maximum memory used (kb):      676592.
                   Average memory used (kb):           0.
  
                          Minor page faults:       228016
                          Major page faults:           18
                 Voluntary context switches:         2020
