 vasp.5.4.4.18Apr17-6-g9f103f2a35 (build Dec 20 2018 12:05:58) complex          
  
 executed on             LinuxIFC date 2019.06.21  00:42:31
 running on   32 total cores
 distrk:  each k-point on    8 cores,    4 groups
 distr:  one band on NCORES_PER_BAND=   4 cores,    2 groups


--------------------------------------------------------------------------------------------------------


 INCAR:
 POTCAR:    PAW_PBE Al 04Jan2001                  
 POTCAR:    PAW_PBE Mn 06Sep2000                  

 ----------------------------------------------------------------------------- 
|                                                                             |
|           W    W    AA    RRRRR   N    N  II  N    N   GGGG   !!!           |
|           W    W   A  A   R    R  NN   N  II  NN   N  G    G  !!!           |
|           W    W  A    A  R    R  N N  N  II  N N  N  G       !!!           |
|           W WW W  AAAAAA  RRRRR   N  N N  II  N  N N  G  GGG   !            |
|           WW  WW  A    A  R   R   N   NN  II  N   NN  G    G                |
|           W    W  A    A  R    R  N    N  II  N    N   GGGG   !!!           |
|                                                                             |
|      You have enabled k-point parallelism (KPAR>1).                         |
|      This developmental code was originally  written by Paul Kent at ORNL,  |
|      and carefully double checked in Vienna.                                |
|      GW as well as linear response parallelism added by Martijn Marsman     |
|      and Georg Kresse.                                                      |
|      Carefully verify results versus KPAR=1.                                |
|      Report problems to Paul Kent and Vienna.                               |
|                                                                             |
 ----------------------------------------------------------------------------- 

 POTCAR:    PAW_PBE Al 04Jan2001                  
   VRHFIN =Al: s2p1                                                             
   LEXCH  = PE                                                                  
   EATOM  =    53.5387 eV,    3.9350 Ry                                         
                                                                                
   TITEL  = PAW_PBE Al 04Jan2001                                                
   LULTRA =        F    use ultrasoft PP ?                                      
   IUNSCR =        1    unscreen: 0-lin 1-nonlin 2-no                           
   RPACOR =    1.500    partial core radius                                     
   POMASS =   26.981; ZVAL   =    3.000    mass and valenz                      
   RCORE  =    1.900    outmost cutoff radius                                   
   RWIGS  =    2.650; RWIGS  =    1.402    wigner-seitz radius (au A)           
   ENMAX  =  240.300; ENMIN  =  180.225 eV                                      
   ICORE  =        2    local potential                                         
   LCOR   =        T    correct aug charges                                     
   LPAW   =        T    paw PP                                                  
   EAUG   =  291.052                                                            
   DEXC   =    0.000                                                            
   RMAX   =    1.939    core radius for proj-oper                               
   RAUG   =    1.300    factor for augmentation sphere                          
   RDEP   =    1.966    radius for radial grids                                 
   RDEPT  =    1.856    core radius for aug-charge                              
                                                                                
   Atomic configuration                                                         
    6 entries                                                                   
     n  l   j            E        occ.                                          
     1  0  0.50     -1511.1048   2.0000                                         
     2  0  0.50      -108.1629   2.0000                                         
     2  1  1.50       -69.6402   6.0000                                         
     3  0  0.50        -7.7528   2.0000                                         
     3  1  1.50        -2.7121   1.0000                                         
     3  2  2.50        -2.7212   0.0000                                         
   Description                                                                  
     l       E           TYP  RCUT    TYP  RCUT                                 
     0     -7.7528455     23  1.900                                             
     0     -3.3096929     23  1.900                                             
     1     -2.7120682     23  1.900                                             
     1     13.6058260     23  1.900                                             
     2     -2.7211652      7  1.900                                             
  local pseudopotential read in
  partial core-charges read in
  partial kinetic energy density read in
  atomic valenz-charges read in
  non local Contribution for L=           0  read in
    real space projection operators read in
  non local Contribution for L=           0  read in
    real space projection operators read in
  non local Contribution for L=           1  read in
    real space projection operators read in
  non local Contribution for L=           1  read in
    real space projection operators read in
    PAW grid and wavefunctions read in
 
   number of l-projection  operators is LMAX  =           4
   number of lm-projection operators is LMMAX =           8
 
 POTCAR:    PAW_PBE Mn 06Sep2000                  
   VRHFIN =Mn: d6 s1                                                            
   LEXCH  = PE                                                                  
   EATOM  =   416.7541 eV,   30.6306 Ry                                         
                                                                                
   TITEL  = PAW_PBE Mn 06Sep2000                                                
   LULTRA =        F    use ultrasoft PP ?                                      
   IUNSCR =        1    unscreen: 0-lin 1-nonlin 2-no                           
   RPACOR =    2.000    partial core radius                                     
   POMASS =   54.938; ZVAL   =    7.000    mass and valenz                      
   RCORE  =    2.300    outmost cutoff radius                                   
   RWIGS  =    2.500; RWIGS  =    1.323    wigner-seitz radius (au A)           
   ENMAX  =  269.864; ENMIN  =  202.398 eV                                      
   RCLOC  =    1.725    cutoff for local pot                                    
   LCOR   =        T    correct aug charges                                     
   LPAW   =        T    paw PP                                                  
   EAUG   =  500.711                                                            
   DEXC   =    0.000                                                            
   RMAX   =    2.343    core radius for proj-oper                               
   RAUG   =    1.300    factor for augmentation sphere                          
   RDEP   =    2.338    radius for radial grids                                 
   RDEPT  =    1.911    core radius for aug-charge                              
                                                                                
   Atomic configuration                                                         
    9 entries                                                                   
     n  l   j            E        occ.                                          
     1  0  0.50     -6424.8288   2.0000                                         
     2  0  0.50      -739.1154   2.0000                                         
     2  1  1.50      -625.3949   6.0000                                         
     3  0  0.50       -81.6100   2.0000                                         
     3  1  1.50       -50.4667   6.0000                                         
     3  2  2.50        -3.3745   6.0000                                         
     4  0  0.50        -4.1331   1.0000                                         
     4  1  0.50        -4.0817   0.0000                                         
     4  3  2.50        -1.3606   0.0000                                         
   Description                                                                  
     l       E           TYP  RCUT    TYP  RCUT                                 
     2     -3.3744664     23  2.300                                             
     2     -4.7350490     23  2.300                                             
     0     -4.1331408     23  2.300                                             
     0      7.6656614     23  2.300                                             
     1     -2.7211652     23  2.300                                             
     1     20.4087390     23  2.300                                             
  local pseudopotential read in
  partial core-charges read in
  partial kinetic energy density read in
  atomic valenz-charges read in
  non local Contribution for L=           2  read in
    real space projection operators read in
  non local Contribution for L=           2  read in
    real space projection operators read in
  non local Contribution for L=           0  read in
    real space projection operators read in
  non local Contribution for L=           0  read in
    real space projection operators read in
  non local Contribution for L=           1  read in
    real space projection operators read in
  non local Contribution for L=           1  read in
    real space projection operators read in
    PAW grid and wavefunctions read in
 
   number of l-projection  operators is LMAX  =           6
   number of lm-projection operators is LMMAX =          18
 

 ----------------------------------------------------------------------------- 
|                                                                             |
|  ADVICE TO THIS USER RUNNING 'VASP/VAMP'   (HEAR YOUR MASTER'S VOICE ...):  |
|                                                                             |
|      You have a (more or less) 'large supercell' and for larger cells       |
|      it might be more efficient to use real space projection opertators     |
|      So try LREAL= Auto  in the INCAR   file.                               |
|      Mind:          For very  accurate calculation you might also keep the  |
|      reciprocal projection scheme          (i.e. LREAL=.FALSE.)             |
|                                                                             |
 ----------------------------------------------------------------------------- 

  PAW_PBE Al 04Jan2001                  :
 energy of atom  1       EATOM=  -53.5387
 kinetic energy error for atom=    0.0005 (will be added to EATOM!!)
  PAW_PBE Mn 06Sep2000                  :
 energy of atom  2       EATOM= -416.7541
 kinetic energy error for atom=    0.0080 (will be added to EATOM!!)
 
 
 POSCAR: NewRef: 27, @ ['Mn', array([1.37502469, 
  positions in cartesian coordinates
  velocities in cartesian coordinates
  No initial velocities read in
 exchange correlation table for  LEXCH =        8
   RHO(1)=    0.500       N(1)  =     2000
   RHO(2)=  100.500       N(2)  =     4000
 


--------------------------------------------------------------------------------------------------------


 ion  position               nearest neighbor table
   1  0.000  0.000  0.000-  28 2.61  30 2.61  34 2.61  36 2.61  46 2.61  48 2.61  52 2.61  54 2.61
                             4 2.75  10 2.75   7 2.75  19 2.75
   2  0.000  0.000  0.333-  28 2.61  34 2.61  46 2.61  52 2.61  29 2.61  47 2.61  35 2.61  53 2.61
                             5 2.75  11 2.75   8 2.75  20 2.75
   3  0.000  0.000  0.667-  29 2.61  35 2.61  47 2.61  53 2.61  30 2.61  48 2.61  36 2.61  54 2.61
                             6 2.75  12 2.75   9 2.75  21 2.75
   4  0.000  0.333  0.000-  28 2.61  30 2.61  46 2.61  48 2.61  31 2.61  33 2.61  49 2.61  51 2.61
                            13 2.75   1 2.75   7 2.75  22 2.75
   5  0.000  0.333  0.333-  28 2.61  46 2.61  31 2.61  49 2.61  47 2.61  29 2.61  32 2.61  50 2.61
                            14 2.75   2 2.75   8 2.75  23 2.75
   6  0.000  0.333  0.667-  29 2.61  47 2.61  32 2.61  50 2.61  48 2.61  30 2.61  33 2.61  51 2.61
                            15 2.75   3 2.75   9 2.75  24 2.75
   7  0.000  0.667  0.000-  31 2.61  33 2.61  49 2.61  51 2.61  34 2.61  36 2.61  52 2.61  54 2.61
                             4 2.75  16 2.75   1 2.75  25 2.75
   8  0.000  0.667  0.333-  31 2.61  49 2.61  34 2.61  52 2.61  50 2.61  32 2.61  35 2.61  53 2.61
                             5 2.75  17 2.75   2 2.75  26 2.75
   9  0.000  0.667  0.667-  32 2.61  50 2.61  35 2.61  53 2.61  51 2.61  33 2.61  36 2.61  54 2.61
                             6 2.75  18 2.75   3 2.75  27 2.75
  10  0.333  0.000  0.000-  28 2.61  30 2.61  34 2.61  36 2.61  37 2.61  39 2.61  43 2.61  45 2.61
                            19 2.75   1 2.75  13 2.75  16 2.75
  11  0.333  0.000  0.333-  28 2.61  34 2.61  37 2.61  43 2.61  29 2.61  35 2.61  38 2.61  44 2.61
                            20 2.75   2 2.75  14 2.75  17 2.75
  12  0.333  0.000  0.667-  29 2.61  35 2.61  38 2.61  44 2.61  30 2.61  36 2.61  39 2.61  45 2.61
                            21 2.75   3 2.75  15 2.75  18 2.75
  13  0.333  0.333  0.000-  28 2.61  30 2.61  31 2.61  33 2.61  37 2.61  39 2.61  40 2.61  42 2.61
                             4 2.75  10 2.75  16 2.75  22 2.75
  14  0.333  0.333  0.333-  28 2.61  31 2.61  37 2.61  29 2.61  40 2.61  38 2.61  32 2.61  41 2.61
                             5 2.75  11 2.75  17 2.75  23 2.75
  15  0.333  0.333  0.667-  29 2.61  32 2.61  38 2.61  30 2.61  41 2.61  39 2.61  33 2.61  42 2.61
                             6 2.75  12 2.75  18 2.75  24 2.75
  16  0.333  0.667  0.000-  31 2.61  33 2.61  34 2.61  36 2.61  40 2.61  42 2.61  43 2.61  45 2.61
                            25 2.75   7 2.75  13 2.75  10 2.75
  17  0.333  0.667  0.333-  31 2.61  34 2.61  40 2.61  32 2.61  43 2.61  41 2.61  35 2.61  44 2.61
                            26 2.75   8 2.75  14 2.75  11 2.75
  18  0.333  0.667  0.667-  32 2.61  35 2.61  41 2.61  33 2.61  44 2.61  42 2.61  36 2.61  45 2.61
                            27 2.75   9 2.75  15 2.75  12 2.75
  19  0.667  0.000  0.000-  37 2.61  39 2.61  43 2.61  45 2.61  46 2.61  48 2.61  52 2.61  54 2.61
                            10 2.75  22 2.75   1 2.75  25 2.75
  20  0.667  0.000  0.333-  37 2.61  43 2.61  46 2.61  52 2.61  38 2.61  44 2.61  47 2.61  53 2.61
                            11 2.75  23 2.75   2 2.75  26 2.75
  21  0.667  0.000  0.667-  38 2.61  44 2.61  47 2.61  53 2.61  39 2.61  45 2.61  48 2.61  54 2.61
                            12 2.75  24 2.75   3 2.75  27 2.75
  22  0.667  0.333  0.000-  37 2.61  39 2.61  40 2.61  42 2.61  46 2.61  48 2.61  49 2.61  51 2.61
                            25 2.75  13 2.75  19 2.75   4 2.75
  23  0.667  0.333  0.333-  37 2.61  40 2.61  46 2.61  38 2.61  49 2.61  47 2.61  41 2.61  50 2.61
                            26 2.75  14 2.75  20 2.75   5 2.75
  24  0.667  0.333  0.667-  38 2.61  41 2.61  47 2.61  39 2.61  50 2.61  48 2.61  42 2.61  51 2.61
                            27 2.75  15 2.75  21 2.75   6 2.75
  25  0.667  0.667  0.000-  40 2.61  42 2.61  43 2.61  45 2.61  49 2.61  51 2.61  52 2.61  54 2.61
                            16 2.75  22 2.75  19 2.75   7 2.75
  26  0.667  0.667  0.333-  40 2.61  43 2.61  49 2.61  41 2.61  52 2.61  50 2.61  44 2.61  53 2.61
                            17 2.75  23 2.75  20 2.75   8 2.75
  27  0.667  0.667  0.667-  41 2.61  44 2.61  50 2.61  42 2.61  53 2.61  51 2.61  45 2.61  54 2.61
                            18 2.75  24 2.75  21 2.75   9 2.75
  28  0.167  0.167  0.167-  14 2.61  11 2.61   5 2.61  13 2.61   2 2.61  10 2.61   4 2.61   1 2.61
                            31 2.75  37 2.75  34 2.75  46 2.75
  29  0.167  0.167  0.500-  15 2.61  12 2.61   6 2.61  14 2.61   3 2.61  11 2.61   5 2.61   2 2.61
                            32 2.75  38 2.75  35 2.75  47 2.75
  30  0.167  0.167  0.833-  13 2.61  15 2.61  10 2.61  12 2.61   4 2.61   6 2.61   1 2.61   3 2.61
                            33 2.75  39 2.75  36 2.75  48 2.75
  31  0.167  0.500  0.167-  17 2.61  14 2.61   8 2.61  16 2.61   5 2.61  13 2.61   7 2.61   4 2.61
                            28 2.75  34 2.75  40 2.75  49 2.75
  32  0.167  0.500  0.500-  18 2.61  15 2.61   9 2.61  17 2.61   6 2.61  14 2.61   8 2.61   5 2.61
                            29 2.75  35 2.75  41 2.75  50 2.75
  33  0.167  0.500  0.833-  16 2.61  18 2.61  13 2.61  15 2.61   7 2.61   9 2.61   4 2.61   6 2.61
                            30 2.75  36 2.75  42 2.75  51 2.75
  34  0.167  0.833  0.167-  11 2.61  17 2.61   2 2.61   8 2.61  16 2.61  10 2.61   7 2.61   1 2.61
                            31 2.75  43 2.75  28 2.75  52 2.75
  35  0.167  0.833  0.500-  12 2.61  18 2.61   3 2.61   9 2.61  17 2.61  11 2.61   8 2.61   2 2.61
                            32 2.75  44 2.75  29 2.75  53 2.75
  36  0.167  0.833  0.833-  10 2.61  12 2.61  16 2.61  18 2.61   1 2.61   3 2.61   7 2.61   9 2.61
                            33 2.75  45 2.75  30 2.75  54 2.75
  37  0.500  0.167  0.167-  23 2.61  20 2.61  14 2.61  22 2.61  11 2.61  19 2.61  13 2.61  10 2.61
                            28 2.75  40 2.75  46 2.75  43 2.75
  38  0.500  0.167  0.500-  24 2.61  21 2.61  15 2.61  23 2.61  12 2.61  20 2.61  14 2.61  11 2.61
                            29 2.75  41 2.75  47 2.75  44 2.75
  39  0.500  0.167  0.833-  22 2.61  24 2.61  19 2.61  21 2.61  13 2.61  15 2.61  10 2.61  12 2.61
                            30 2.75  42 2.75  48 2.75  45 2.75
  40  0.500  0.500  0.167-  26 2.61  23 2.61  17 2.61  25 2.61  14 2.61  22 2.61  16 2.61  13 2.61
                            31 2.75  37 2.75  43 2.75  49 2.75
  41  0.500  0.500  0.500-  27 2.61  24 2.61  18 2.61  26 2.61  15 2.61  23 2.61  17 2.61  14 2.61
                            32 2.75  38 2.75  44 2.75  50 2.75
  42  0.500  0.500  0.833-  25 2.61  27 2.61  22 2.61  24 2.61  16 2.61  18 2.61  13 2.61  15 2.61
                            33 2.75  39 2.75  45 2.75  51 2.75
  43  0.500  0.833  0.167-  20 2.61  26 2.61  11 2.61  17 2.61  25 2.61  19 2.61  16 2.61  10 2.61
                            34 2.75  40 2.75  52 2.75  37 2.75
  44  0.500  0.833  0.500-  21 2.61  27 2.61  12 2.61  18 2.61  26 2.61  20 2.61  17 2.61  11 2.61
                            35 2.75  41 2.75  53 2.75  38 2.75
  45  0.500  0.833  0.833-  19 2.61  21 2.61  25 2.61  27 2.61  10 2.61  12 2.61  16 2.61  18 2.61
                            36 2.75  42 2.75  54 2.75  39 2.75
  46  0.833  0.167  0.167-   5 2.61  23 2.61  20 2.61   2 2.61  22 2.61   4 2.61  19 2.61   1 2.61
                            37 2.75  49 2.75  28 2.75  52 2.75
  47  0.833  0.167  0.500-   6 2.61  24 2.61  21 2.61   3 2.61  23 2.61   5 2.61  20 2.61   2 2.61
                            38 2.75  50 2.75  29 2.75  53 2.75
  48  0.833  0.167  0.833-   4 2.61   6 2.61  22 2.61  24 2.61  19 2.61  21 2.61   1 2.61   3 2.61
                            39 2.75  51 2.75  30 2.75  54 2.75
  49  0.833  0.500  0.167-   8 2.61  26 2.61  23 2.61   5 2.61  25 2.61   7 2.61  22 2.61   4 2.61
                            40 2.75  46 2.75  52 2.75  31 2.75
  50  0.833  0.500  0.500-   9 2.61  27 2.61  24 2.61   6 2.61  26 2.61   8 2.61  23 2.61   5 2.61
                            41 2.75  47 2.75  53 2.75  32 2.75
  51  0.833  0.500  0.833-   7 2.61   9 2.61  25 2.61  27 2.61  22 2.61  24 2.61   4 2.61   6 2.61
                            42 2.75  48 2.75  54 2.75  33 2.75
  52  0.833  0.833  0.167-   2 2.61   8 2.61  20 2.61  26 2.61  19 2.61   7 2.61  25 2.61   1 2.61
                            43 2.75  49 2.75  46 2.75  34 2.75
  53  0.833  0.833  0.500-   3 2.61   9 2.61  21 2.61  27 2.61  20 2.61   8 2.61  26 2.61   2 2.61
                            44 2.75  50 2.75  47 2.75  35 2.75
  54  0.833  0.833  0.833-   1 2.61   3 2.61   7 2.61   9 2.61  19 2.61  21 2.61  25 2.61  27 2.61
                            45 2.75  51 2.75  48 2.75  36 2.75
 
  LATTYP: Found a simple tetragonal cell.
 ALAT       =     8.2501481662
 C/A-ratio  =     1.2642089792
  
  Lattice vectors:
  
 A1 = (   8.2501481662,   0.0000000000,   0.0000000000)
 A2 = (   0.0000000000,   8.2501481662,   0.0000000000)
 A3 = (   0.0000000000,   0.0000000000,  10.4299113916)


Analysis of symmetry for initial positions (statically):
=====================================================================
 Subroutine PRICEL returns following result:
 
  LATTYP: Found a simple tetragonal cell.
 ALAT       =     2.7500493888
 C/A-ratio  =     1.2642089792
  
  Lattice vectors:
  
 A1 = (   2.7500493888,   0.0000000000,   0.0000000000)
 A2 = (   0.0000000000,   2.7500493888,   0.0000000000)
 A3 = (   0.0000000000,   0.0000000000,   3.4766371306)
 
  27 primitive cells build up your supercell.
 

 Routine SETGRP: Setting up the symmetry group for a 
 simple tetragonal supercell.


 Subroutine GETGRP returns: Found 16 space group operations
 (whereof 16 operations were pure point group operations)
 out of a pool of 16 trial point group operations.


The static configuration has the point symmetry D_4h.


Analysis of symmetry for dynamics (positions and initial velocities):
=====================================================================
 Subroutine PRICEL returns following result:
 
  LATTYP: Found a simple tetragonal cell.
 ALAT       =     2.7500493888
 C/A-ratio  =     1.2642089792
  
  Lattice vectors:
  
 A1 = (   2.7500493888,   0.0000000000,   0.0000000000)
 A2 = (   0.0000000000,   2.7500493888,   0.0000000000)
 A3 = (   0.0000000000,   0.0000000000,   3.4766371306)
 
  27 primitive cells build up your supercell.
 

 Routine SETGRP: Setting up the symmetry group for a 
 simple tetragonal supercell.


 Subroutine GETGRP returns: Found 16 space group operations
 (whereof 16 operations were pure point group operations)
 out of a pool of 16 trial point group operations.


The dynamic configuration has the point symmetry D_4h.


Analysis of structural, dynamic, and magnetic symmetry:
=====================================================================
 Subroutine PRICEL returns:
 Original cell was already a primitive cell.
 

 Routine SETGRP: Setting up the symmetry group for a 
 simple tetragonal supercell.


 Subroutine GETGRP returns: Found  2 space group operations
 (whereof  1 operations were pure point group operations)
 out of a pool of 16 trial point group operations.


The magnetic configuration has the point symmetry C_1 .
 The point group associated with its full space group is C_1h.


 Subroutine INISYM returns: Found  2 space group operations
 (whereof  1 operations are pure point group operations),
 and found     1 'primitive' translations

 
 
 KPOINTS: automatic KPOINTS                       

Automatic generation of k-mesh.
 generate k-points for:    5    5    4
Space group operators:
 irot       det(A)        alpha          n_x          n_y          n_z        tau_x        tau_y        tau_z
    1     1.000000     0.000001     1.000000     0.000000     0.000000     0.000000     0.000000     0.000000
    2    -1.000000   180.000000     1.000000     0.000000     0.000000     0.666667     0.000000     0.000000
 
 Subroutine IBZKPT returns following result:
 ===========================================
 
 Found     33 irreducible k-points:
 
 Following reciprocal coordinates:
            Coordinates               Weight
  0.000000  0.000000  0.000000      1.000000
  0.200000  0.000000  0.000000      2.000000
  0.400000  0.000000  0.000000      2.000000
  0.000000  0.200000  0.000000      2.000000
  0.200000  0.200000  0.000000      4.000000
  0.400000  0.200000  0.000000      4.000000
  0.000000  0.400000  0.000000      2.000000
  0.200000  0.400000  0.000000      4.000000
  0.400000  0.400000  0.000000      4.000000
  0.000000  0.000000  0.250000      2.000000
  0.200000  0.000000  0.250000      4.000000
  0.400000  0.000000  0.250000      4.000000
  0.000000  0.200000  0.250000      2.000000
  0.200000  0.200000  0.250000      4.000000
  0.400000  0.200000  0.250000      4.000000
  0.000000  0.400000  0.250000      2.000000
  0.200000  0.400000  0.250000      4.000000
  0.400000  0.400000  0.250000      4.000000
  0.000000 -0.400000  0.250000      2.000000
  0.200000 -0.400000  0.250000      4.000000
  0.400000 -0.400000  0.250000      4.000000
  0.000000 -0.200000  0.250000      2.000000
  0.200000 -0.200000  0.250000      4.000000
  0.400000 -0.200000  0.250000      4.000000
  0.000000  0.000000  0.500000      1.000000
  0.200000  0.000000  0.500000      2.000000
  0.400000  0.000000  0.500000      2.000000
  0.000000  0.200000  0.500000      2.000000
  0.200000  0.200000  0.500000      4.000000
  0.400000  0.200000  0.500000      4.000000
  0.000000  0.400000  0.500000      2.000000
  0.200000  0.400000  0.500000      4.000000
  0.400000  0.400000  0.500000      4.000000
 
 Following cartesian coordinates:
            Coordinates               Weight
  0.000000  0.000000  0.000000      1.000000
  0.024242  0.000000  0.000000      2.000000
  0.048484  0.000000  0.000000      2.000000
  0.000000  0.024242  0.000000      2.000000
  0.024242  0.024242  0.000000      4.000000
  0.048484  0.024242  0.000000      4.000000
  0.000000  0.048484  0.000000      2.000000
  0.024242  0.048484  0.000000      4.000000
  0.048484  0.048484  0.000000      4.000000
  0.000000  0.000000  0.023970      2.000000
  0.024242  0.000000  0.023970      4.000000
  0.048484  0.000000  0.023970      4.000000
  0.000000  0.024242  0.023970      2.000000
  0.024242  0.024242  0.023970      4.000000
  0.048484  0.024242  0.023970      4.000000
  0.000000  0.048484  0.023970      2.000000
  0.024242  0.048484  0.023970      4.000000
  0.048484  0.048484  0.023970      4.000000
  0.000000 -0.048484  0.023970      2.000000
  0.024242 -0.048484  0.023970      4.000000
  0.048484 -0.048484  0.023970      4.000000
  0.000000 -0.024242  0.023970      2.000000
  0.024242 -0.024242  0.023970      4.000000
  0.048484 -0.024242  0.023970      4.000000
  0.000000  0.000000  0.047939      1.000000
  0.024242  0.000000  0.047939      2.000000
  0.048484  0.000000  0.047939      2.000000
  0.000000  0.024242  0.047939      2.000000
  0.024242  0.024242  0.047939      4.000000
  0.048484  0.024242  0.047939      4.000000
  0.000000  0.048484  0.047939      2.000000
  0.024242  0.048484  0.047939      4.000000
  0.048484  0.048484  0.047939      4.000000
 


--------------------------------------------------------------------------------------------------------




 Dimension of arrays:
   k-points           NKPTS =     33   k-points in BZ     NKDIM =     33   number of bands    NBANDS=    150
   number of dos      NEDOS =    301   number of ions     NIONS =     54
   non local maximal  LDIM  =      6   non local SUM 2l+1 LMDIM =     18
   total plane-waves  NPLWV = 204120
   max r-space proj   IRMAX =      1   max aug-charges    IRDMAX=  89713
   dimension x,y,z NGX =    54 NGY =   54 NGZ =   70
   dimension x,y,z NGXF=   108 NGYF=  108 NGZF=  140
   support grid    NGXF=   216 NGYF=  216 NGZF=  280
   ions per type =              27  27
   NGX,Y,Z   is equivalent  to a cutoff of  10.88, 10.88, 11.16 a.u.
   NGXF,Y,Z  is equivalent  to a cutoff of  21.76, 21.76, 22.32 a.u.

 SYSTEM =  AlMn_pv                                 
 POSCAR =  NewRef: 27, @ ['Mn', array([1.37502469, 

 Startparameter for this run:
   NWRITE =      2    write-flag & timer
   PREC   = accura    normal or accurate (medium, high low for compatibility)
   ISTART =      0    job   : 0-new  1-cont  2-samecut
   ICHARG =      2    charge: 1-file 2-atom 10-const
   ISPIN  =      2    spin polarized calculation?
   LNONCOLLINEAR =      F non collinear calculations
   LSORBIT =      F    spin-orbit coupling
   INIWAV =      1    electr: 0-lowe 1-rand  2-diag
   LASPH  =      F    aspherical Exc in radial PAW
   METAGGA=      F    non-selfconsistent MetaGGA calc.

 Electronic Relaxation 1
   ENCUT  =  404.8 eV  29.75 Ry    5.45 a.u.  13.53 13.53 17.11*2*pi/ulx,y,z
   ENINI  =  404.8     initial cutoff
   ENAUG  =  500.7 eV  augmentation charge cutoff
   NELM   =    100;   NELMIN=  4; NELMDL= -8     # of ELM steps 
   EDIFF  = 0.1E-06   stopping-criterion for ELM
   LREAL  =      F    real-space projection
   NLSPLINE    = F    spline interpolate recip. space projectors
   LCOMPAT=      F    compatible to vasp.4.4
   GGA_COMPAT  = T    GGA compatible to vasp.4.4-vasp.4.6
   LMAXPAW     = -100 max onsite density
   LMAXMIX     =    2 max onsite mixed and CHGCAR
   VOSKOWN=      0    Vosko Wilk Nusair interpolation
   ROPT   =    0.00000   0.00000
 Ionic relaxation
   EDIFFG = 0.1E-05   stopping-criterion for IOM
   NSW    =      0    number of steps for IOM
   NBLOCK =      1;   KBLOCK =      1    inner block; outer block 
   IBRION =     -1    ionic relax: 0-MD 1-quasi-New 2-CG
   NFREE  =      0    steps in history (QN), initial steepest desc. (CG)
   ISIF   =      2    stress and relaxation
   IWAVPR =     10    prediction:  0-non 1-charg 2-wave 3-comb
   ISYM   =      2    0-nonsym 1-usesym 2-fastsym
   LCORR  =      T    Harris-Foulkes like correction to forces

   POTIM  = 0.2000    time-step for ionic-motion
   TEIN   =    0.0    initial temperature
   TEBEG  =    0.0;   TEEND  =   0.0 temperature during run
   SMASS  =  -3.00    Nose mass-parameter (am)
   estimated Nose-frequenzy (Omega)   =  0.10E-29 period in steps =****** mass=  -0.156E-26a.u.
   SCALEE = 1.0000    scale energy and forces
   NPACO  =    256;   APACO  = 16.0  distance and # of slots for P.C.
   PSTRESS=    0.0 pullay stress

  Mass of Ions in am
   POMASS =  26.98 54.94
  Ionic Valenz
   ZVAL   =   3.00  7.00
  Atomic Wigner-Seitz radii
   RWIGS  =  -1.00 -1.00
  virtual crystal weights 
   VCA    =   1.00  1.00
   NELECT =     270.0000    total number of electrons
   NUPDOWN=      -1.0000    fix difference up-down

 DOS related values:
   EMIN   =  10.00;   EMAX   =-10.00  energy-range for DOS
   EFERMI =   0.00
   ISMEAR =     1;   SIGMA  =   0.20  broadening in eV -4-tet -1-fermi 0-gaus

 Electronic relaxation 2 (details)
   IALGO  =     58    algorithm
   LDIAG  =      T    sub-space diagonalisation (order eigenvalues)
   LSUBROT=      F    optimize rotation matrix (better conditioning)
   TURBO    =      0    0=normal 1=particle mesh
   IRESTART =      0    0=no restart 2=restart with 2 vectors
   NREBOOT  =      0    no. of reboots
   NMIN     =      0    reboot dimension
   EREF     =   0.00    reference energy to select bands
   IMIX   =      4    mixing-type and parameters
     AMIX     =   0.40;   BMIX     =  1.00
     AMIX_MAG =   1.60;   BMIX_MAG =  1.00
     AMIN     =   0.10
     WC   =   100.;   INIMIX=   1;  MIXPRE=   1;  MAXMIX= -45

 Intra band minimization:
   WEIMIN = 0.0000     energy-eigenvalue tresh-hold
   EBREAK =  0.17E-09  absolut break condition
   DEPER  =   0.30     relativ break condition  

   TIME   =   0.40     timestep for ELM

  volume/ion in A,a.u.               =      13.15        88.72
  Fermi-wavevector in a.u.,A,eV,Ry     =   1.186118  2.241439 19.141722  1.406877
  Thomas-Fermi vector in A             =   2.322298
 
 Write flags
   LWAVE        =      F    write WAVECAR
   LDOWNSAMPLE  =      F    k-point downsampling of WAVECAR
   LCHARG       =      F    write CHGCAR
   LVTOT        =      F    write LOCPOT, total local potential
   LVHAR        =      F    write LOCPOT, Hartree potential only
   LELF         =      F    write electronic localiz. function (ELF)
   LORBIT       =     10    0 simple, 1 ext, 2 COOP (PROOUT), +10 PAW based schemes


 Dipole corrections
   LMONO  =      F    monopole corrections only (constant potential shift)
   LDIPOL =      F    correct potential (dipole corrections)
   IDIPOL =      0    1-x, 2-y, 3-z, 4-all directions 
   EPSILON=  1.0000000 bulk dielectric constant

 Exchange correlation treatment:
   GGA     =    --    GGA type
   LEXCH   =     8    internal setting for exchange type
   VOSKOWN=      0    Vosko Wilk Nusair interpolation
   LHFCALC =     F    Hartree Fock is set to
   LHFONE  =     F    Hartree Fock one center treatment
   AEXX    =    0.0000 exact exchange contribution

 Linear response parameters
   LEPSILON=     F    determine dielectric tensor
   LRPA    =     F    only Hartree local field effects (RPA)
   LNABLA  =     F    use nabla operator in PAW spheres
   LVEL    =     F    velocity operator in full k-point grid
   LINTERFAST=   F  fast interpolation
   KINTER  =     0    interpolate to denser k-point grid
   CSHIFT  =0.1000    complex shift for real part using Kramers Kronig
   OMEGAMAX=  -1.0    maximum frequency
   DEG_THRESHOLD= 0.2000000E-02 threshold for treating states as degnerate
   RTIME   =   -0.100 relaxation time in fs
  (WPLASMAI=    0.000 imaginary part of plasma frequency in eV, 0.658/RTIME)
   DFIELD  = 0.0000000 0.0000000 0.0000000 field for delta impulse in time
 
 Orbital magnetization related:
   ORBITALMAG=     F  switch on orbital magnetization
   LCHIMAG   =     F  perturbation theory with respect to B field
   DQ        =  0.001000  dq finite difference perturbation B field
   LLRAUG    =     F  two centre corrections for induced B field



--------------------------------------------------------------------------------------------------------


 Static calculation
 charge density and potential will be updated during run
 spin polarized calculation
 Conjugate gradient for all bands (Freysoldt, et al. PRB 79, 241103 (2009))
 preconditioned conjugated gradient                                        
 perform sub-space diagonalisation
    before iterative eigenvector-optimisation
 modified Broyden-mixing scheme, WC =      100.0
 initial mixing is a Kerker type mixing with AMIX =  0.4000 and BMIX =      1.0000
 Hartree-type preconditioning will be used
 using additional bands           15
 reciprocal scheme for non local part
 use partial core corrections
 no Harris-corrections to forces 
 use gradient corrections 
 use of overlap-Matrix (Vanderbilt PP)
 Methfessel and Paxton  Order N= 1 SIGMA  =   0.20


--------------------------------------------------------------------------------------------------------


  energy-cutoff  :      404.80
  volume of cell :      709.91
      direct lattice vectors                 reciprocal lattice vectors
     8.250148166  0.000000000  0.000000000     0.121209944  0.000000000  0.000000000
     0.000000000  8.250148166  0.000000000     0.000000000  0.121209944  0.000000000
     0.000000000  0.000000000 10.429911392     0.000000000  0.000000000  0.095878092

  length of vectors
     8.250148166  8.250148166 10.429911392     0.121209944  0.121209944  0.095878092


 
 k-points in units of 2pi/SCALE and weight: automatic KPOINTS                       
   0.00000000  0.00000000  0.00000000       0.010
   0.02424199  0.00000000  0.00000000       0.020
   0.04848398  0.00000000  0.00000000       0.020
   0.00000000  0.02424199  0.00000000       0.020
   0.02424199  0.02424199  0.00000000       0.040
   0.04848398  0.02424199  0.00000000       0.040
   0.00000000  0.04848398  0.00000000       0.020
   0.02424199  0.04848398  0.00000000       0.040
   0.04848398  0.04848398  0.00000000       0.040
   0.00000000  0.00000000  0.02396952       0.020
   0.02424199  0.00000000  0.02396952       0.040
   0.04848398  0.00000000  0.02396952       0.040
   0.00000000  0.02424199  0.02396952       0.020
   0.02424199  0.02424199  0.02396952       0.040
   0.04848398  0.02424199  0.02396952       0.040
   0.00000000  0.04848398  0.02396952       0.020
   0.02424199  0.04848398  0.02396952       0.040
   0.04848398  0.04848398  0.02396952       0.040
   0.00000000 -0.04848398  0.02396952       0.020
   0.02424199 -0.04848398  0.02396952       0.040
   0.04848398 -0.04848398  0.02396952       0.040
   0.00000000 -0.02424199  0.02396952       0.020
   0.02424199 -0.02424199  0.02396952       0.040
   0.04848398 -0.02424199  0.02396952       0.040
   0.00000000  0.00000000  0.04793905       0.010
   0.02424199  0.00000000  0.04793905       0.020
   0.04848398  0.00000000  0.04793905       0.020
   0.00000000  0.02424199  0.04793905       0.020
   0.02424199  0.02424199  0.04793905       0.040
   0.04848398  0.02424199  0.04793905       0.040
   0.00000000  0.04848398  0.04793905       0.020
   0.02424199  0.04848398  0.04793905       0.040
   0.04848398  0.04848398  0.04793905       0.040
 
 k-points in reciprocal lattice and weights: automatic KPOINTS                       
   0.00000000  0.00000000  0.00000000       0.010
   0.20000000  0.00000000  0.00000000       0.020
   0.40000000  0.00000000  0.00000000       0.020
   0.00000000  0.20000000  0.00000000       0.020
   0.20000000  0.20000000  0.00000000       0.040
   0.40000000  0.20000000  0.00000000       0.040
   0.00000000  0.40000000  0.00000000       0.020
   0.20000000  0.40000000  0.00000000       0.040
   0.40000000  0.40000000  0.00000000       0.040
   0.00000000  0.00000000  0.25000000       0.020
   0.20000000  0.00000000  0.25000000       0.040
   0.40000000  0.00000000  0.25000000       0.040
   0.00000000  0.20000000  0.25000000       0.020
   0.20000000  0.20000000  0.25000000       0.040
   0.40000000  0.20000000  0.25000000       0.040
   0.00000000  0.40000000  0.25000000       0.020
   0.20000000  0.40000000  0.25000000       0.040
   0.40000000  0.40000000  0.25000000       0.040
   0.00000000 -0.40000000  0.25000000       0.020
   0.20000000 -0.40000000  0.25000000       0.040
   0.40000000 -0.40000000  0.25000000       0.040
   0.00000000 -0.20000000  0.25000000       0.020
   0.20000000 -0.20000000  0.25000000       0.040
   0.40000000 -0.20000000  0.25000000       0.040
   0.00000000  0.00000000  0.50000000       0.010
   0.20000000  0.00000000  0.50000000       0.020
   0.40000000  0.00000000  0.50000000       0.020
   0.00000000  0.20000000  0.50000000       0.020
   0.20000000  0.20000000  0.50000000       0.040
   0.40000000  0.20000000  0.50000000       0.040
   0.00000000  0.40000000  0.50000000       0.020
   0.20000000  0.40000000  0.50000000       0.040
   0.40000000  0.40000000  0.50000000       0.040
 
 position of ions in fractional coordinates (direct lattice) 
   0.00000000  0.00000000  0.00000000
   0.00000000  0.00000000  0.33333333
   0.00000000  0.00000000  0.66666667
   0.00000000  0.33333333  0.00000000
   0.00000000  0.33333333  0.33333333
   0.00000000  0.33333333  0.66666667
   0.00000000  0.66666667  0.00000000
   0.00000000  0.66666667  0.33333333
   0.00000000  0.66666667  0.66666667
   0.33333333  0.00000000  0.00000000
   0.33333333  0.00000000  0.33333333
   0.33333333  0.00000000  0.66666667
   0.33333333  0.33333333  0.00000000
   0.33333333  0.33333333  0.33333333
   0.33333333  0.33333333  0.66666667
   0.33333333  0.66666667  0.00000000
   0.33333333  0.66666667  0.33333333
   0.33333333  0.66666667  0.66666667
   0.66666667  0.00000000  0.00000000
   0.66666667  0.00000000  0.33333333
   0.66666667  0.00000000  0.66666667
   0.66666667  0.33333333  0.00000000
   0.66666667  0.33333333  0.33333333
   0.66666667  0.33333333  0.66666667
   0.66666667  0.66666667  0.00000000
   0.66666667  0.66666667  0.33333333
   0.66666667  0.66666667  0.66666667
   0.16666667  0.16666667  0.16666667
   0.16666667  0.16666667  0.50000000
   0.16666667  0.16666667  0.83333333
   0.16666667  0.50000000  0.16666667
   0.16666667  0.50000000  0.50000000
   0.16666667  0.50000000  0.83333333
   0.16666667  0.83333333  0.16666667
   0.16666667  0.83333333  0.50000000
   0.16666667  0.83333333  0.83333333
   0.50000000  0.16666667  0.16666667
   0.50000000  0.16666667  0.50000000
   0.50000000  0.16666667  0.83333333
   0.50000000  0.50000000  0.16666667
   0.50000000  0.50000000  0.50000000
   0.50000000  0.50000000  0.83333333
   0.50000000  0.83333333  0.16666667
   0.50000000  0.83333333  0.50000000
   0.50000000  0.83333333  0.83333333
   0.83333333  0.16666667  0.16666667
   0.83333333  0.16666667  0.50000000
   0.83333333  0.16666667  0.83333333
   0.83333333  0.50000000  0.16666667
   0.83333333  0.50000000  0.50000000
   0.83333333  0.50000000  0.83333333
   0.83333333  0.83333333  0.16666667
   0.83333333  0.83333333  0.50000000
   0.83333333  0.83333333  0.83333333
 
 position of ions in cartesian coordinates  (Angst):
   0.00000000  0.00000000  0.00000000
   0.00000000  0.00000000  3.47663713
   0.00000000  0.00000000  6.95327426
   0.00000000  2.75004939  0.00000000
   0.00000000  2.75004939  3.47663713
   0.00000000  2.75004939  6.95327426
   0.00000000  5.50009878  0.00000000
   0.00000000  5.50009878  3.47663713
   0.00000000  5.50009878  6.95327426
   2.75004939  0.00000000  0.00000000
   2.75004939  0.00000000  3.47663713
   2.75004939  0.00000000  6.95327426
   2.75004939  2.75004939  0.00000000
   2.75004939  2.75004939  3.47663713
   2.75004939  2.75004939  6.95327426
   2.75004939  5.50009878  0.00000000
   2.75004939  5.50009878  3.47663713
   2.75004939  5.50009878  6.95327426
   5.50009878  0.00000000  0.00000000
   5.50009878  0.00000000  3.47663713
   5.50009878  0.00000000  6.95327426
   5.50009878  2.75004939  0.00000000
   5.50009878  2.75004939  3.47663713
   5.50009878  2.75004939  6.95327426
   5.50009878  5.50009878  0.00000000
   5.50009878  5.50009878  3.47663713
   5.50009878  5.50009878  6.95327426
   1.37502469  1.37502469  1.73831857
   1.37502469  1.37502469  5.21495570
   1.37502469  1.37502469  8.69159283
   1.37502469  4.12507408  1.73831857
   1.37502469  4.12507408  5.21495570
   1.37502469  4.12507408  8.69159283
   1.37502469  6.87512347  1.73831857
   1.37502469  6.87512347  5.21495570
   1.37502469  6.87512347  8.69159283
   4.12507408  1.37502469  1.73831857
   4.12507408  1.37502469  5.21495570
   4.12507408  1.37502469  8.69159283
   4.12507408  4.12507408  1.73831857
   4.12507408  4.12507408  5.21495570
   4.12507408  4.12507408  8.69159283
   4.12507408  6.87512347  1.73831857
   4.12507408  6.87512347  5.21495570
   4.12507408  6.87512347  8.69159283
   6.87512347  1.37502469  1.73831857
   6.87512347  1.37502469  5.21495570
   6.87512347  1.37502469  8.69159283
   6.87512347  4.12507408  1.73831857
   6.87512347  4.12507408  5.21495570
   6.87512347  4.12507408  8.69159283
   6.87512347  6.87512347  1.73831857
   6.87512347  6.87512347  5.21495570
   6.87512347  6.87512347  8.69159283
 


--------------------------------------------------------------------------------------------------------


 k-point  1 :   0.0000 0.0000 0.0000  plane waves:   13099
 k-point  2 :   0.2000 0.0000 0.0000  plane waves:   13101
 k-point  3 :   0.4000 0.0000 0.0000  plane waves:   13111
 k-point  4 :   0.0000 0.2000 0.0000  plane waves:   13101
 k-point  5 :   0.2000 0.2000 0.0000  plane waves:   13137
 k-point  6 :   0.4000 0.2000 0.0000  plane waves:   13119
 k-point  7 :   0.0000 0.4000 0.0000  plane waves:   13111
 k-point  8 :   0.2000 0.4000 0.0000  plane waves:   13119
 k-point  9 :   0.4000 0.4000 0.0000  plane waves:   13129
 k-point 10 :   0.0000 0.0000 0.2500  plane waves:   13134
 k-point 11 :   0.2000 0.0000 0.2500  plane waves:   13149
 k-point 12 :   0.4000 0.0000 0.2500  plane waves:   13119
 k-point 13 :   0.0000 0.2000 0.2500  plane waves:   13149
 k-point 14 :   0.2000 0.2000 0.2500  plane waves:   13145
 k-point 15 :   0.4000 0.2000 0.2500  plane waves:   13134
 k-point 16 :   0.0000 0.4000 0.2500  plane waves:   13119
 k-point 17 :   0.2000 0.4000 0.2500  plane waves:   13134
 k-point 18 :   0.4000 0.4000 0.2500  plane waves:   13108
 k-point 19 :   0.0000-0.4000 0.2500  plane waves:   13119
 k-point 20 :   0.2000-0.4000 0.2500  plane waves:   13134
 k-point 21 :   0.4000-0.4000 0.2500  plane waves:   13108
 k-point 22 :   0.0000-0.2000 0.2500  plane waves:   13149
 k-point 23 :   0.2000-0.2000 0.2500  plane waves:   13145
 k-point 24 :   0.4000-0.2000 0.2500  plane waves:   13134
 k-point 25 :   0.0000 0.0000 0.5000  plane waves:   13186
 k-point 26 :   0.2000 0.0000 0.5000  plane waves:   13124
 k-point 27 :   0.4000 0.0000 0.5000  plane waves:   13152
 k-point 28 :   0.0000 0.2000 0.5000  plane waves:   13124
 k-point 29 :   0.2000 0.2000 0.5000  plane waves:   13136
 k-point 30 :   0.4000 0.2000 0.5000  plane waves:   13128
 k-point 31 :   0.0000 0.4000 0.5000  plane waves:   13152
 k-point 32 :   0.2000 0.4000 0.5000  plane waves:   13128
 k-point 33 :   0.4000 0.4000 0.5000  plane waves:   13112

 maximum and minimum number of plane-waves per node :      3313     3254

 maximum number of plane-waves:     13186
 maximum index in each direction: 
   IXMAX=   13   IYMAX=   13   IZMAX=   17
   IXMIN=  -13   IYMIN=  -13   IZMIN=  -17


 parallel 3D FFT for wavefunctions:
    minimum data exchange during FFTs selected (reduces bandwidth)
 parallel 3D FFT for charge:
    minimum data exchange during FFTs selected (reduces bandwidth)


 total amount of memory used by VASP MPI-rank0   944936. kBytes
=======================================================================

   base      :      30000. kBytes
   nonl-proj :      34214. kBytes
   fftplans  :      31580. kBytes
   grid      :      21385. kBytes
   one-center:        435. kBytes
   wavefun   :     827322. kBytes
 
     INWAV:  cpu time    0.0000: real time    0.0000
 Broyden mixing: mesh for mixing (old mesh)
   NGX = 27   NGY = 27   NGZ = 35
  (NGX  =108   NGY  =108   NGZ  =140)
  gives a total of  25515 points

 initial charge density was supplied:
 charge density of overlapping atoms calculated
 number of electron     270.0000000 magnetization     -27.0000000
 keeping initial charge density in first step


--------------------------------------------------------------------------------------------------------


 Maximum index for augmentation-charges        10967 (set IRDMAX)


--------------------------------------------------------------------------------------------------------


 First call to EWALD:  gamma=   0.199
 Maximum number of real-space cells 3x 3x 2
 Maximum number of reciprocal cells 3x 3x 3

    FEWALD:  cpu time    0.0031: real time    0.0031


--------------------------------------- Iteration      1(   1)  ---------------------------------------


    POTLOK:  cpu time    0.3995: real time    0.4002
    SETDIJ:  cpu time    0.4743: real time    0.4749
    TRIAL :  cpu time   33.7183: real time   34.6097
    CORREC:  cpu time    0.0059: real time    0.0061
    --------------------------------------------
      LOOP:  cpu time   34.8772: real time   35.7783

 eigenvalue-minimisations  : 19800
 total energy-change (2. order) : 0.2111470E+04  (-0.8502781E+04)
 number of electron     270.0000000 magnetization     -27.0000000
 augmentation part      270.0000000 magnetization     -27.0000000

 Free energy of the ion-electron system (eV)
  ---------------------------------------------------
  alpha Z        PSCENC =       798.38614055
  Ewald energy   TEWEN  =    -12901.57693327
  -Hartree energ DENC   =     -2855.60785864
  -exchange      EXHF   =         0.00000000
  -V(xc)+E(xc)   XCENC  =      -996.11142564
  PAW double counting   =     12741.82587617   -11476.22345381
  entropy T*S    EENTRO =        -0.00514116
  eigenvalues    EBANDS =      4103.10846905
  atomic energy  EATOM  =     12697.67401269
  ---------------------------------------------------
  free energy    TOTEN  =      2111.46968592 eV

  energy without entropy =     2111.47482708  energy(sigma->0) =     2111.47139964


--------------------------------------------------------------------------------------------------------




--------------------------------------- Iteration      1(   2)  ---------------------------------------


    TRIAL :  cpu time   34.4885: real time   35.3851
    CORREC:  cpu time    0.0075: real time    0.0077
    --------------------------------------------
      LOOP:  cpu time   34.4970: real time   35.3959

 eigenvalue-minimisations  : 19800
 total energy-change (2. order) :-0.2121906E+04  (-0.2102994E+04)
 number of electron     270.0000000 magnetization     -27.0000000
 augmentation part      270.0000000 magnetization     -27.0000000

 Free energy of the ion-electron system (eV)
  ---------------------------------------------------
  alpha Z        PSCENC =       798.38614055
  Ewald energy   TEWEN  =    -12901.57693327
  -Hartree energ DENC   =     -2855.60785864
  -exchange      EXHF   =         0.00000000
  -V(xc)+E(xc)   XCENC  =      -996.11142564
  PAW double counting   =     12741.82587617   -11476.22345381
  entropy T*S    EENTRO =        -0.00373411
  eigenvalues    EBANDS =      1981.20102705
  atomic energy  EATOM  =     12697.67401269
  ---------------------------------------------------
  free energy    TOTEN  =       -10.43634903 eV

  energy without entropy =      -10.43261491  energy(sigma->0) =      -10.43510432


--------------------------------------------------------------------------------------------------------




--------------------------------------- Iteration      1(   3)  ---------------------------------------


    TRIAL :  cpu time   48.1960: real time   48.4980
    CORREC:  cpu time    0.0088: real time    0.0089
    --------------------------------------------
      LOOP:  cpu time   48.2056: real time   48.5097

 eigenvalue-minimisations  : 30566
 total energy-change (2. order) :-0.3220653E+03  (-0.3044068E+03)
 number of electron     270.0000000 magnetization     -27.0000000
 augmentation part      270.0000000 magnetization     -27.0000000

 Free energy of the ion-electron system (eV)
  ---------------------------------------------------
  alpha Z        PSCENC =       798.38614055
  Ewald energy   TEWEN  =    -12901.57693327
  -Hartree energ DENC   =     -2855.60785864
  -exchange      EXHF   =         0.00000000
  -V(xc)+E(xc)   XCENC  =      -996.11142564
  PAW double counting   =     12741.82587617   -11476.22345381
  entropy T*S    EENTRO =        -0.00091764
  eigenvalues    EBANDS =      1659.13293837
  atomic energy  EATOM  =     12697.67401269
  ---------------------------------------------------
  free energy    TOTEN  =      -332.50162123 eV

  energy without entropy =     -332.50070360  energy(sigma->0) =     -332.50131535


--------------------------------------------------------------------------------------------------------




--------------------------------------- Iteration      1(   4)  ---------------------------------------


    TRIAL :  cpu time   50.0809: real time   51.1734
    CORREC:  cpu time    0.0093: real time    0.0102
    --------------------------------------------
      LOOP:  cpu time   50.0910: real time   51.1865

 eigenvalue-minimisations  : 32688
 total energy-change (2. order) :-0.6016071E+02  (-0.5627042E+02)
 number of electron     270.0000000 magnetization     -27.0000000
 augmentation part      270.0000000 magnetization     -27.0000000

 Free energy of the ion-electron system (eV)
  ---------------------------------------------------
  alpha Z        PSCENC =       798.38614055
  Ewald energy   TEWEN  =    -12901.57693327
  -Hartree energ DENC   =     -2855.60785864
  -exchange      EXHF   =         0.00000000
  -V(xc)+E(xc)   XCENC  =      -996.11142564
  PAW double counting   =     12741.82587617   -11476.22345381
  entropy T*S    EENTRO =         0.00785343
  eigenvalues    EBANDS =      1598.96345643
  atomic energy  EATOM  =     12697.67401269
  ---------------------------------------------------
  free energy    TOTEN  =      -392.66233210 eV

  energy without entropy =     -392.67018553  energy(sigma->0) =     -392.66494991


--------------------------------------------------------------------------------------------------------




--------------------------------------- Iteration      1(   5)  ---------------------------------------


    TRIAL :  cpu time   51.8216: real time   52.8318
    CORREC:  cpu time    0.0092: real time    0.0101
    --------------------------------------------
      LOOP:  cpu time   51.8317: real time   52.8451

 eigenvalue-minimisations  : 33976
 total energy-change (2. order) :-0.9289224E+01  (-0.8790359E+01)
 number of electron     270.0000000 magnetization     -27.0000000
 augmentation part      270.0000000 magnetization     -27.0000000

 Free energy of the ion-electron system (eV)
  ---------------------------------------------------
  alpha Z        PSCENC =       798.38614055
  Ewald energy   TEWEN  =    -12901.57693327
  -Hartree energ DENC   =     -2855.60785864
  -exchange      EXHF   =         0.00000000
  -V(xc)+E(xc)   XCENC  =      -996.11142564
  PAW double counting   =     12741.82587617   -11476.22345381
  entropy T*S    EENTRO =         0.00259316
  eigenvalues    EBANDS =      1589.67949289
  atomic energy  EATOM  =     12697.67401269
  ---------------------------------------------------
  free energy    TOTEN  =      -401.95155592 eV

  energy without entropy =     -401.95414908  energy(sigma->0) =     -401.95242030


--------------------------------------------------------------------------------------------------------




--------------------------------------- Iteration      1(   6)  ---------------------------------------


    TRIAL :  cpu time   52.1018: real time   53.1359
    CORREC:  cpu time    0.0095: real time    0.0103
    --------------------------------------------
      LOOP:  cpu time   52.1128: real time   53.1492

 eigenvalue-minimisations  : 33768
 total energy-change (2. order) :-0.1614995E+01  (-0.1522478E+01)
 number of electron     270.0000000 magnetization     -27.0000000
 augmentation part      270.0000000 magnetization     -27.0000000

 Free energy of the ion-electron system (eV)
  ---------------------------------------------------
  alpha Z        PSCENC =       798.38614055
  Ewald energy   TEWEN  =    -12901.57693327
  -Hartree energ DENC   =     -2855.60785864
  -exchange      EXHF   =         0.00000000
  -V(xc)+E(xc)   XCENC  =      -996.11142564
  PAW double counting   =     12741.82587617   -11476.22345381
  entropy T*S    EENTRO =         0.00426568
  eigenvalues    EBANDS =      1588.06282576
  atomic energy  EATOM  =     12697.67401269
  ---------------------------------------------------
  free energy    TOTEN  =      -403.56655052 eV

  energy without entropy =     -403.57081620  energy(sigma->0) =     -403.56797241


--------------------------------------------------------------------------------------------------------




--------------------------------------- Iteration      1(   7)  ---------------------------------------


    TRIAL :  cpu time   52.2299: real time   53.1652
    CORREC:  cpu time    0.0095: real time    0.0095
    --------------------------------------------
      LOOP:  cpu time   52.2402: real time   53.1779

 eigenvalue-minimisations  : 34312
 total energy-change (2. order) :-0.4345385E+00  (-0.4132344E+00)
 number of electron     270.0000000 magnetization     -27.0000000
 augmentation part      270.0000000 magnetization     -27.0000000

 Free energy of the ion-electron system (eV)
  ---------------------------------------------------
  alpha Z        PSCENC =       798.38614055
  Ewald energy   TEWEN  =    -12901.57693327
  -Hartree energ DENC   =     -2855.60785864
  -exchange      EXHF   =         0.00000000
  -V(xc)+E(xc)   XCENC  =      -996.11142564
  PAW double counting   =     12741.82587617   -11476.22345381
  entropy T*S    EENTRO =         0.00296041
  eigenvalues    EBANDS =      1587.62959250
  atomic energy  EATOM  =     12697.67401269
  ---------------------------------------------------
  free energy    TOTEN  =      -404.00108905 eV

  energy without entropy =     -404.00404946  energy(sigma->0) =     -404.00207585


--------------------------------------------------------------------------------------------------------




--------------------------------------- Iteration      1(   8)  ---------------------------------------


    TRIAL :  cpu time   50.8858: real time   52.6065
    CORREC:  cpu time    0.0098: real time    0.0106
    CHARGE:  cpu time    1.6718: real time    1.6719
    --------------------------------------------
      LOOP:  cpu time   52.5856: real time   54.3088

 eigenvalue-minimisations  : 33304
 total energy-change (2. order) :-0.1510665E+00  (-0.1442238E+00)
 number of electron     269.9999995 magnetization     -18.8933777
 augmentation part       64.2040858 magnetization     -10.9401680

 Free energy of the ion-electron system (eV)
  ---------------------------------------------------
  alpha Z        PSCENC =       798.38614055
  Ewald energy   TEWEN  =    -12901.57693327
  -Hartree energ DENC   =     -2855.60785864
  -exchange      EXHF   =         0.00000000
  -V(xc)+E(xc)   XCENC  =      -996.11142564
  PAW double counting   =     12741.82587617   -11476.22345381
  entropy T*S    EENTRO =         0.00138427
  eigenvalues    EBANDS =      1587.48010210
  atomic energy  EATOM  =     12697.67401269
  ---------------------------------------------------
  free energy    TOTEN  =      -404.15215559 eV

  energy without entropy =     -404.15353986  energy(sigma->0) =     -404.15261701


--------------------------------------------------------------------------------------------------------




--------------------------------------- Iteration      1(   9)  ---------------------------------------


    POTLOK:  cpu time    0.3988: real time    0.3989
    SETDIJ:  cpu time    0.4579: real time    0.4578
    TRIAL :  cpu time   17.3946: real time   17.5656
    CORREC:  cpu time    5.1877: real time    5.2044
    CHARGE:  cpu time    1.6613: real time    1.6624
    --------------------------------------------
      LOOP:  cpu time   25.1027: real time   25.2935

 eigenvalue-minimisations  :     0
 total energy-change (2. order) : 0.2995117E+03  (-0.2201791E+03)
 number of electron     269.9999993 magnetization     -19.7180426
 augmentation part       82.7688466 magnetization     -13.0160813

 Free energy of the ion-electron system (eV)
  ---------------------------------------------------
  alpha Z        PSCENC =       798.38614055
  Ewald energy   TEWEN  =    -12901.57693327
  -Hartree energ DENC   =     -1272.87787026
  -exchange      EXHF   =         0.00000000
  -V(xc)+E(xc)   XCENC  =     -1041.67796157
  PAW double counting   =     19171.00554788   -17751.53713736
  entropy T*S    EENTRO =         0.01839493
  eigenvalues    EBANDS =       195.96236236
  atomic energy  EATOM  =     12697.67401269
  ---------------------------------------------------
  free energy    TOTEN  =      -104.64045472 eV

  energy without entropy =     -104.65884965  energy(sigma->0) =     -104.64658636


--------------------------------------------------------------------------------------------------------




--------------------------------------- Iteration      1(  10)  ---------------------------------------


    POTLOK:  cpu time    0.3922: real time    0.3928
    SETDIJ:  cpu time    0.4714: real time    0.5049
    TRIAL :  cpu time   17.6674: real time   17.7713
    CORREC:  cpu time    5.4450: real time    6.1091
    CHARGE:  cpu time    1.6282: real time    1.6283
    --------------------------------------------
      LOOP:  cpu time   25.6117: real time   26.4153

 eigenvalue-minimisations  :     0
 total energy-change (2. order) :-0.2138027E+03  (-0.1242772E+02)
 number of electron     269.9999993 magnetization     -19.7537602
 augmentation part       87.4183216 magnetization     -13.4811234

 Free energy of the ion-electron system (eV)
  ---------------------------------------------------
  alpha Z        PSCENC =       798.38614055
  Ewald energy   TEWEN  =    -12901.57693327
  -Hartree energ DENC   =     -2118.34832392
  -exchange      EXHF   =         0.00000000
  -V(xc)+E(xc)   XCENC  =     -1012.36311496
  PAW double counting   =     20685.14184480   -19449.82705018
  entropy T*S    EENTRO =         0.00916845
  eigenvalues    EBANDS =       982.45191873
  atomic energy  EATOM  =     12697.67401269
  ---------------------------------------------------
  free energy    TOTEN  =      -318.44311063 eV

  energy without entropy =     -318.45227909  energy(sigma->0) =     -318.44616678


--------------------------------------------------------------------------------------------------------




--------------------------------------- Iteration      1(  11)  ---------------------------------------


    POTLOK:  cpu time    0.3930: real time    0.3930
    SETDIJ:  cpu time    0.4610: real time    0.4609
    TRIAL :  cpu time   16.9519: real time   17.0685
    CORREC:  cpu time    5.1628: real time    5.2864
    CHARGE:  cpu time    1.6725: real time    1.6725
    --------------------------------------------
      LOOP:  cpu time   24.6447: real time   24.8860

 eigenvalue-minimisations  :     0
 total energy-change (2. order) :-0.1231949E+02  (-0.1522774E+02)
 number of electron     269.9999992 magnetization     -19.5862894
 augmentation part       88.6449255 magnetization     -13.6091079

 Free energy of the ion-electron system (eV)
  ---------------------------------------------------
  alpha Z        PSCENC =       798.38614055
  Ewald energy   TEWEN  =    -12901.57693327
  -Hartree energ DENC   =     -2398.37095649
  -exchange      EXHF   =         0.00000000
  -V(xc)+E(xc)   XCENC  =     -1002.57541323
  PAW double counting   =     21770.36001065   -20580.63648921
  entropy T*S    EENTRO =        -0.00693303
  eigenvalues    EBANDS =      1285.96785608
  atomic energy  EATOM  =     12697.67401269
  ---------------------------------------------------
  free energy    TOTEN  =      -330.76260378 eV

  energy without entropy =     -330.75567074  energy(sigma->0) =     -330.76029276


--------------------------------------------------------------------------------------------------------




--------------------------------------- Iteration      1(  12)  ---------------------------------------


    POTLOK:  cpu time    0.3931: real time    0.3931
    SETDIJ:  cpu time    1.3726: real time    1.3771
    TRIAL :  cpu time   17.5707: real time   17.6702
    CORREC:  cpu time    5.2196: real time    5.2210
    CHARGE:  cpu time    1.6822: real time    1.7011
    --------------------------------------------
      LOOP:  cpu time   26.2401: real time   26.3667

 eigenvalue-minimisations  :     0
 total energy-change (2. order) :-0.1512328E+02  (-0.5929243E+01)
 number of electron     269.9999993 magnetization     -19.2991209
 augmentation part       86.8143039 magnetization     -13.3748085

 Free energy of the ion-electron system (eV)
  ---------------------------------------------------
  alpha Z        PSCENC =       798.38614055
  Ewald energy   TEWEN  =    -12901.57693327
  -Hartree energ DENC   =     -2577.71895407
  -exchange      EXHF   =         0.00000000
  -V(xc)+E(xc)   XCENC  =      -997.37777774
  PAW double counting   =     21665.31170469   -20461.98490671
  entropy T*S    EENTRO =        -0.00982380
  eigenvalues    EBANDS =      1431.40776590
  atomic energy  EATOM  =     12697.67401269
  ---------------------------------------------------
  free energy    TOTEN  =      -345.88588100 eV

  energy without entropy =     -345.87605720  energy(sigma->0) =     -345.88260640


--------------------------------------------------------------------------------------------------------




--------------------------------------- Iteration      1(  13)  ---------------------------------------


    POTLOK:  cpu time    0.3932: real time    0.3932
    SETDIJ:  cpu time    0.4713: real time    0.4799
    TRIAL :  cpu time   16.8711: real time   17.7324
    CORREC:  cpu time    5.2321: real time    5.2415
    CHARGE:  cpu time    1.7108: real time    1.7111
    --------------------------------------------
      LOOP:  cpu time   24.6972: real time   25.5787

 eigenvalue-minimisations  :     0
 total energy-change (2. order) :-0.5781411E+01  (-0.1005908E+01)
 number of electron     269.9999993 magnetization     -19.2987396
 augmentation part       85.9844980 magnetization     -13.2794097

 Free energy of the ion-electron system (eV)
  ---------------------------------------------------
  alpha Z        PSCENC =       798.38614055
  Ewald energy   TEWEN  =    -12901.57693327
  -Hartree energ DENC   =     -2523.28311776
  -exchange      EXHF   =         0.00000000
  -V(xc)+E(xc)   XCENC  =      -999.91425255
  PAW double counting   =     21299.78097347   -20061.98600315
  entropy T*S    EENTRO =        -0.01218599
  eigenvalues    EBANDS =      1339.26171186
  atomic energy  EATOM  =     12697.67401269
  ---------------------------------------------------
  free energy    TOTEN  =      -351.66729196 eV

  energy without entropy =     -351.65510597  energy(sigma->0) =     -351.66322997


--------------------------------------------------------------------------------------------------------




--------------------------------------- Iteration      1(  14)  ---------------------------------------


    POTLOK:  cpu time    0.3873: real time    0.4456
    SETDIJ:  cpu time    0.4477: real time    0.4479
    TRIAL :  cpu time   16.9366: real time   17.0572
    CORREC:  cpu time    5.9930: real time    6.0217
    CHARGE:  cpu time    1.6272: real time    1.6276
    --------------------------------------------
      LOOP:  cpu time   25.3982: real time   25.6072

 eigenvalue-minimisations  :     0
 total energy-change (2. order) :-0.9978580E+00  (-0.1146239E+01)
 number of electron     269.9999993 magnetization     -19.2170547
 augmentation part       85.7752514 magnetization     -13.0632322

 Free energy of the ion-electron system (eV)
  ---------------------------------------------------
  alpha Z        PSCENC =       798.38614055
  Ewald energy   TEWEN  =    -12901.57693327
  -Hartree energ DENC   =     -2478.11056943
  -exchange      EXHF   =         0.00000000
  -V(xc)+E(xc)   XCENC  =     -1001.69054312
  PAW double counting   =     20859.63305276   -19608.97529000
  entropy T*S    EENTRO =        -0.01205542
  eigenvalues    EBANDS =      1282.00716581
  atomic energy  EATOM  =     12697.67401269
  ---------------------------------------------------
  free energy    TOTEN  =      -352.66515000 eV

  energy without entropy =     -352.65309459  energy(sigma->0) =     -352.66113153


--------------------------------------------------------------------------------------------------------




--------------------------------------- Iteration      1(  15)  ---------------------------------------


    POTLOK:  cpu time    0.3931: real time    0.3931
    SETDIJ:  cpu time    0.4628: real time    0.4628
    TRIAL :  cpu time   16.9195: real time   17.7145
    CORREC:  cpu time    5.1994: real time    5.2438
    CHARGE:  cpu time    1.6722: real time    1.6724
    --------------------------------------------
      LOOP:  cpu time   24.6708: real time   25.5114

 eigenvalue-minimisations  :     0
 total energy-change (2. order) :-0.1145528E+01  (-0.8583984E+00)
 number of electron     269.9999992 magnetization     -19.0946603
 augmentation part       86.7272363 magnetization     -12.9662568

 Free energy of the ion-electron system (eV)
  ---------------------------------------------------
  alpha Z        PSCENC =       798.38614055
  Ewald energy   TEWEN  =    -12901.57693327
  -Hartree energ DENC   =     -2454.88935847
  -exchange      EXHF   =         0.00000000
  -V(xc)+E(xc)   XCENC  =     -1002.73905597
  PAW double counting   =     20118.11379201   -18860.18620302
  entropy T*S    EENTRO =        -0.01626104
  eigenvalues    EBANDS =      1251.41898282
  atomic energy  EATOM  =     12697.67401269
  ---------------------------------------------------
  free energy    TOTEN  =      -353.81067807 eV

  energy without entropy =     -353.79441703  energy(sigma->0) =     -353.80525773


--------------------------------------------------------------------------------------------------------




--------------------------------------- Iteration      1(  16)  ---------------------------------------


    POTLOK:  cpu time    0.3924: real time    0.3924
    SETDIJ:  cpu time    0.4730: real time    0.4730
    TRIAL :  cpu time   17.6113: real time   17.7703
    CORREC:  cpu time    5.2321: real time    5.2437
    CHARGE:  cpu time    1.6531: real time    1.6530
    --------------------------------------------
      LOOP:  cpu time   25.3656: real time   25.5362

 eigenvalue-minimisations  :     0
 total energy-change (2. order) :-0.8629323E+00  (-0.3215660E+00)
 number of electron     269.9999992 magnetization     -18.9582566
 augmentation part       87.3160485 magnetization     -12.9626271

 Free energy of the ion-electron system (eV)
  ---------------------------------------------------
  alpha Z        PSCENC =       798.38614055
  Ewald energy   TEWEN  =    -12901.57693327
  -Hartree energ DENC   =     -2491.18470611
  -exchange      EXHF   =         0.00000000
  -V(xc)+E(xc)   XCENC  =     -1001.53191882
  PAW double counting   =     19627.97189612   -18377.23260599
  entropy T*S    EENTRO =        -0.01677768
  eigenvalues    EBANDS =      1292.83676548
  atomic energy  EATOM  =     12697.67401269
  ---------------------------------------------------
  free energy    TOTEN  =      -354.67361039 eV

  energy without entropy =     -354.65683270  energy(sigma->0) =     -354.66801783


--------------------------------------------------------------------------------------------------------




--------------------------------------- Iteration      1(  17)  ---------------------------------------


    POTLOK:  cpu time    0.3926: real time    0.3926
    SETDIJ:  cpu time    0.4698: real time    0.5046
    TRIAL :  cpu time   16.9959: real time   17.0762
    CORREC:  cpu time    5.1654: real time    6.0538
    CHARGE:  cpu time    1.6388: real time    1.6391
    --------------------------------------------
      LOOP:  cpu time   24.6700: real time   25.6748

 eigenvalue-minimisations  :     0
 total energy-change (2. order) :-0.3217164E+00  (-0.3268873E+00)
 number of electron     269.9999992 magnetization     -18.8151389
 augmentation part       87.2641870 magnetization     -12.9832020

 Free energy of the ion-electron system (eV)
  ---------------------------------------------------
  alpha Z        PSCENC =       798.38614055
  Ewald energy   TEWEN  =    -12901.57693327
  -Hartree energ DENC   =     -2516.68583838
  -exchange      EXHF   =         0.00000000
  -V(xc)+E(xc)   XCENC  =     -1000.43288534
  PAW double counting   =     19508.80076626   -18264.12996478
  entropy T*S    EENTRO =        -0.01942656
  eigenvalues    EBANDS =      1322.98615314
  atomic energy  EATOM  =     12697.67401269
  ---------------------------------------------------
  free energy    TOTEN  =      -354.99532680 eV

  energy without entropy =     -354.97590024  energy(sigma->0) =     -354.98885128


--------------------------------------------------------------------------------------------------------




--------------------------------------- Iteration      1(  18)  ---------------------------------------


    POTLOK:  cpu time    0.3934: real time    0.3934
    SETDIJ:  cpu time    0.4563: real time    0.4563
    TRIAL :  cpu time   16.9425: real time   17.0720
    CORREC:  cpu time    5.1966: real time    5.2687
    CHARGE:  cpu time    1.6678: real time    1.6680
    --------------------------------------------
      LOOP:  cpu time   24.6709: real time   24.8735

 eigenvalue-minimisations  :     0
 total energy-change (2. order) :-0.3268494E+00  (-0.1511664E+00)
 number of electron     269.9999992 magnetization     -18.7548227
 augmentation part       86.9915425 magnetization     -12.9871813

 Free energy of the ion-electron system (eV)
  ---------------------------------------------------
  alpha Z        PSCENC =       798.38614055
  Ewald energy   TEWEN  =    -12901.57693327
  -Hartree energ DENC   =     -2509.58217883
  -exchange      EXHF   =         0.00000000
  -V(xc)+E(xc)   XCENC  =     -1000.36751182
  PAW double counting   =     19402.89367753   -18157.73025470
  entropy T*S    EENTRO =        -0.01864397
  eigenvalues    EBANDS =      1315.00029825
  atomic energy  EATOM  =     12697.67401269
  ---------------------------------------------------
  free energy    TOTEN  =      -355.32217616 eV

  energy without entropy =     -355.30353218  energy(sigma->0) =     -355.31596150


--------------------------------------------------------------------------------------------------------




--------------------------------------- Iteration      1(  19)  ---------------------------------------


    POTLOK:  cpu time    0.3937: real time    0.3936
    SETDIJ:  cpu time    0.4675: real time    0.4674
    TRIAL :  cpu time   16.9843: real time   17.0465
    CORREC:  cpu time    5.2244: real time    5.2295
    CHARGE:  cpu time    1.6655: real time    1.6656
    --------------------------------------------
      LOOP:  cpu time   24.7372: real time   24.8054

 eigenvalue-minimisations  :     0
 total energy-change (2. order) :-0.1494801E+00  (-0.1180865E+00)
 number of electron     269.9999992 magnetization     -18.7717545
 augmentation part       86.6922352 magnetization     -13.0458908

 Free energy of the ion-electron system (eV)
  ---------------------------------------------------
  alpha Z        PSCENC =       798.38614055
  Ewald energy   TEWEN  =    -12901.57693327
  -Hartree energ DENC   =     -2494.52248334
  -exchange      EXHF   =         0.00000000
  -V(xc)+E(xc)   XCENC  =     -1000.73273747
  PAW double counting   =     19360.35384770   -18112.33706288
  entropy T*S    EENTRO =        -0.02011569
  eigenvalues    EBANDS =      1297.30220379
  atomic energy  EATOM  =     12697.67401269
  ---------------------------------------------------
  free energy    TOTEN  =      -355.47165621 eV

  energy without entropy =     -355.45154052  energy(sigma->0) =     -355.46495098


--------------------------------------------------------------------------------------------------------




--------------------------------------- Iteration      1(  20)  ---------------------------------------


    POTLOK:  cpu time    0.3928: real time    0.3927
    SETDIJ:  cpu time    0.4735: real time    0.4736
    TRIAL :  cpu time   16.8973: real time   17.7520
    CORREC:  cpu time    5.2189: real time    5.2454
    CHARGE:  cpu time    1.6694: real time    1.6696
    --------------------------------------------
      LOOP:  cpu time   24.6551: real time   25.5378

 eigenvalue-minimisations  :     0
 total energy-change (2. order) :-0.1180981E+00  (-0.1653730E+00)
 number of electron     269.9999992 magnetization     -18.7442401
 augmentation part       86.7201374 magnetization     -13.1288134

 Free energy of the ion-electron system (eV)
  ---------------------------------------------------
  alpha Z        PSCENC =       798.38614055
  Ewald energy   TEWEN  =    -12901.57693327
  -Hartree energ DENC   =     -2480.90529344
  -exchange      EXHF   =         0.00000000
  -V(xc)+E(xc)   XCENC  =     -1001.06436573
  PAW double counting   =     19343.95697949   -18093.05327485
  entropy T*S    EENTRO =        -0.02121451
  eigenvalues    EBANDS =      1281.01309591
  atomic energy  EATOM  =     12697.67401269
  ---------------------------------------------------
  free energy    TOTEN  =      -355.58975434 eV

  energy without entropy =     -355.56853983  energy(sigma->0) =     -355.58268284


--------------------------------------------------------------------------------------------------------




--------------------------------------- Iteration      1(  21)  ---------------------------------------


    POTLOK:  cpu time    0.3929: real time    0.3929
    SETDIJ:  cpu time    0.5190: real time    0.5192
    TRIAL :  cpu time   16.9625: real time   17.1139
    CORREC:  cpu time    5.4487: real time    5.4962
    CHARGE:  cpu time    1.9610: real time    1.9644
    --------------------------------------------
      LOOP:  cpu time   25.3019: real time   25.5054

 eigenvalue-minimisations  :     0
 total energy-change (2. order) :-0.1653554E+00  (-0.9313934E-01)
 number of electron     269.9999992 magnetization     -18.7594074
 augmentation part       86.9029141 magnetization     -13.1755430

 Free energy of the ion-electron system (eV)
  ---------------------------------------------------
  alpha Z        PSCENC =       798.38614055
  Ewald energy   TEWEN  =    -12901.57693327
  -Hartree energ DENC   =     -2488.05348108
  -exchange      EXHF   =         0.00000000
  -V(xc)+E(xc)   XCENC  =     -1000.62552600
  PAW double counting   =     19385.01928119   -18135.21117243
  entropy T*S    EENTRO =        -0.02267221
  eigenvalues    EBANDS =      1288.65378307
  atomic energy  EATOM  =     12697.67401269
  ---------------------------------------------------
  free energy    TOTEN  =      -355.75510979 eV

  energy without entropy =     -355.73243757  energy(sigma->0) =     -355.74755238


--------------------------------------------------------------------------------------------------------




--------------------------------------- Iteration      1(  22)  ---------------------------------------


    POTLOK:  cpu time    0.3926: real time    0.3926
    SETDIJ:  cpu time    0.4790: real time    0.4789
    TRIAL :  cpu time   16.8863: real time   17.6243
    CORREC:  cpu time    5.2172: real time    5.2401
    CHARGE:  cpu time    1.6670: real time    1.6773
    --------------------------------------------
      LOOP:  cpu time   24.6487: real time   25.4210

 eigenvalue-minimisations  :     0
 total energy-change (2. order) :-0.9346770E-01  (-0.5874382E-01)
 number of electron     269.9999992 magnetization     -18.7421953
 augmentation part       86.9738910 magnetization     -13.1582685

 Free energy of the ion-electron system (eV)
  ---------------------------------------------------
  alpha Z        PSCENC =       798.38614055
  Ewald energy   TEWEN  =    -12901.57693327
  -Hartree energ DENC   =     -2501.08449978
  -exchange      EXHF   =         0.00000000
  -V(xc)+E(xc)   XCENC  =     -1000.07919268
  PAW double counting   =     19426.74735139   -18179.34692372
  entropy T*S    EENTRO =        -0.02228670
  eigenvalues    EBANDS =      1303.45413955
  atomic energy  EATOM  =     12697.67401269
  ---------------------------------------------------
  free energy    TOTEN  =      -355.84857749 eV

  energy without entropy =     -355.82629079  energy(sigma->0) =     -355.84114859


--------------------------------------------------------------------------------------------------------




--------------------------------------- Iteration      1(  23)  ---------------------------------------


    POTLOK:  cpu time    0.3932: real time    0.3932
    SETDIJ:  cpu time    0.4622: real time    0.4623
    TRIAL :  cpu time   16.9711: real time   17.0697
    CORREC:  cpu time    6.1131: real time    6.1320
    CHARGE:  cpu time    1.6252: real time    1.6251
    --------------------------------------------
      LOOP:  cpu time   25.5666: real time   25.6858

 eigenvalue-minimisations  :     0
 total energy-change (2. order) :-0.5870208E-01  (-0.5641708E-01)
 number of electron     269.9999992 magnetization     -18.7665372
 augmentation part       86.9100573 magnetization     -13.1546363

 Free energy of the ion-electron system (eV)
  ---------------------------------------------------
  alpha Z        PSCENC =       798.38614055
[...]
   45       -0.025  -0.025  -2.393  -2.443
   46       -0.032  -0.027  -2.401  -2.461
   47       -0.021  -0.012  -2.353  -2.386
   48       -0.028  -0.023  -2.425  -2.476
   49        0.020   0.025   2.274   2.319
   50       -0.018  -0.021  -2.385  -2.425
   51       -0.024  -0.030  -2.381  -2.435
   52        0.027   0.021   2.438   2.485
   53       -0.012  -0.025  -2.231  -2.268
   54        0.031   0.022   2.305   2.358
--------------------------------------------------
tot          0.017   0.116 -21.818 -21.685
 
    FORLOC:  cpu time    0.0577: real time    0.0578
    FORNL :  cpu time   25.9823: real time   26.0878
    STRESS:  cpu time   36.9958: real time   37.9908
    FORCOR:  cpu time    0.4405: real time    0.4406
    OFIELD:  cpu time    0.0023: real time    0.0023

  FORCE on cell =-STRESS in cart. coord.  units (eV):
  Direction    XX          YY          ZZ          XY          YZ          ZX
  --------------------------------------------------------------------------------------
  Alpha Z   798.38614   798.38614   798.38614
  Ewald   -4053.61603 -4053.61603 -4794.40593    -0.00000    -0.00000    -0.00000
  Hartree  1083.50301  1084.11628   333.30669     0.00000     0.21548    -0.00000
  E(xc)   -1141.77222 -1141.82486 -1140.16786    -0.00000    -0.04281     0.00000
  Local     369.88391   369.01802  1903.88587    -0.00000    -0.66636     0.00000
  n-local  -169.13552  -169.26205  -175.03846    -0.00712    -0.14769    -0.21135
  augment   784.48085   784.75640   768.24465     0.00000     0.24153     0.00001
  Kinetic  2334.46964  2335.23059  2309.20596    -0.95829     0.67676    -1.54351
  Fock        0.00000     0.00000     0.00000     0.00000     0.00000     0.00000
  -------------------------------------------------------------------------------------
  Total       6.19978     6.80450     3.41704     0.00000     0.27691     0.00000
  in kB      13.99210    15.35687     7.71181     0.00000     0.62496     0.00000
  external pressure =       12.35 kB  Pullay stress =        0.00 kB


 VOLUME and BASIS-vectors are now :
 -----------------------------------------------------------------------------
  energy-cutoff  :      404.80
  volume of cell :      709.91
      direct lattice vectors                 reciprocal lattice vectors
     8.250148166  0.000000000  0.000000000     0.121209944  0.000000000  0.000000000
     0.000000000  8.250148166  0.000000000     0.000000000  0.121209944  0.000000000
     0.000000000  0.000000000 10.429911392     0.000000000  0.000000000  0.095878092

  length of vectors
     8.250148166  8.250148166 10.429911392     0.121209944  0.121209944  0.095878092


 FORCES acting on ions:
    Electron-Ion                     Ewald-Force                    Non-Local-Force
 -----------------------------------------------------------------------------------------------
   0.705E-01 -.232E-01 0.231E-01   -.239E-08 -.239E-08 -.210E-08   -.128E+00 0.805E-03 -.177E-01
   0.162E+00 -.126E+00 0.450E-01   -.239E-08 -.239E-08 0.171E-08   -.104E+00 0.798E-01 0.110E-01
   0.118E-01 -.954E-02 -.983E-02   -.239E-08 -.239E-08 0.861E-08   0.437E-01 0.257E-01 -.332E-01
   0.112E+00 0.146E+00 0.392E-02   -.239E-08 -.802E-09 -.210E-08   -.866E-01 -.102E+00 -.306E-01
   0.143E+00 0.200E+00 -.578E-01   -.239E-08 -.802E-09 0.171E-08   -.104E+00 -.112E+00 0.489E-01
   -.207E-01 0.205E-01 0.206E-01   -.239E-08 -.802E-09 0.861E-08   0.973E-02 0.600E-02 -.392E-03
   0.813E-01 -.110E+00 0.129E+00   -.239E-08 0.631E-08 -.210E-08   -.888E-01 0.836E-01 -.418E-01
   -.693E-02 -.293E-01 -.583E-01   -.239E-08 0.631E-08 0.171E-08   -.873E-02 0.735E-02 0.234E-01
   0.338E-01 -.447E-01 -.363E-01   -.239E-08 0.631E-08 0.861E-08   0.286E-02 -.145E-01 -.974E-02
   0.373E-09 -.867E-02 0.710E-01   -.802E-09 -.239E-08 -.210E-08   0.000E+00 0.110E-01 -.375E-01
   0.373E-09 0.195E-01 -.137E+00   -.802E-09 -.239E-08 0.171E-08   0.000E+00 -.588E-02 0.605E-01
   0.373E-09 -.365E-01 0.186E-01   -.803E-09 -.239E-08 0.861E-08   0.000E+00 0.146E-01 0.881E-02
   0.373E-09 -.183E-01 0.109E+00   -.802E-09 -.802E-09 -.210E-08   0.000E+00 0.178E-02 -.779E-01
   0.373E-09 -.395E-02 -.101E+00   -.802E-09 -.802E-09 0.171E-08   0.000E+00 -.299E-02 0.619E-01
   0.373E-09 0.593E-02 -.144E-01   -.803E-09 -.802E-09 0.861E-08   0.000E+00 -.959E-02 0.410E-01
   0.373E-09 0.241E-01 0.929E-01   -.802E-09 0.631E-08 -.210E-08   0.000E+00 -.107E-01 -.115E-01
   0.373E-09 -.158E-01 -.169E+00   -.802E-09 0.631E-08 0.171E-08   0.000E+00 0.609E-02 0.417E-01
   0.373E-09 0.420E-01 0.287E-01   -.803E-09 0.631E-08 0.861E-08   0.000E+00 -.111E-01 0.763E-02
   -.705E-01 -.232E-01 0.231E-01   0.631E-08 -.239E-08 -.210E-08   0.128E+00 0.805E-03 -.177E-01
   -.162E+00 -.126E+00 0.450E-01   0.631E-08 -.239E-08 0.171E-08   0.104E+00 0.798E-01 0.110E-01
   -.118E-01 -.954E-02 -.983E-02   0.631E-08 -.239E-08 0.861E-08   -.437E-01 0.257E-01 -.332E-01
   -.112E+00 0.146E+00 0.392E-02   0.631E-08 -.802E-09 -.210E-08   0.866E-01 -.102E+00 -.306E-01
   -.143E+00 0.200E+00 -.578E-01   0.631E-08 -.802E-09 0.171E-08   0.104E+00 -.112E+00 0.489E-01
   0.207E-01 0.205E-01 0.206E-01   0.631E-08 -.802E-09 0.861E-08   -.973E-02 0.600E-02 -.392E-03
   -.813E-01 -.110E+00 0.129E+00   0.631E-08 0.631E-08 -.210E-08   0.888E-01 0.836E-01 -.418E-01
   0.693E-02 -.293E-01 -.583E-01   0.631E-08 0.631E-08 0.171E-08   0.873E-02 0.735E-02 0.234E-01
   -.338E-01 -.447E-01 -.363E-01   0.631E-08 0.631E-08 0.861E-08   -.286E-02 -.145E-01 -.974E-02
   0.268E+00 -.169E-01 -.598E-01   -.169E-07 -.169E-07 -.180E-07   -.165E+00 0.126E-01 0.659E-01
   0.486E-01 -.272E-01 0.243E-01   -.169E-07 -.169E-07 -.170E-08   -.983E-03 0.521E-01 -.587E-01
   -.341E-01 -.131E+00 0.413E-03   -.169E-07 -.169E-07 0.115E-07   0.681E-01 0.131E+00 0.383E-01
   -.140E+00 -.814E-01 -.815E-02   -.169E-07 0.802E-09 -.180E-07   0.112E+00 0.101E+00 0.861E-02
   -.816E-01 -.778E-03 -.515E-01   -.169E-07 0.802E-09 -.170E-08   0.103E+00 -.441E-01 -.203E-01
   -.159E+00 0.930E-01 0.296E-01   -.169E-07 0.802E-09 0.115E-07   0.152E+00 -.108E+00 0.418E-01
   -.506E-01 0.985E-01 0.117E+00   -.169E-07 0.130E-07 -.180E-07   0.111E+00 -.957E-01 -.119E+00
   -.727E-01 0.351E-01 0.285E-01   -.169E-07 0.130E-07 -.170E-08   0.208E-01 -.264E-01 -.970E-01
   0.220E+00 0.486E-01 -.216E-01   -.169E-07 0.130E-07 0.115E-07   -.801E-01 -.569E-01 0.292E-01
   -.268E+00 -.169E-01 -.598E-01   0.802E-09 -.169E-07 -.180E-07   0.165E+00 0.126E-01 0.659E-01
   -.486E-01 -.272E-01 0.243E-01   0.802E-09 -.169E-07 -.170E-08   0.983E-03 0.521E-01 -.587E-01
   0.341E-01 -.131E+00 0.413E-03   0.802E-09 -.169E-07 0.115E-07   -.681E-01 0.131E+00 0.383E-01
   0.140E+00 -.814E-01 -.815E-02   0.802E-09 0.802E-09 -.180E-07   -.112E+00 0.101E+00 0.861E-02
   0.816E-01 -.778E-03 -.515E-01   0.802E-09 0.802E-09 -.170E-08   -.103E+00 -.441E-01 -.203E-01
   0.159E+00 0.930E-01 0.296E-01   0.802E-09 0.802E-09 0.115E-07   -.152E+00 -.108E+00 0.418E-01
   0.506E-01 0.985E-01 0.117E+00   0.802E-09 0.130E-07 -.180E-07   -.111E+00 -.957E-01 -.119E+00
   0.727E-01 0.351E-01 0.285E-01   0.802E-09 0.130E-07 -.170E-08   -.208E-01 -.264E-01 -.970E-01
   -.220E+00 0.486E-01 -.216E-01   0.802E-09 0.130E-07 0.115E-07   0.801E-01 -.569E-01 0.292E-01
   -.604E-08 -.517E-01 -.138E+00   0.130E-07 -.169E-07 -.180E-07   0.000E+00 0.364E-01 0.206E+00
   -.605E-08 -.500E-01 -.162E+00   0.130E-07 -.169E-07 -.170E-08   0.000E+00 -.659E-02 0.124E+00
   -.605E-08 0.254E+00 0.218E+00   0.130E-07 -.169E-07 0.115E-07   0.000E+00 -.122E+00 -.240E+00
   -.605E-08 0.264E+00 0.180E+00   0.130E-07 0.802E-09 -.180E-07   0.000E+00 -.157E+00 -.180E+00
   -.605E-08 0.112E+00 0.113E+00   0.130E-07 0.802E-09 -.170E-08   0.000E+00 -.345E-01 -.164E+00
   -.605E-08 -.211E+00 -.989E-01   0.130E-07 0.802E-09 0.115E-07   0.000E+00 0.112E+00 0.127E+00
   -.605E-08 -.366E+00 -.338E+00   0.130E-07 0.130E-07 -.180E-07   0.000E+00 0.224E+00 0.456E+00
   -.605E-08 -.640E-01 -.171E+00   0.130E-07 0.130E-07 -.170E-08   0.000E+00 0.605E-01 0.175E+00
   -.605E-08 0.776E-01 0.454E+00   0.130E-07 0.130E-07 0.115E-07   0.000E+00 -.516E-01 -.479E+00
 -----------------------------------------------------------------------------------------------
   -.362E-07 0.646E-01 0.205E+00   -.614E-13 -.142E-13 0.128E-13   -.416E-16 -.637E-01 -.204E+00
 
 
 POSITION                                       TOTAL-FORCE (eV/Angst)
 -----------------------------------------------------------------------------------
      0.00000      0.00000      0.00000        -0.046822     -0.022636      0.006885
      0.00000      0.00000      3.47664         0.066399     -0.053193      0.054277
      0.00000      0.00000      6.95327         0.051668      0.013058     -0.038886
      0.00000      2.75005      0.00000         0.032713      0.053046     -0.023340
      0.00000      2.75005      3.47664         0.048352      0.097961     -0.014683
      0.00000      2.75005      6.95327        -0.011859      0.026271      0.020573
      0.00000      5.50010      0.00000        -0.000535     -0.033152      0.090758
      0.00000      5.50010      3.47664        -0.015451     -0.022611     -0.037084
      0.00000      5.50010      6.95327         0.035703     -0.057738     -0.044218
      2.75005      0.00000      0.00000         0.000000      0.001375      0.036877
      2.75005      0.00000      3.47664         0.000000      0.014598     -0.083372
      2.75005      0.00000      6.95327         0.000000     -0.023198      0.026921
      2.75005      2.75005      0.00000         0.000000     -0.017280      0.038474
      2.75005      2.75005      3.47664         0.000000     -0.007233     -0.044645
      2.75005      2.75005      6.95327         0.000000     -0.003242      0.023250
      2.75005      5.50010      0.00000         0.000000      0.014823      0.082652
      2.75005      5.50010      3.47664         0.000000     -0.010142     -0.132066
      2.75005      5.50010      6.95327         0.000000      0.032417      0.036138
      5.50010      0.00000      0.00000         0.046822     -0.022636      0.006885
      5.50010      0.00000      3.47664        -0.066399     -0.053193      0.054277
      5.50010      0.00000      6.95327        -0.051668      0.013058     -0.038886
      5.50010      2.75005      0.00000        -0.032713      0.053046     -0.023340
      5.50010      2.75005      3.47664        -0.048352      0.097961     -0.014683
      5.50010      2.75005      6.95327         0.011859      0.026271      0.020573
      5.50010      5.50010      0.00000         0.000535     -0.033152      0.090758
      5.50010      5.50010      3.47664         0.015451     -0.022611     -0.037084
      5.50010      5.50010      6.95327        -0.035703     -0.057738     -0.044218
      1.37502      1.37502      1.73832         0.099876     -0.004790      0.004553
      1.37502      1.37502      5.21496         0.048341      0.024693     -0.026286
      1.37502      1.37502      8.69159         0.033625     -0.001415      0.030604
      1.37502      4.12507      1.73832        -0.029472      0.018047     -0.001118
      1.37502      4.12507      5.21496         0.020553     -0.044520     -0.064587
      1.37502      4.12507      8.69159        -0.009610     -0.013204      0.064209
      1.37502      6.87512      1.73832         0.058297      0.004441      0.000443
      1.37502      6.87512      5.21496        -0.050091      0.009268     -0.061135
      1.37502      6.87512      8.69159         0.142485     -0.007599      0.003136
      4.12507      1.37502      1.73832        -0.099876     -0.004790      0.004553
      4.12507      1.37502      5.21496        -0.048341      0.024693     -0.026286
      4.12507      1.37502      8.69159        -0.033625     -0.001415      0.030604
      4.12507      4.12507      1.73832         0.029472      0.018047     -0.001118
      4.12507      4.12507      5.21496        -0.020553     -0.044520     -0.064587
      4.12507      4.12507      8.69159         0.009610     -0.013204      0.064209
      4.12507      6.87512      1.73832        -0.058297      0.004441      0.000443
      4.12507      6.87512      5.21496         0.050091      0.009268     -0.061135
      4.12507      6.87512      8.69159        -0.142485     -0.007599      0.003136
      6.87512      1.37502      1.73832         0.000000     -0.018857      0.066490
      6.87512      1.37502      5.21496         0.000000     -0.053831     -0.036176
      6.87512      1.37502      8.69159         0.000000      0.139070     -0.023273
      6.87512      4.12507      1.73832         0.000000      0.106882      0.004091
      6.87512      4.12507      5.21496         0.000000      0.076852     -0.039510
      6.87512      4.12507      8.69159         0.000000     -0.101332      0.020872
      6.87512      6.87512      1.73832         0.000000     -0.143824      0.113057
      6.87512      6.87512      5.21496         0.000000     -0.005352      0.000434
      6.87512      6.87512      8.69159         0.000000      0.026421     -0.018415
 -----------------------------------------------------------------------------------
    total drift:                               -0.000000      0.000886      0.000539


--------------------------------------------------------------------------------------------------------



  FREE ENERGIE OF THE ION-ELECTRON SYSTEM (eV)
  ---------------------------------------------------
  free  energy   TOTEN  =      -356.52986485 eV

  energy  without entropy=     -356.47910899  energy(sigma->0) =     -356.51294623
 


--------------------------------------------------------------------------------------------------------


    POTLOK:  cpu time    0.8806: real time    0.8805


--------------------------------------------------------------------------------------------------------


     LOOP+:  cpu time 2743.4167: real time 2799.7064
    4ORBIT:  cpu time    0.0000: real time    0.0000
 


 total charge     
 
# of ion       s       p       d       tot
------------------------------------------
    1        0.405   0.430   0.000   0.835
    2        0.406   0.429   0.000   0.834
    3        0.405   0.429   0.000   0.834
    4        0.405   0.428   0.000   0.833
    5        0.405   0.428   0.000   0.834
    6        0.404   0.428   0.000   0.833
    7        0.405   0.427   0.000   0.833
    8        0.405   0.426   0.000   0.832
    9        0.404   0.430   0.000   0.834
   10        0.405   0.426   0.000   0.831
   11        0.405   0.426   0.000   0.832
   12        0.404   0.429   0.000   0.832
   13        0.405   0.426   0.000   0.831
   14        0.405   0.427   0.000   0.832
   15        0.404   0.429   0.000   0.833
   16        0.405   0.426   0.000   0.832
   17        0.405   0.427   0.000   0.832
   18        0.405   0.429   0.000   0.833
   19        0.405   0.430   0.000   0.834
   20        0.405   0.428   0.000   0.834
   21        0.405   0.430   0.000   0.834
   22        0.405   0.428   0.000   0.834
   23        0.405   0.428   0.000   0.834
   24        0.405   0.428   0.000   0.833
   25        0.405   0.428   0.000   0.833
   26        0.405   0.426   0.000   0.831
   27        0.404   0.430   0.000   0.834
   28        0.335   0.355   5.128   5.818
   29        0.334   0.353   5.135   5.821
   30        0.332   0.353   5.134   5.819
   31        0.334   0.351   5.142   5.827
   32        0.334   0.351   5.136   5.821
   33        0.332   0.351   5.135   5.818
   34        0.334   0.353   5.137   5.824
   35        0.333   0.349   5.143   5.826
   36        0.334   0.355   5.131   5.819
   37        0.335   0.355   5.129   5.819
   38        0.333   0.353   5.130   5.816
   39        0.332   0.353   5.136   5.821
   40        0.334   0.351   5.133   5.818
   41        0.334   0.351   5.138   5.822
   42        0.332   0.351   5.143   5.827
   43        0.333   0.354   5.129   5.816
   44        0.333   0.349   5.136   5.818
   45        0.334   0.355   5.126   5.816
   46        0.339   0.358   5.115   5.812
   47        0.333   0.347   5.146   5.826
   48        0.334   0.354   5.129   5.817
   49        0.334   0.356   5.129   5.819
   50        0.333   0.352   5.134   5.819
   51        0.333   0.357   5.125   5.815
   52        0.336   0.353   5.127   5.816
   53        0.331   0.355   5.131   5.817
   54        0.334   0.353   5.137   5.823
--------------------------------------------------
tot         19.940  21.084 138.594 179.618
 


 magnetization (x)
 
# of ion       s       p       d       tot
------------------------------------------
    1       -0.000  -0.002   0.000  -0.002
    2        0.004   0.007   0.000   0.011
    3        0.017   0.031   0.000   0.047
    4        0.004   0.006   0.000   0.009
    5        0.004   0.008   0.000   0.012
    6        0.021   0.038   0.000   0.059
    7       -0.003  -0.008   0.000  -0.011
    8        0.001   0.000   0.000   0.001
    9        0.018   0.029   0.000   0.047
   10        0.000  -0.000   0.000  -0.000
   11        0.001   0.003   0.000   0.003
   12        0.022   0.035   0.000   0.057
   13        0.001   0.001   0.000   0.002
   14        0.001   0.001   0.000   0.002
   15        0.023   0.037   0.000   0.060
   16       -0.001  -0.003   0.000  -0.004
   17       -0.001  -0.000   0.000  -0.001
   18        0.021   0.037   0.000   0.058
   19        0.000  -0.001   0.000  -0.001
   20        0.004   0.007   0.000   0.011
   21        0.017   0.030   0.000   0.047
   22        0.003   0.006   0.000   0.009
   23        0.004   0.008   0.000   0.012
   24        0.021   0.038   0.000   0.059
   25       -0.003  -0.007   0.000  -0.011
   26        0.001   0.000   0.000   0.001
   27        0.018   0.029   0.000   0.046
   28        0.022   0.022   2.327   2.371
   29       -0.016  -0.024  -2.363  -2.403
   30       -0.013  -0.018  -2.344  -2.375
   31        0.012   0.011   2.265   2.287
   32       -0.017  -0.019  -2.372  -2.409
   33       -0.015  -0.013  -2.348  -2.376
   34        0.011   0.015   2.265   2.290
   35       -0.019  -0.016  -2.372  -2.407
   36       -0.025  -0.025  -2.384  -2.434
   37        0.022   0.022   2.325   2.369
   38       -0.016  -0.025  -2.364  -2.405
   39       -0.013  -0.018  -2.345  -2.376
   40        0.013   0.010   2.272   2.295
   41       -0.017  -0.020  -2.373  -2.411
   42       -0.015  -0.014  -2.348  -2.377
   43        0.011   0.015   2.281   2.307
   44       -0.020  -0.016  -2.385  -2.420
   45       -0.025  -0.025  -2.393  -2.443
   46       -0.032  -0.027  -2.401  -2.461
   47       -0.021  -0.012  -2.353  -2.386
   48       -0.028  -0.023  -2.425  -2.476
   49        0.020   0.025   2.274   2.319
   50       -0.018  -0.021  -2.385  -2.425
   51       -0.024  -0.030  -2.381  -2.435
   52        0.027   0.021   2.438   2.485
   53       -0.012  -0.025  -2.231  -2.268
   54        0.031   0.022   2.305   2.358
--------------------------------------------------
tot          0.017   0.116 -21.818 -21.685
 

 total amount of memory used by VASP MPI-rank0   944936. kBytes
=======================================================================

   base      :      30000. kBytes
   nonl-proj :      34214. kBytes
   fftplans  :      31580. kBytes
   grid      :      21385. kBytes
   one-center:        435. kBytes
   wavefun   :     827322. kBytes
 
  
  
 General timing and accounting informations for this job:
 ========================================================
  
                  Total CPU time used (sec):     2777.972
                            User time (sec):     2745.445
                          System time (sec):       32.527
                         Elapsed time (sec):     2836.653
  
                   Maximum memory used (kb):     1109252.
                   Average memory used (kb):           0.
  
                          Minor page faults:       894007
                          Major page faults:           17
                 Voluntary context switches:         3298
