 vasp.5.4.4.18Apr17-6-g9f103f2a35 (build Dec 20 2018 12:05:58) complex          
  
 executed on             LinuxIFC date 2019.06.20  23:27:19
 running on   32 total cores
 distrk:  each k-point on    8 cores,    4 groups
 distr:  one band on NCORES_PER_BAND=   4 cores,    2 groups


--------------------------------------------------------------------------------------------------------


 INCAR:
 POTCAR:    PAW_PBE Al 04Jan2001                  
 POTCAR:    PAW_PBE Mn 06Sep2000                  

 ----------------------------------------------------------------------------- 
|                                                                             |
|           W    W    AA    RRRRR   N    N  II  N    N   GGGG   !!!           |
|           W    W   A  A   R    R  NN   N  II  NN   N  G    G  !!!           |
|           W    W  A    A  R    R  N N  N  II  N N  N  G       !!!           |
|           W WW W  AAAAAA  RRRRR   N  N N  II  N  N N  G  GGG   !            |
|           WW  WW  A    A  R   R   N   NN  II  N   NN  G    G                |
|           W    W  A    A  R    R  N    N  II  N    N   GGGG   !!!           |
|                                                                             |
|      You have enabled k-point parallelism (KPAR>1).                         |
|      This developmental code was originally  written by Paul Kent at ORNL,  |
|      and carefully double checked in Vienna.                                |
|      GW as well as linear response parallelism added by Martijn Marsman     |
|      and Georg Kresse.                                                      |
|      Carefully verify results versus KPAR=1.                                |
|      Report problems to Paul Kent and Vienna.                               |
|                                                                             |
 ----------------------------------------------------------------------------- 

 POTCAR:    PAW_PBE Al 04Jan2001                  
   VRHFIN =Al: s2p1                                                             
   LEXCH  = PE                                                                  
   EATOM  =    53.5387 eV,    3.9350 Ry                                         
                                                                                
   TITEL  = PAW_PBE Al 04Jan2001                                                
   LULTRA =        F    use ultrasoft PP ?                                      
   IUNSCR =        1    unscreen: 0-lin 1-nonlin 2-no                           
   RPACOR =    1.500    partial core radius                                     
   POMASS =   26.981; ZVAL   =    3.000    mass and valenz                      
   RCORE  =    1.900    outmost cutoff radius                                   
   RWIGS  =    2.650; RWIGS  =    1.402    wigner-seitz radius (au A)           
   ENMAX  =  240.300; ENMIN  =  180.225 eV                                      
   ICORE  =        2    local potential                                         
   LCOR   =        T    correct aug charges                                     
   LPAW   =        T    paw PP                                                  
   EAUG   =  291.052                                                            
   DEXC   =    0.000                                                            
   RMAX   =    1.939    core radius for proj-oper                               
   RAUG   =    1.300    factor for augmentation sphere                          
   RDEP   =    1.966    radius for radial grids                                 
   RDEPT  =    1.856    core radius for aug-charge                              
                                                                                
   Atomic configuration                                                         
    6 entries                                                                   
     n  l   j            E        occ.                                          
     1  0  0.50     -1511.1048   2.0000                                         
     2  0  0.50      -108.1629   2.0000                                         
     2  1  1.50       -69.6402   6.0000                                         
     3  0  0.50        -7.7528   2.0000                                         
     3  1  1.50        -2.7121   1.0000                                         
     3  2  2.50        -2.7212   0.0000                                         
   Description                                                                  
     l       E           TYP  RCUT    TYP  RCUT                                 
     0     -7.7528455     23  1.900                                             
     0     -3.3096929     23  1.900                                             
     1     -2.7120682     23  1.900                                             
     1     13.6058260     23  1.900                                             
     2     -2.7211652      7  1.900                                             
  local pseudopotential read in
  partial core-charges read in
  partial kinetic energy density read in
  atomic valenz-charges read in
  non local Contribution for L=           0  read in
    real space projection operators read in
  non local Contribution for L=           0  read in
    real space projection operators read in
  non local Contribution for L=           1  read in
    real space projection operators read in
  non local Contribution for L=           1  read in
    real space projection operators read in
    PAW grid and wavefunctions read in
 
   number of l-projection  operators is LMAX  =           4
   number of lm-projection operators is LMMAX =           8
 
 POTCAR:    PAW_PBE Mn 06Sep2000                  
   VRHFIN =Mn: d6 s1                                                            
   LEXCH  = PE                                                                  
   EATOM  =   416.7541 eV,   30.6306 Ry                                         
                                                                                
   TITEL  = PAW_PBE Mn 06Sep2000                                                
   LULTRA =        F    use ultrasoft PP ?                                      
   IUNSCR =        1    unscreen: 0-lin 1-nonlin 2-no                           
   RPACOR =    2.000    partial core radius                                     
   POMASS =   54.938; ZVAL   =    7.000    mass and valenz                      
   RCORE  =    2.300    outmost cutoff radius                                   
   RWIGS  =    2.500; RWIGS  =    1.323    wigner-seitz radius (au A)           
   ENMAX  =  269.864; ENMIN  =  202.398 eV                                      
   RCLOC  =    1.725    cutoff for local pot                                    
   LCOR   =        T    correct aug charges                                     
   LPAW   =        T    paw PP                                                  
   EAUG   =  500.711                                                            
   DEXC   =    0.000                                                            
   RMAX   =    2.343    core radius for proj-oper                               
   RAUG   =    1.300    factor for augmentation sphere                          
   RDEP   =    2.338    radius for radial grids                                 
   RDEPT  =    1.911    core radius for aug-charge                              
                                                                                
   Atomic configuration                                                         
    9 entries                                                                   
     n  l   j            E        occ.                                          
     1  0  0.50     -6424.8288   2.0000                                         
     2  0  0.50      -739.1154   2.0000                                         
     2  1  1.50      -625.3949   6.0000                                         
     3  0  0.50       -81.6100   2.0000                                         
     3  1  1.50       -50.4667   6.0000                                         
     3  2  2.50        -3.3745   6.0000                                         
     4  0  0.50        -4.1331   1.0000                                         
     4  1  0.50        -4.0817   0.0000                                         
     4  3  2.50        -1.3606   0.0000                                         
   Description                                                                  
     l       E           TYP  RCUT    TYP  RCUT                                 
     2     -3.3744664     23  2.300                                             
     2     -4.7350490     23  2.300                                             
     0     -4.1331408     23  2.300                                             
     0      7.6656614     23  2.300                                             
     1     -2.7211652     23  2.300                                             
     1     20.4087390     23  2.300                                             
  local pseudopotential read in
  partial core-charges read in
  partial kinetic energy density read in
  atomic valenz-charges read in
  non local Contribution for L=           2  read in
    real space projection operators read in
  non local Contribution for L=           2  read in
    real space projection operators read in
  non local Contribution for L=           0  read in
    real space projection operators read in
  non local Contribution for L=           0  read in
    real space projection operators read in
  non local Contribution for L=           1  read in
    real space projection operators read in
  non local Contribution for L=           1  read in
    real space projection operators read in
    PAW grid and wavefunctions read in
 
   number of l-projection  operators is LMAX  =           6
   number of lm-projection operators is LMMAX =          18
 

 ----------------------------------------------------------------------------- 
|                                                                             |
|  ADVICE TO THIS USER RUNNING 'VASP/VAMP'   (HEAR YOUR MASTER'S VOICE ...):  |
|                                                                             |
|      You have a (more or less) 'large supercell' and for larger cells       |
|      it might be more efficient to use real space projection opertators     |
|      So try LREAL= Auto  in the INCAR   file.                               |
|      Mind:          For very  accurate calculation you might also keep the  |
|      reciprocal projection scheme          (i.e. LREAL=.FALSE.)             |
|                                                                             |
 ----------------------------------------------------------------------------- 

  PAW_PBE Al 04Jan2001                  :
 energy of atom  1       EATOM=  -53.5387
 kinetic energy error for atom=    0.0005 (will be added to EATOM!!)
  PAW_PBE Mn 06Sep2000                  :
 energy of atom  2       EATOM= -416.7541
 kinetic energy error for atom=    0.0080 (will be added to EATOM!!)
 
 
 POSCAR: NewRef: 27, @ ['Mn', array([1.37502469, 
  positions in cartesian coordinates
  velocities in cartesian coordinates
  No initial velocities read in
 exchange correlation table for  LEXCH =        8
   RHO(1)=    0.500       N(1)  =     2000
   RHO(2)=  100.500       N(2)  =     4000
 


--------------------------------------------------------------------------------------------------------


 ion  position               nearest neighbor table
   1  0.000  0.000  0.000-  28 2.61  30 2.61  34 2.61  36 2.61  46 2.61  48 2.61  52 2.61  54 2.61
                             4 2.75  10 2.75   7 2.75  19 2.75
   2  0.000  0.000  0.333-  28 2.61  34 2.61  46 2.61  52 2.61  29 2.61  47 2.61  35 2.61  53 2.61
                             5 2.75  11 2.75   8 2.75  20 2.75
   3  0.000  0.000  0.667-  29 2.61  35 2.61  47 2.61  53 2.61  30 2.61  48 2.61  36 2.61  54 2.61
                             6 2.75  12 2.75   9 2.75  21 2.75
   4  0.000  0.333  0.000-  28 2.61  30 2.61  46 2.61  48 2.61  31 2.61  33 2.61  49 2.61  51 2.61
                            13 2.75   1 2.75   7 2.75  22 2.75
   5  0.000  0.333  0.333-  28 2.61  46 2.61  31 2.61  49 2.61  47 2.61  29 2.61  32 2.61  50 2.61
                            14 2.75   2 2.75   8 2.75  23 2.75
   6  0.000  0.333  0.667-  29 2.61  47 2.61  32 2.61  50 2.61  48 2.61  30 2.61  33 2.61  51 2.61
                            15 2.75   3 2.75   9 2.75  24 2.75
   7  0.000  0.667  0.000-  31 2.61  33 2.61  49 2.61  51 2.61  34 2.61  36 2.61  52 2.61  54 2.61
                             4 2.75  16 2.75   1 2.75  25 2.75
   8  0.000  0.667  0.333-  31 2.61  49 2.61  34 2.61  52 2.61  50 2.61  32 2.61  35 2.61  53 2.61
                             5 2.75  17 2.75   2 2.75  26 2.75
   9  0.000  0.667  0.667-  32 2.61  50 2.61  35 2.61  53 2.61  51 2.61  33 2.61  36 2.61  54 2.61
                             6 2.75  18 2.75   3 2.75  27 2.75
  10  0.333  0.000  0.000-  28 2.61  30 2.61  34 2.61  36 2.61  37 2.61  39 2.61  43 2.61  45 2.61
                            19 2.75   1 2.75  13 2.75  16 2.75
  11  0.333  0.000  0.333-  28 2.61  34 2.61  37 2.61  43 2.61  29 2.61  35 2.61  38 2.61  44 2.61
                            20 2.75   2 2.75  14 2.75  17 2.75
  12  0.333  0.000  0.667-  29 2.61  35 2.61  38 2.61  44 2.61  30 2.61  36 2.61  39 2.61  45 2.61
                            21 2.75   3 2.75  15 2.75  18 2.75
  13  0.333  0.333  0.000-  28 2.61  30 2.61  31 2.61  33 2.61  37 2.61  39 2.61  40 2.61  42 2.61
                             4 2.75  10 2.75  16 2.75  22 2.75
  14  0.333  0.333  0.333-  28 2.61  31 2.61  37 2.61  29 2.61  40 2.61  38 2.61  32 2.61  41 2.61
                             5 2.75  11 2.75  17 2.75  23 2.75
  15  0.333  0.333  0.667-  29 2.61  32 2.61  38 2.61  30 2.61  41 2.61  39 2.61  33 2.61  42 2.61
                             6 2.75  12 2.75  18 2.75  24 2.75
  16  0.333  0.667  0.000-  31 2.61  33 2.61  34 2.61  36 2.61  40 2.61  42 2.61  43 2.61  45 2.61
                            25 2.75   7 2.75  13 2.75  10 2.75
  17  0.333  0.667  0.333-  31 2.61  34 2.61  40 2.61  32 2.61  43 2.61  41 2.61  35 2.61  44 2.61
                            26 2.75   8 2.75  14 2.75  11 2.75
  18  0.333  0.667  0.667-  32 2.61  35 2.61  41 2.61  33 2.61  44 2.61  42 2.61  36 2.61  45 2.61
                            27 2.75   9 2.75  15 2.75  12 2.75
  19  0.667  0.000  0.000-  37 2.61  39 2.61  43 2.61  45 2.61  46 2.61  48 2.61  52 2.61  54 2.61
                            10 2.75  22 2.75   1 2.75  25 2.75
  20  0.667  0.000  0.333-  37 2.61  43 2.61  46 2.61  52 2.61  38 2.61  44 2.61  47 2.61  53 2.61
                            11 2.75  23 2.75   2 2.75  26 2.75
  21  0.667  0.000  0.667-  38 2.61  44 2.61  47 2.61  53 2.61  39 2.61  45 2.61  48 2.61  54 2.61
                            12 2.75  24 2.75   3 2.75  27 2.75
  22  0.667  0.333  0.000-  37 2.61  39 2.61  40 2.61  42 2.61  46 2.61  48 2.61  49 2.61  51 2.61
                            25 2.75  13 2.75  19 2.75   4 2.75
  23  0.667  0.333  0.333-  37 2.61  40 2.61  46 2.61  38 2.61  49 2.61  47 2.61  41 2.61  50 2.61
                            26 2.75  14 2.75  20 2.75   5 2.75
  24  0.667  0.333  0.667-  38 2.61  41 2.61  47 2.61  39 2.61  50 2.61  48 2.61  42 2.61  51 2.61
                            27 2.75  15 2.75  21 2.75   6 2.75
  25  0.667  0.667  0.000-  40 2.61  42 2.61  43 2.61  45 2.61  49 2.61  51 2.61  52 2.61  54 2.61
                            16 2.75  22 2.75  19 2.75   7 2.75
  26  0.667  0.667  0.333-  40 2.61  43 2.61  49 2.61  41 2.61  52 2.61  50 2.61  44 2.61  53 2.61
                            17 2.75  23 2.75  20 2.75   8 2.75
  27  0.667  0.667  0.667-  41 2.61  44 2.61  50 2.61  42 2.61  53 2.61  51 2.61  45 2.61  54 2.61
                            18 2.75  24 2.75  21 2.75   9 2.75
  28  0.167  0.167  0.167-  14 2.61  11 2.61   5 2.61  13 2.61   2 2.61  10 2.61   4 2.61   1 2.61
                            31 2.75  37 2.75  34 2.75  46 2.75
  29  0.167  0.167  0.500-  15 2.61  12 2.61   6 2.61  14 2.61   3 2.61  11 2.61   5 2.61   2 2.61
                            32 2.75  38 2.75  35 2.75  47 2.75
  30  0.167  0.167  0.833-  13 2.61  15 2.61  10 2.61  12 2.61   4 2.61   6 2.61   1 2.61   3 2.61
                            33 2.75  39 2.75  36 2.75  48 2.75
  31  0.167  0.500  0.167-  17 2.61  14 2.61   8 2.61  16 2.61   5 2.61  13 2.61   7 2.61   4 2.61
                            28 2.75  34 2.75  40 2.75  49 2.75
  32  0.167  0.500  0.500-  18 2.61  15 2.61   9 2.61  17 2.61   6 2.61  14 2.61   8 2.61   5 2.61
                            29 2.75  35 2.75  41 2.75  50 2.75
  33  0.167  0.500  0.833-  16 2.61  18 2.61  13 2.61  15 2.61   7 2.61   9 2.61   4 2.61   6 2.61
                            30 2.75  36 2.75  42 2.75  51 2.75
  34  0.167  0.833  0.167-  11 2.61  17 2.61   2 2.61   8 2.61  16 2.61  10 2.61   7 2.61   1 2.61
                            31 2.75  43 2.75  28 2.75  52 2.75
  35  0.167  0.833  0.500-  12 2.61  18 2.61   3 2.61   9 2.61  17 2.61  11 2.61   8 2.61   2 2.61
                            32 2.75  44 2.75  29 2.75  53 2.75
  36  0.167  0.833  0.833-  10 2.61  12 2.61  16 2.61  18 2.61   1 2.61   3 2.61   7 2.61   9 2.61
                            33 2.75  45 2.75  30 2.75  54 2.75
  37  0.500  0.167  0.167-  23 2.61  20 2.61  14 2.61  22 2.61  11 2.61  19 2.61  13 2.61  10 2.61
                            28 2.75  40 2.75  46 2.75  43 2.75
  38  0.500  0.167  0.500-  24 2.61  21 2.61  15 2.61  23 2.61  12 2.61  20 2.61  14 2.61  11 2.61
                            29 2.75  41 2.75  47 2.75  44 2.75
  39  0.500  0.167  0.833-  22 2.61  24 2.61  19 2.61  21 2.61  13 2.61  15 2.61  10 2.61  12 2.61
                            30 2.75  42 2.75  48 2.75  45 2.75
  40  0.500  0.500  0.167-  26 2.61  23 2.61  17 2.61  25 2.61  14 2.61  22 2.61  16 2.61  13 2.61
                            31 2.75  37 2.75  43 2.75  49 2.75
  41  0.500  0.500  0.500-  27 2.61  24 2.61  18 2.61  26 2.61  15 2.61  23 2.61  17 2.61  14 2.61
                            32 2.75  38 2.75  44 2.75  50 2.75
  42  0.500  0.500  0.833-  25 2.61  27 2.61  22 2.61  24 2.61  16 2.61  18 2.61  13 2.61  15 2.61
                            33 2.75  39 2.75  45 2.75  51 2.75
  43  0.500  0.833  0.167-  20 2.61  26 2.61  11 2.61  17 2.61  25 2.61  19 2.61  16 2.61  10 2.61
                            34 2.75  40 2.75  52 2.75  37 2.75
  44  0.500  0.833  0.500-  21 2.61  27 2.61  12 2.61  18 2.61  26 2.61  20 2.61  17 2.61  11 2.61
                            35 2.75  41 2.75  53 2.75  38 2.75
  45  0.500  0.833  0.833-  19 2.61  21 2.61  25 2.61  27 2.61  10 2.61  12 2.61  16 2.61  18 2.61
                            36 2.75  42 2.75  54 2.75  39 2.75
  46  0.833  0.167  0.167-   5 2.61  23 2.61  20 2.61   2 2.61  22 2.61   4 2.61  19 2.61   1 2.61
                            37 2.75  49 2.75  28 2.75  52 2.75
  47  0.833  0.167  0.500-   6 2.61  24 2.61  21 2.61   3 2.61  23 2.61   5 2.61  20 2.61   2 2.61
                            38 2.75  50 2.75  29 2.75  53 2.75
  48  0.833  0.167  0.833-   4 2.61   6 2.61  22 2.61  24 2.61  19 2.61  21 2.61   1 2.61   3 2.61
                            39 2.75  51 2.75  30 2.75  54 2.75
  49  0.833  0.500  0.167-   8 2.61  26 2.61  23 2.61   5 2.61  25 2.61   7 2.61  22 2.61   4 2.61
                            40 2.75  46 2.75  52 2.75  31 2.75
  50  0.833  0.500  0.500-   9 2.61  27 2.61  24 2.61   6 2.61  26 2.61   8 2.61  23 2.61   5 2.61
                            41 2.75  47 2.75  53 2.75  32 2.75
  51  0.833  0.500  0.833-   7 2.61   9 2.61  25 2.61  27 2.61  22 2.61  24 2.61   4 2.61   6 2.61
                            42 2.75  48 2.75  54 2.75  33 2.75
  52  0.833  0.833  0.167-   2 2.61   8 2.61  20 2.61  26 2.61  19 2.61   7 2.61  25 2.61   1 2.61
                            43 2.75  49 2.75  46 2.75  34 2.75
  53  0.833  0.833  0.500-   3 2.61   9 2.61  21 2.61  27 2.61  20 2.61   8 2.61  26 2.61   2 2.61
                            44 2.75  50 2.75  47 2.75  35 2.75
  54  0.833  0.833  0.833-   1 2.61   3 2.61   7 2.61   9 2.61  19 2.61  21 2.61  25 2.61  27 2.61
                            45 2.75  51 2.75  48 2.75  36 2.75
 
  LATTYP: Found a simple tetragonal cell.
 ALAT       =     8.2501481662
 C/A-ratio  =     1.2642089792
  
  Lattice vectors:
  
 A1 = (   8.2501481662,   0.0000000000,   0.0000000000)
 A2 = (   0.0000000000,   8.2501481662,   0.0000000000)
 A3 = (   0.0000000000,   0.0000000000,  10.4299113916)


Analysis of symmetry for initial positions (statically):
=====================================================================
 Subroutine PRICEL returns following result:
 
  LATTYP: Found a simple tetragonal cell.
 ALAT       =     2.7500493888
 C/A-ratio  =     1.2642089792
  
  Lattice vectors:
  
 A1 = (   2.7500493888,   0.0000000000,   0.0000000000)
 A2 = (   0.0000000000,   2.7500493888,   0.0000000000)
 A3 = (   0.0000000000,   0.0000000000,   3.4766371306)
 
  27 primitive cells build up your supercell.
 

 Routine SETGRP: Setting up the symmetry group for a 
 simple tetragonal supercell.


 Subroutine GETGRP returns: Found 16 space group operations
 (whereof 16 operations were pure point group operations)
 out of a pool of 16 trial point group operations.


The static configuration has the point symmetry D_4h.


Analysis of symmetry for dynamics (positions and initial velocities):
=====================================================================
 Subroutine PRICEL returns following result:
 
  LATTYP: Found a simple tetragonal cell.
 ALAT       =     2.7500493888
 C/A-ratio  =     1.2642089792
  
  Lattice vectors:
  
 A1 = (   2.7500493888,   0.0000000000,   0.0000000000)
 A2 = (   0.0000000000,   2.7500493888,   0.0000000000)
 A3 = (   0.0000000000,   0.0000000000,   3.4766371306)
 
  27 primitive cells build up your supercell.
 

 Routine SETGRP: Setting up the symmetry group for a 
 simple tetragonal supercell.


 Subroutine GETGRP returns: Found 16 space group operations
 (whereof 16 operations were pure point group operations)
 out of a pool of 16 trial point group operations.


The dynamic configuration has the point symmetry D_4h.


Analysis of structural, dynamic, and magnetic symmetry:
=====================================================================
 Subroutine PRICEL returns:
 Original cell was already a primitive cell.
 

 Routine SETGRP: Setting up the symmetry group for a 
 simple tetragonal supercell.


 Subroutine GETGRP returns: Found  2 space group operations
 (whereof  2 operations were pure point group operations)
 out of a pool of 16 trial point group operations.


The magnetic configuration has the point symmetry C_1h.


 Subroutine INISYM returns: Found  2 space group operations
 (whereof  2 operations are pure point group operations),
 and found     1 'primitive' translations

 
 
 KPOINTS: automatic KPOINTS                       

Automatic generation of k-mesh.
 generate k-points for:    5    5    4
Space group operators:
 irot       det(A)        alpha          n_x          n_y          n_z        tau_x        tau_y        tau_z
    1     1.000000     0.000001     1.000000     0.000000     0.000000     0.000000     0.000000     0.000000
    2    -1.000000   180.000000     0.707107    -0.707107     0.000000     0.000000     0.000000     0.000000
 
 Subroutine IBZKPT returns following result:
 ===========================================
 
 Found     33 irreducible k-points:
 
 Following reciprocal coordinates:
            Coordinates               Weight
  0.000000  0.000000  0.000000      1.000000
  0.200000  0.000000  0.000000      4.000000
  0.400000  0.000000  0.000000      4.000000
  0.200000  0.200000  0.000000      2.000000
  0.400000  0.200000  0.000000      4.000000
 -0.400000  0.200000  0.000000      4.000000
 -0.200000  0.200000  0.000000      2.000000
  0.400000  0.400000  0.000000      2.000000
 -0.400000  0.400000  0.000000      2.000000
  0.000000  0.000000  0.250000      2.000000
  0.200000  0.000000  0.250000      4.000000
  0.400000  0.000000  0.250000      4.000000
 -0.400000  0.000000  0.250000      4.000000
 -0.200000  0.000000  0.250000      4.000000
  0.200000  0.200000  0.250000      2.000000
  0.400000  0.200000  0.250000      4.000000
 -0.400000  0.200000  0.250000      4.000000
 -0.200000  0.200000  0.250000      4.000000
  0.400000  0.400000  0.250000      2.000000
 -0.400000  0.400000  0.250000      4.000000
 -0.200000  0.400000  0.250000      4.000000
 -0.400000 -0.400000  0.250000      2.000000
 -0.200000 -0.400000  0.250000      4.000000
 -0.200000 -0.200000  0.250000      2.000000
  0.000000  0.000000  0.500000      1.000000
  0.200000  0.000000  0.500000      4.000000
  0.400000  0.000000  0.500000      4.000000
  0.200000  0.200000  0.500000      2.000000
  0.400000  0.200000  0.500000      4.000000
 -0.400000  0.200000  0.500000      4.000000
 -0.200000  0.200000  0.500000      2.000000
  0.400000  0.400000  0.500000      2.000000
 -0.400000  0.400000  0.500000      2.000000
 
 Following cartesian coordinates:
            Coordinates               Weight
  0.000000  0.000000  0.000000      1.000000
  0.024242  0.000000  0.000000      4.000000
  0.048484  0.000000  0.000000      4.000000
  0.024242  0.024242  0.000000      2.000000
  0.048484  0.024242  0.000000      4.000000
 -0.048484  0.024242  0.000000      4.000000
 -0.024242  0.024242  0.000000      2.000000
  0.048484  0.048484  0.000000      2.000000
 -0.048484  0.048484  0.000000      2.000000
  0.000000  0.000000  0.023970      2.000000
  0.024242  0.000000  0.023970      4.000000
  0.048484  0.000000  0.023970      4.000000
 -0.048484  0.000000  0.023970      4.000000
 -0.024242  0.000000  0.023970      4.000000
  0.024242  0.024242  0.023970      2.000000
  0.048484  0.024242  0.023970      4.000000
 -0.048484  0.024242  0.023970      4.000000
 -0.024242  0.024242  0.023970      4.000000
  0.048484  0.048484  0.023970      2.000000
 -0.048484  0.048484  0.023970      4.000000
 -0.024242  0.048484  0.023970      4.000000
 -0.048484 -0.048484  0.023970      2.000000
 -0.024242 -0.048484  0.023970      4.000000
 -0.024242 -0.024242  0.023970      2.000000
  0.000000  0.000000  0.047939      1.000000
  0.024242  0.000000  0.047939      4.000000
  0.048484  0.000000  0.047939      4.000000
  0.024242  0.024242  0.047939      2.000000
  0.048484  0.024242  0.047939      4.000000
 -0.048484  0.024242  0.047939      4.000000
 -0.024242  0.024242  0.047939      2.000000
  0.048484  0.048484  0.047939      2.000000
 -0.048484  0.048484  0.047939      2.000000
 


--------------------------------------------------------------------------------------------------------




 Dimension of arrays:
   k-points           NKPTS =     33   k-points in BZ     NKDIM =     33   number of bands    NBANDS=    150
   number of dos      NEDOS =    301   number of ions     NIONS =     54
   non local maximal  LDIM  =      6   non local SUM 2l+1 LMDIM =     18
   total plane-waves  NPLWV = 204120
   max r-space proj   IRMAX =      1   max aug-charges    IRDMAX=  89713
   dimension x,y,z NGX =    54 NGY =   54 NGZ =   70
   dimension x,y,z NGXF=   108 NGYF=  108 NGZF=  140
   support grid    NGXF=   216 NGYF=  216 NGZF=  280
   ions per type =              27  27
   NGX,Y,Z   is equivalent  to a cutoff of  10.88, 10.88, 11.16 a.u.
   NGXF,Y,Z  is equivalent  to a cutoff of  21.76, 21.76, 22.32 a.u.

 SYSTEM =  AlMn_pv                                 
 POSCAR =  NewRef: 27, @ ['Mn', array([1.37502469, 

 Startparameter for this run:
   NWRITE =      2    write-flag & timer
   PREC   = accura    normal or accurate (medium, high low for compatibility)
   ISTART =      0    job   : 0-new  1-cont  2-samecut
   ICHARG =      2    charge: 1-file 2-atom 10-const
   ISPIN  =      2    spin polarized calculation?
   LNONCOLLINEAR =      F non collinear calculations
   LSORBIT =      F    spin-orbit coupling
   INIWAV =      1    electr: 0-lowe 1-rand  2-diag
   LASPH  =      F    aspherical Exc in radial PAW
   METAGGA=      F    non-selfconsistent MetaGGA calc.

 Electronic Relaxation 1
   ENCUT  =  404.8 eV  29.75 Ry    5.45 a.u.  13.53 13.53 17.11*2*pi/ulx,y,z
   ENINI  =  404.8     initial cutoff
   ENAUG  =  500.7 eV  augmentation charge cutoff
   NELM   =    100;   NELMIN=  4; NELMDL= -8     # of ELM steps 
   EDIFF  = 0.1E-06   stopping-criterion for ELM
   LREAL  =      F    real-space projection
   NLSPLINE    = F    spline interpolate recip. space projectors
   LCOMPAT=      F    compatible to vasp.4.4
   GGA_COMPAT  = T    GGA compatible to vasp.4.4-vasp.4.6
   LMAXPAW     = -100 max onsite density
   LMAXMIX     =    2 max onsite mixed and CHGCAR
   VOSKOWN=      0    Vosko Wilk Nusair interpolation
   ROPT   =    0.00000   0.00000
 Ionic relaxation
   EDIFFG = 0.1E-05   stopping-criterion for IOM
   NSW    =      0    number of steps for IOM
   NBLOCK =      1;   KBLOCK =      1    inner block; outer block 
   IBRION =     -1    ionic relax: 0-MD 1-quasi-New 2-CG
   NFREE  =      0    steps in history (QN), initial steepest desc. (CG)
   ISIF   =      2    stress and relaxation
   IWAVPR =     10    prediction:  0-non 1-charg 2-wave 3-comb
   ISYM   =      2    0-nonsym 1-usesym 2-fastsym
   LCORR  =      T    Harris-Foulkes like correction to forces

   POTIM  = 0.2000    time-step for ionic-motion
   TEIN   =    0.0    initial temperature
   TEBEG  =    0.0;   TEEND  =   0.0 temperature during run
   SMASS  =  -3.00    Nose mass-parameter (am)
   estimated Nose-frequenzy (Omega)   =  0.10E-29 period in steps =****** mass=  -0.156E-26a.u.
   SCALEE = 1.0000    scale energy and forces
   NPACO  =    256;   APACO  = 16.0  distance and # of slots for P.C.
   PSTRESS=    0.0 pullay stress

  Mass of Ions in am
   POMASS =  26.98 54.94
  Ionic Valenz
   ZVAL   =   3.00  7.00
  Atomic Wigner-Seitz radii
   RWIGS  =  -1.00 -1.00
  virtual crystal weights 
   VCA    =   1.00  1.00
   NELECT =     270.0000    total number of electrons
   NUPDOWN=      -1.0000    fix difference up-down

 DOS related values:
   EMIN   =  10.00;   EMAX   =-10.00  energy-range for DOS
   EFERMI =   0.00
   ISMEAR =     1;   SIGMA  =   0.20  broadening in eV -4-tet -1-fermi 0-gaus

 Electronic relaxation 2 (details)
   IALGO  =     58    algorithm
   LDIAG  =      T    sub-space diagonalisation (order eigenvalues)
   LSUBROT=      F    optimize rotation matrix (better conditioning)
   TURBO    =      0    0=normal 1=particle mesh
   IRESTART =      0    0=no restart 2=restart with 2 vectors
   NREBOOT  =      0    no. of reboots
   NMIN     =      0    reboot dimension
   EREF     =   0.00    reference energy to select bands
   IMIX   =      4    mixing-type and parameters
     AMIX     =   0.40;   BMIX     =  1.00
     AMIX_MAG =   1.60;   BMIX_MAG =  1.00
     AMIN     =   0.10
     WC   =   100.;   INIMIX=   1;  MIXPRE=   1;  MAXMIX= -45

 Intra band minimization:
   WEIMIN = 0.0000     energy-eigenvalue tresh-hold
   EBREAK =  0.17E-09  absolut break condition
   DEPER  =   0.30     relativ break condition  

   TIME   =   0.40     timestep for ELM

  volume/ion in A,a.u.               =      13.15        88.72
  Fermi-wavevector in a.u.,A,eV,Ry     =   1.186118  2.241439 19.141722  1.406877
  Thomas-Fermi vector in A             =   2.322298
 
 Write flags
   LWAVE        =      F    write WAVECAR
   LDOWNSAMPLE  =      F    k-point downsampling of WAVECAR
   LCHARG       =      F    write CHGCAR
   LVTOT        =      F    write LOCPOT, total local potential
   LVHAR        =      F    write LOCPOT, Hartree potential only
   LELF         =      F    write electronic localiz. function (ELF)
   LORBIT       =     10    0 simple, 1 ext, 2 COOP (PROOUT), +10 PAW based schemes


 Dipole corrections
   LMONO  =      F    monopole corrections only (constant potential shift)
   LDIPOL =      F    correct potential (dipole corrections)
   IDIPOL =      0    1-x, 2-y, 3-z, 4-all directions 
   EPSILON=  1.0000000 bulk dielectric constant

 Exchange correlation treatment:
   GGA     =    --    GGA type
   LEXCH   =     8    internal setting for exchange type
   VOSKOWN=      0    Vosko Wilk Nusair interpolation
   LHFCALC =     F    Hartree Fock is set to
   LHFONE  =     F    Hartree Fock one center treatment
   AEXX    =    0.0000 exact exchange contribution

 Linear response parameters
   LEPSILON=     F    determine dielectric tensor
   LRPA    =     F    only Hartree local field effects (RPA)
   LNABLA  =     F    use nabla operator in PAW spheres
   LVEL    =     F    velocity operator in full k-point grid
   LINTERFAST=   F  fast interpolation
   KINTER  =     0    interpolate to denser k-point grid
   CSHIFT  =0.1000    complex shift for real part using Kramers Kronig
   OMEGAMAX=  -1.0    maximum frequency
   DEG_THRESHOLD= 0.2000000E-02 threshold for treating states as degnerate
   RTIME   =   -0.100 relaxation time in fs
  (WPLASMAI=    0.000 imaginary part of plasma frequency in eV, 0.658/RTIME)
   DFIELD  = 0.0000000 0.0000000 0.0000000 field for delta impulse in time
 
 Orbital magnetization related:
   ORBITALMAG=     F  switch on orbital magnetization
   LCHIMAG   =     F  perturbation theory with respect to B field
   DQ        =  0.001000  dq finite difference perturbation B field
   LLRAUG    =     F  two centre corrections for induced B field



--------------------------------------------------------------------------------------------------------


 Static calculation
 charge density and potential will be updated during run
 spin polarized calculation
 Conjugate gradient for all bands (Freysoldt, et al. PRB 79, 241103 (2009))
 preconditioned conjugated gradient                                        
 perform sub-space diagonalisation
    before iterative eigenvector-optimisation
 modified Broyden-mixing scheme, WC =      100.0
 initial mixing is a Kerker type mixing with AMIX =  0.4000 and BMIX =      1.0000
 Hartree-type preconditioning will be used
 using additional bands           15
 reciprocal scheme for non local part
 use partial core corrections
 no Harris-corrections to forces 
 use gradient corrections 
 use of overlap-Matrix (Vanderbilt PP)
 Methfessel and Paxton  Order N= 1 SIGMA  =   0.20


--------------------------------------------------------------------------------------------------------


  energy-cutoff  :      404.80
  volume of cell :      709.91
      direct lattice vectors                 reciprocal lattice vectors
     8.250148166  0.000000000  0.000000000     0.121209944  0.000000000  0.000000000
     0.000000000  8.250148166  0.000000000     0.000000000  0.121209944  0.000000000
     0.000000000  0.000000000 10.429911392     0.000000000  0.000000000  0.095878092

  length of vectors
     8.250148166  8.250148166 10.429911392     0.121209944  0.121209944  0.095878092


 
 k-points in units of 2pi/SCALE and weight: automatic KPOINTS                       
   0.00000000  0.00000000  0.00000000       0.010
   0.02424199  0.00000000  0.00000000       0.040
   0.04848398  0.00000000  0.00000000       0.040
   0.02424199  0.02424199  0.00000000       0.020
   0.04848398  0.02424199  0.00000000       0.040
  -0.04848398  0.02424199  0.00000000       0.040
  -0.02424199  0.02424199  0.00000000       0.020
   0.04848398  0.04848398  0.00000000       0.020
  -0.04848398  0.04848398  0.00000000       0.020
   0.00000000  0.00000000  0.02396952       0.020
   0.02424199  0.00000000  0.02396952       0.040
   0.04848398  0.00000000  0.02396952       0.040
  -0.04848398  0.00000000  0.02396952       0.040
  -0.02424199  0.00000000  0.02396952       0.040
   0.02424199  0.02424199  0.02396952       0.020
   0.04848398  0.02424199  0.02396952       0.040
  -0.04848398  0.02424199  0.02396952       0.040
  -0.02424199  0.02424199  0.02396952       0.040
   0.04848398  0.04848398  0.02396952       0.020
  -0.04848398  0.04848398  0.02396952       0.040
  -0.02424199  0.04848398  0.02396952       0.040
  -0.04848398 -0.04848398  0.02396952       0.020
  -0.02424199 -0.04848398  0.02396952       0.040
  -0.02424199 -0.02424199  0.02396952       0.020
   0.00000000  0.00000000  0.04793905       0.010
   0.02424199  0.00000000  0.04793905       0.040
   0.04848398  0.00000000  0.04793905       0.040
   0.02424199  0.02424199  0.04793905       0.020
   0.04848398  0.02424199  0.04793905       0.040
  -0.04848398  0.02424199  0.04793905       0.040
  -0.02424199  0.02424199  0.04793905       0.020
   0.04848398  0.04848398  0.04793905       0.020
  -0.04848398  0.04848398  0.04793905       0.020
 
 k-points in reciprocal lattice and weights: automatic KPOINTS                       
   0.00000000  0.00000000  0.00000000       0.010
   0.20000000  0.00000000  0.00000000       0.040
   0.40000000  0.00000000  0.00000000       0.040
   0.20000000  0.20000000  0.00000000       0.020
   0.40000000  0.20000000  0.00000000       0.040
  -0.40000000  0.20000000  0.00000000       0.040
  -0.20000000  0.20000000  0.00000000       0.020
   0.40000000  0.40000000  0.00000000       0.020
  -0.40000000  0.40000000  0.00000000       0.020
   0.00000000  0.00000000  0.25000000       0.020
   0.20000000  0.00000000  0.25000000       0.040
   0.40000000  0.00000000  0.25000000       0.040
  -0.40000000  0.00000000  0.25000000       0.040
  -0.20000000  0.00000000  0.25000000       0.040
   0.20000000  0.20000000  0.25000000       0.020
   0.40000000  0.20000000  0.25000000       0.040
  -0.40000000  0.20000000  0.25000000       0.040
  -0.20000000  0.20000000  0.25000000       0.040
   0.40000000  0.40000000  0.25000000       0.020
  -0.40000000  0.40000000  0.25000000       0.040
  -0.20000000  0.40000000  0.25000000       0.040
  -0.40000000 -0.40000000  0.25000000       0.020
  -0.20000000 -0.40000000  0.25000000       0.040
  -0.20000000 -0.20000000  0.25000000       0.020
   0.00000000  0.00000000  0.50000000       0.010
   0.20000000  0.00000000  0.50000000       0.040
   0.40000000  0.00000000  0.50000000       0.040
   0.20000000  0.20000000  0.50000000       0.020
   0.40000000  0.20000000  0.50000000       0.040
  -0.40000000  0.20000000  0.50000000       0.040
  -0.20000000  0.20000000  0.50000000       0.020
   0.40000000  0.40000000  0.50000000       0.020
  -0.40000000  0.40000000  0.50000000       0.020
 
 position of ions in fractional coordinates (direct lattice) 
   0.00000000  0.00000000  0.00000000
   0.00000000  0.00000000  0.33333333
   0.00000000  0.00000000  0.66666667
   0.00000000  0.33333333  0.00000000
   0.00000000  0.33333333  0.33333333
   0.00000000  0.33333333  0.66666667
   0.00000000  0.66666667  0.00000000
   0.00000000  0.66666667  0.33333333
   0.00000000  0.66666667  0.66666667
   0.33333333  0.00000000  0.00000000
   0.33333333  0.00000000  0.33333333
   0.33333333  0.00000000  0.66666667
   0.33333333  0.33333333  0.00000000
   0.33333333  0.33333333  0.33333333
   0.33333333  0.33333333  0.66666667
   0.33333333  0.66666667  0.00000000
   0.33333333  0.66666667  0.33333333
   0.33333333  0.66666667  0.66666667
   0.66666667  0.00000000  0.00000000
   0.66666667  0.00000000  0.33333333
   0.66666667  0.00000000  0.66666667
   0.66666667  0.33333333  0.00000000
   0.66666667  0.33333333  0.33333333
   0.66666667  0.33333333  0.66666667
   0.66666667  0.66666667  0.00000000
   0.66666667  0.66666667  0.33333333
   0.66666667  0.66666667  0.66666667
   0.16666667  0.16666667  0.16666667
   0.16666667  0.16666667  0.50000000
   0.16666667  0.16666667  0.83333333
   0.16666667  0.50000000  0.16666667
   0.16666667  0.50000000  0.50000000
   0.16666667  0.50000000  0.83333333
   0.16666667  0.83333333  0.16666667
   0.16666667  0.83333333  0.50000000
   0.16666667  0.83333333  0.83333333
   0.50000000  0.16666667  0.16666667
   0.50000000  0.16666667  0.50000000
   0.50000000  0.16666667  0.83333333
   0.50000000  0.50000000  0.16666667
   0.50000000  0.50000000  0.50000000
   0.50000000  0.50000000  0.83333333
   0.50000000  0.83333333  0.16666667
   0.50000000  0.83333333  0.50000000
   0.50000000  0.83333333  0.83333333
   0.83333333  0.16666667  0.16666667
   0.83333333  0.16666667  0.50000000
   0.83333333  0.16666667  0.83333333
   0.83333333  0.50000000  0.16666667
   0.83333333  0.50000000  0.50000000
   0.83333333  0.50000000  0.83333333
   0.83333333  0.83333333  0.16666667
   0.83333333  0.83333333  0.50000000
   0.83333333  0.83333333  0.83333333
 
 position of ions in cartesian coordinates  (Angst):
   0.00000000  0.00000000  0.00000000
   0.00000000  0.00000000  3.47663713
   0.00000000  0.00000000  6.95327426
   0.00000000  2.75004939  0.00000000
   0.00000000  2.75004939  3.47663713
   0.00000000  2.75004939  6.95327426
   0.00000000  5.50009878  0.00000000
   0.00000000  5.50009878  3.47663713
   0.00000000  5.50009878  6.95327426
   2.75004939  0.00000000  0.00000000
   2.75004939  0.00000000  3.47663713
   2.75004939  0.00000000  6.95327426
   2.75004939  2.75004939  0.00000000
   2.75004939  2.75004939  3.47663713
   2.75004939  2.75004939  6.95327426
   2.75004939  5.50009878  0.00000000
   2.75004939  5.50009878  3.47663713
   2.75004939  5.50009878  6.95327426
   5.50009878  0.00000000  0.00000000
   5.50009878  0.00000000  3.47663713
   5.50009878  0.00000000  6.95327426
   5.50009878  2.75004939  0.00000000
   5.50009878  2.75004939  3.47663713
   5.50009878  2.75004939  6.95327426
   5.50009878  5.50009878  0.00000000
   5.50009878  5.50009878  3.47663713
   5.50009878  5.50009878  6.95327426
   1.37502469  1.37502469  1.73831857
   1.37502469  1.37502469  5.21495570
   1.37502469  1.37502469  8.69159283
   1.37502469  4.12507408  1.73831857
   1.37502469  4.12507408  5.21495570
   1.37502469  4.12507408  8.69159283
   1.37502469  6.87512347  1.73831857
   1.37502469  6.87512347  5.21495570
   1.37502469  6.87512347  8.69159283
   4.12507408  1.37502469  1.73831857
   4.12507408  1.37502469  5.21495570
   4.12507408  1.37502469  8.69159283
   4.12507408  4.12507408  1.73831857
   4.12507408  4.12507408  5.21495570
   4.12507408  4.12507408  8.69159283
   4.12507408  6.87512347  1.73831857
   4.12507408  6.87512347  5.21495570
   4.12507408  6.87512347  8.69159283
   6.87512347  1.37502469  1.73831857
   6.87512347  1.37502469  5.21495570
   6.87512347  1.37502469  8.69159283
   6.87512347  4.12507408  1.73831857
   6.87512347  4.12507408  5.21495570
   6.87512347  4.12507408  8.69159283
   6.87512347  6.87512347  1.73831857
   6.87512347  6.87512347  5.21495570
   6.87512347  6.87512347  8.69159283
 


--------------------------------------------------------------------------------------------------------


 k-point  1 :   0.0000 0.0000 0.0000  plane waves:   13099
 k-point  2 :   0.2000 0.0000 0.0000  plane waves:   13101
 k-point  3 :   0.4000 0.0000 0.0000  plane waves:   13111
 k-point  4 :   0.2000 0.2000 0.0000  plane waves:   13137
 k-point  5 :   0.4000 0.2000 0.0000  plane waves:   13119
 k-point  6 :  -0.4000 0.2000 0.0000  plane waves:   13119
 k-point  7 :  -0.2000 0.2000 0.0000  plane waves:   13137
 k-point  8 :   0.4000 0.4000 0.0000  plane waves:   13129
 k-point  9 :  -0.4000 0.4000 0.0000  plane waves:   13129
 k-point 10 :   0.0000 0.0000 0.2500  plane waves:   13134
 k-point 11 :   0.2000 0.0000 0.2500  plane waves:   13149
 k-point 12 :   0.4000 0.0000 0.2500  plane waves:   13119
 k-point 13 :  -0.4000 0.0000 0.2500  plane waves:   13119
 k-point 14 :  -0.2000 0.0000 0.2500  plane waves:   13149
 k-point 15 :   0.2000 0.2000 0.2500  plane waves:   13145
 k-point 16 :   0.4000 0.2000 0.2500  plane waves:   13134
 k-point 17 :  -0.4000 0.2000 0.2500  plane waves:   13134
 k-point 18 :  -0.2000 0.2000 0.2500  plane waves:   13145
 k-point 19 :   0.4000 0.4000 0.2500  plane waves:   13108
 k-point 20 :  -0.4000 0.4000 0.2500  plane waves:   13108
 k-point 21 :  -0.2000 0.4000 0.2500  plane waves:   13134
 k-point 22 :  -0.4000-0.4000 0.2500  plane waves:   13108
 k-point 23 :  -0.2000-0.4000 0.2500  plane waves:   13134
 k-point 24 :  -0.2000-0.2000 0.2500  plane waves:   13145
 k-point 25 :   0.0000 0.0000 0.5000  plane waves:   13186
 k-point 26 :   0.2000 0.0000 0.5000  plane waves:   13124
 k-point 27 :   0.4000 0.0000 0.5000  plane waves:   13152
 k-point 28 :   0.2000 0.2000 0.5000  plane waves:   13136
 k-point 29 :   0.4000 0.2000 0.5000  plane waves:   13128
 k-point 30 :  -0.4000 0.2000 0.5000  plane waves:   13128
 k-point 31 :  -0.2000 0.2000 0.5000  plane waves:   13136
 k-point 32 :   0.4000 0.4000 0.5000  plane waves:   13112
 k-point 33 :  -0.4000 0.4000 0.5000  plane waves:   13112

 maximum and minimum number of plane-waves per node :      3313     3260

 maximum number of plane-waves:     13186
 maximum index in each direction: 
   IXMAX=   13   IYMAX=   13   IZMAX=   17
   IXMIN=  -13   IYMIN=  -13   IZMIN=  -17


 parallel 3D FFT for wavefunctions:
    minimum data exchange during FFTs selected (reduces bandwidth)
 parallel 3D FFT for charge:
    minimum data exchange during FFTs selected (reduces bandwidth)


 total amount of memory used by VASP MPI-rank0   942951. kBytes
=======================================================================

   base      :      30000. kBytes
   nonl-proj :      34131. kBytes
   fftplans  :      31580. kBytes
   grid      :      21385. kBytes
   one-center:        435. kBytes
   wavefun   :     825420. kBytes
 
     INWAV:  cpu time    0.0000: real time    0.0000
 Broyden mixing: mesh for mixing (old mesh)
   NGX = 27   NGY = 27   NGZ = 35
  (NGX  =108   NGY  =108   NGZ  =140)
  gives a total of  25515 points

 initial charge density was supplied:
 charge density of overlapping atoms calculated
 number of electron     270.0000000 magnetization     -27.0000000
 keeping initial charge density in first step


--------------------------------------------------------------------------------------------------------


 Maximum index for augmentation-charges        10967 (set IRDMAX)


--------------------------------------------------------------------------------------------------------


 First call to EWALD:  gamma=   0.199
 Maximum number of real-space cells 3x 3x 2
 Maximum number of reciprocal cells 3x 3x 3

    FEWALD:  cpu time    0.0109: real time    0.0109


--------------------------------------- Iteration      1(   1)  ---------------------------------------


    POTLOK:  cpu time    0.3957: real time    0.3960
    SETDIJ:  cpu time    0.4761: real time    0.4761
    TRIAL :  cpu time   32.9297: real time   33.8176
    CORREC:  cpu time    0.0060: real time    0.0069
    --------------------------------------------
      LOOP:  cpu time   34.0882: real time   34.9838

 eigenvalue-minimisations  : 19800
 total energy-change (2. order) : 0.2114373E+04  (-0.8526145E+04)
 number of electron     270.0000000 magnetization     -27.0000000
 augmentation part      270.0000000 magnetization     -27.0000000

 Free energy of the ion-electron system (eV)
  ---------------------------------------------------
  alpha Z        PSCENC =       798.38614055
  Ewald energy   TEWEN  =    -12901.57693327
  -Hartree energ DENC   =     -2855.60785864
  -exchange      EXHF   =         0.00000000
  -V(xc)+E(xc)   XCENC  =      -996.10899525
  PAW double counting   =     12741.82587617   -11476.22345381
  entropy T*S    EENTRO =        -0.00011073
  eigenvalues    EBANDS =      4106.00413976
  atomic energy  EATOM  =     12697.67401269
  ---------------------------------------------------
  free energy    TOTEN  =      2114.37281745 eV

  energy without entropy =     2114.37292819  energy(sigma->0) =     2114.37285436


--------------------------------------------------------------------------------------------------------




--------------------------------------- Iteration      1(   2)  ---------------------------------------


    TRIAL :  cpu time   33.0802: real time   33.3702
    CORREC:  cpu time    0.0075: real time    0.0084
    --------------------------------------------
      LOOP:  cpu time   33.0910: real time   33.3820

 eigenvalue-minimisations  : 19800
 total energy-change (2. order) :-0.2125003E+04  (-0.2105723E+04)
 number of electron     270.0000000 magnetization     -27.0000000
 augmentation part      270.0000000 magnetization     -27.0000000

 Free energy of the ion-electron system (eV)
  ---------------------------------------------------
  alpha Z        PSCENC =       798.38614055
  Ewald energy   TEWEN  =    -12901.57693327
  -Hartree energ DENC   =     -2855.60785864
  -exchange      EXHF   =         0.00000000
  -V(xc)+E(xc)   XCENC  =      -996.10899525
  PAW double counting   =     12741.82587617   -11476.22345381
  entropy T*S    EENTRO =        -0.00666373
  eigenvalues    EBANDS =      1981.00790974
  atomic energy  EATOM  =     12697.67401269
  ---------------------------------------------------
  free energy    TOTEN  =       -10.62996557 eV

  energy without entropy =      -10.62330184  energy(sigma->0) =      -10.62774432


--------------------------------------------------------------------------------------------------------




--------------------------------------- Iteration      1(   3)  ---------------------------------------


    TRIAL :  cpu time   46.6631: real time   47.3656
    CORREC:  cpu time    0.0089: real time    0.0098
    --------------------------------------------
      LOOP:  cpu time   46.6729: real time   47.3783

 eigenvalue-minimisations  : 30334
 total energy-change (2. order) :-0.3206980E+03  (-0.3030297E+03)
 number of electron     270.0000000 magnetization     -27.0000000
 augmentation part      270.0000000 magnetization     -27.0000000

 Free energy of the ion-electron system (eV)
  ---------------------------------------------------
  alpha Z        PSCENC =       798.38614055
  Ewald energy   TEWEN  =    -12901.57693327
  -Hartree energ DENC   =     -2855.60785864
  -exchange      EXHF   =         0.00000000
  -V(xc)+E(xc)   XCENC  =      -996.10899525
  PAW double counting   =     12741.82587617   -11476.22345381
  entropy T*S    EENTRO =         0.00264129
  eigenvalues    EBANDS =      1660.30056158
  atomic energy  EATOM  =     12697.67401269
  ---------------------------------------------------
  free energy    TOTEN  =      -331.32800870 eV

  energy without entropy =     -331.33064999  energy(sigma->0) =     -331.32888913


--------------------------------------------------------------------------------------------------------




--------------------------------------- Iteration      1(   4)  ---------------------------------------


    TRIAL :  cpu time   49.5519: real time   50.2499
    CORREC:  cpu time    0.0094: real time    0.0102
    --------------------------------------------
      LOOP:  cpu time   49.5627: real time   50.2636

 eigenvalue-minimisations  : 32648
 total energy-change (2. order) :-0.6090811E+02  (-0.5697302E+02)
 number of electron     270.0000000 magnetization     -27.0000000
 augmentation part      270.0000000 magnetization     -27.0000000

 Free energy of the ion-electron system (eV)
  ---------------------------------------------------
  alpha Z        PSCENC =       798.38614055
  Ewald energy   TEWEN  =    -12901.57693327
  -Hartree energ DENC   =     -2855.60785864
  -exchange      EXHF   =         0.00000000
  -V(xc)+E(xc)   XCENC  =      -996.10899525
  PAW double counting   =     12741.82587617   -11476.22345381
  entropy T*S    EENTRO =         0.00867929
  eigenvalues    EBANDS =      1599.38641201
  atomic energy  EATOM  =     12697.67401269
  ---------------------------------------------------
  free energy    TOTEN  =      -392.23612028 eV

  energy without entropy =     -392.24479956  energy(sigma->0) =     -392.23901337


--------------------------------------------------------------------------------------------------------




--------------------------------------- Iteration      1(   5)  ---------------------------------------


    TRIAL :  cpu time   50.7267: real time   51.8203
    CORREC:  cpu time    0.0095: real time    0.0097
    --------------------------------------------
      LOOP:  cpu time   50.7394: real time   51.8334

 eigenvalue-minimisations  : 34032
 total energy-change (2. order) :-0.9574634E+01  (-0.9064683E+01)
 number of electron     270.0000000 magnetization     -27.0000000
 augmentation part      270.0000000 magnetization     -27.0000000

 Free energy of the ion-electron system (eV)
  ---------------------------------------------------
  alpha Z        PSCENC =       798.38614055
  Ewald energy   TEWEN  =    -12901.57693327
  -Hartree energ DENC   =     -2855.60785864
  -exchange      EXHF   =         0.00000000
  -V(xc)+E(xc)   XCENC  =      -996.10899525
  PAW double counting   =     12741.82587617   -11476.22345381
  entropy T*S    EENTRO =         0.00508592
  eigenvalues    EBANDS =      1589.81537166
  atomic energy  EATOM  =     12697.67401269
  ---------------------------------------------------
  free energy    TOTEN  =      -401.81075400 eV

  energy without entropy =     -401.81583992  energy(sigma->0) =     -401.81244931


--------------------------------------------------------------------------------------------------------




--------------------------------------- Iteration      1(   6)  ---------------------------------------


    TRIAL :  cpu time   50.4258: real time   50.7600
    CORREC:  cpu time    0.0155: real time    0.0163
    --------------------------------------------
      LOOP:  cpu time   50.4450: real time   50.7801

 eigenvalue-minimisations  : 33776
 total energy-change (2. order) :-0.1649488E+01  (-0.1561756E+01)
 number of electron     270.0000000 magnetization     -27.0000000
 augmentation part      270.0000000 magnetization     -27.0000000

 Free energy of the ion-electron system (eV)
  ---------------------------------------------------
  alpha Z        PSCENC =       798.38614055
  Ewald energy   TEWEN  =    -12901.57693327
  -Hartree energ DENC   =     -2855.60785864
  -exchange      EXHF   =         0.00000000
  -V(xc)+E(xc)   XCENC  =      -996.10899525
  PAW double counting   =     12741.82587617   -11476.22345381
  entropy T*S    EENTRO =        -0.00044773
  eigenvalues    EBANDS =      1588.17141680
  atomic energy  EATOM  =     12697.67401269
  ---------------------------------------------------
  free energy    TOTEN  =      -403.46024250 eV

  energy without entropy =     -403.45979477  energy(sigma->0) =     -403.46009326


--------------------------------------------------------------------------------------------------------




--------------------------------------- Iteration      1(   7)  ---------------------------------------


    TRIAL :  cpu time   51.0813: real time   52.2551
    CORREC:  cpu time    0.0093: real time    0.0102
    --------------------------------------------
      LOOP:  cpu time   51.0916: real time   52.2687

 eigenvalue-minimisations  : 34232
 total energy-change (2. order) :-0.4420971E+00  (-0.4212052E+00)
 number of electron     270.0000000 magnetization     -27.0000000
 augmentation part      270.0000000 magnetization     -27.0000000

 Free energy of the ion-electron system (eV)
  ---------------------------------------------------
  alpha Z        PSCENC =       798.38614055
  Ewald energy   TEWEN  =    -12901.57693327
  -Hartree energ DENC   =     -2855.60785864
  -exchange      EXHF   =         0.00000000
  -V(xc)+E(xc)   XCENC  =      -996.10899525
  PAW double counting   =     12741.82587617   -11476.22345381
  entropy T*S    EENTRO =        -0.00146654
  eigenvalues    EBANDS =      1587.73033854
  atomic energy  EATOM  =     12697.67401269
  ---------------------------------------------------
  free energy    TOTEN  =      -403.90233957 eV

  energy without entropy =     -403.90087303  energy(sigma->0) =     -403.90185072


--------------------------------------------------------------------------------------------------------




--------------------------------------- Iteration      1(   8)  ---------------------------------------


    TRIAL :  cpu time   49.7399: real time   50.9384
    CORREC:  cpu time    0.0099: real time    0.0108
    CHARGE:  cpu time    1.6380: real time    1.6378
    --------------------------------------------
      LOOP:  cpu time   51.3891: real time   52.5913

 eigenvalue-minimisations  : 33320
 total energy-change (2. order) :-0.1552802E+00  (-0.1488155E+00)
 number of electron     269.9999995 magnetization     -18.8408248
 augmentation part       64.2176932 magnetization     -10.9377336

 Free energy of the ion-electron system (eV)
  ---------------------------------------------------
  alpha Z        PSCENC =       798.38614055
  Ewald energy   TEWEN  =    -12901.57693327
  -Hartree energ DENC   =     -2855.60785864
  -exchange      EXHF   =         0.00000000
  -V(xc)+E(xc)   XCENC  =      -996.10899525
  PAW double counting   =     12741.82587617   -11476.22345381
  entropy T*S    EENTRO =        -0.00280972
  eigenvalues    EBANDS =      1587.57640154
  atomic energy  EATOM  =     12697.67401269
  ---------------------------------------------------
  free energy    TOTEN  =      -404.05761975 eV

  energy without entropy =     -404.05481003  energy(sigma->0) =     -404.05668318


--------------------------------------------------------------------------------------------------------




--------------------------------------- Iteration      1(   9)  ---------------------------------------


    POTLOK:  cpu time    0.3974: real time    0.3974
    SETDIJ:  cpu time    0.4822: real time    0.4821
    TRIAL :  cpu time   16.5656: real time   17.2937
    CORREC:  cpu time    5.1232: real time    5.2106
    CHARGE:  cpu time    1.6329: real time    1.6912
    --------------------------------------------
      LOOP:  cpu time   24.2238: real time   25.0990

 eigenvalue-minimisations  :     0
 total energy-change (2. order) : 0.2998882E+03  (-0.2194974E+03)
 number of electron     269.9999993 magnetization     -19.6327029
 augmentation part       82.6203194 magnetization     -12.9461880

 Free energy of the ion-electron system (eV)
  ---------------------------------------------------
  alpha Z        PSCENC =       798.38614055
  Ewald energy   TEWEN  =    -12901.57693327
  -Hartree energ DENC   =     -1274.32544488
  -exchange      EXHF   =         0.00000000
  -V(xc)+E(xc)   XCENC  =     -1041.68723311
  PAW double counting   =     19171.99092600   -17752.60921267
  entropy T*S    EENTRO =         0.01157172
  eigenvalues    EBANDS =       197.98108794
  atomic energy  EATOM  =     12697.67401269
  ---------------------------------------------------
  free energy    TOTEN  =      -104.16946647 eV

  energy without entropy =     -104.18103819  energy(sigma->0) =     -104.17332371


--------------------------------------------------------------------------------------------------------




--------------------------------------- Iteration      1(  10)  ---------------------------------------


    POTLOK:  cpu time    0.3928: real time    0.3929
    SETDIJ:  cpu time    0.4594: real time    0.4596
    TRIAL :  cpu time   16.6085: real time   16.7388
    CORREC:  cpu time    5.0686: real time    5.1547
    CHARGE:  cpu time    1.6357: real time    1.6437
    --------------------------------------------
      LOOP:  cpu time   24.1874: real time   24.4138

 eigenvalue-minimisations  :     0
 total energy-change (2. order) :-0.2137486E+03  (-0.1264649E+02)
 number of electron     269.9999993 magnetization     -19.6581732
 augmentation part       87.3743289 magnetization     -13.4274332

 Free energy of the ion-electron system (eV)
  ---------------------------------------------------
  alpha Z        PSCENC =       798.38614055
  Ewald energy   TEWEN  =    -12901.57693327
  -Hartree energ DENC   =     -2110.89545533
  -exchange      EXHF   =         0.00000000
  -V(xc)+E(xc)   XCENC  =     -1012.74781850
  PAW double counting   =     20647.30818054   -19410.25131939
  entropy T*S    EENTRO =         0.00191539
  eigenvalues    EBANDS =       974.17356907
  atomic energy  EATOM  =     12697.67401269
  ---------------------------------------------------
  free energy    TOTEN  =      -317.91805192 eV

  energy without entropy =     -317.91996732  energy(sigma->0) =     -317.91869039


--------------------------------------------------------------------------------------------------------




--------------------------------------- Iteration      1(  11)  ---------------------------------------


    POTLOK:  cpu time    0.3920: real time    0.3921
    SETDIJ:  cpu time    0.5111: real time    0.5113
    TRIAL :  cpu time   16.5949: real time   16.6974
    CORREC:  cpu time    6.0179: real time    6.0203
    CHARGE:  cpu time    1.6341: real time    1.6466
    --------------------------------------------
      LOOP:  cpu time   25.1602: real time   25.2793

 eigenvalue-minimisations  :     0
 total energy-change (2. order) :-0.1251644E+02  (-0.1537592E+02)
 number of electron     269.9999993 magnetization     -19.5068473
 augmentation part       88.6283899 magnetization     -13.5050197

 Free energy of the ion-electron system (eV)
  ---------------------------------------------------
  alpha Z        PSCENC =       798.38614055
  Ewald energy   TEWEN  =    -12901.57693327
  -Hartree energ DENC   =     -2394.74331055
  -exchange      EXHF   =         0.00000000
  -V(xc)+E(xc)   XCENC  =     -1002.80852851
  PAW double counting   =     21763.19440412   -20573.22014364
  entropy T*S    EENTRO =        -0.01286648
  eigenvalues    EBANDS =      1282.65794742
  atomic energy  EATOM  =     12697.67401269
  ---------------------------------------------------
  free energy    TOTEN  =      -330.43449579 eV

  energy without entropy =     -330.42162931  energy(sigma->0) =     -330.43020697


--------------------------------------------------------------------------------------------------------




--------------------------------------- Iteration      1(  12)  ---------------------------------------


    POTLOK:  cpu time    0.3924: real time    0.3924
    SETDIJ:  cpu time    0.4772: real time    0.4773
    TRIAL :  cpu time   16.6295: real time   17.6158
    CORREC:  cpu time    5.1258: real time    5.1529
    CHARGE:  cpu time    1.6522: real time    1.6558
    --------------------------------------------
      LOOP:  cpu time   24.2894: real time   25.3082

 eigenvalue-minimisations  :     0
 total energy-change (2. order) :-0.1533050E+02  (-0.5930838E+01)
 number of electron     269.9999993 magnetization     -19.1930512
 augmentation part       86.7952658 magnetization     -13.3057596

 Free energy of the ion-electron system (eV)
  ---------------------------------------------------
  alpha Z        PSCENC =       798.38614055
  Ewald energy   TEWEN  =    -12901.57693327
  -Hartree energ DENC   =     -2576.76355667
  -exchange      EXHF   =         0.00000000
  -V(xc)+E(xc)   XCENC  =      -997.53345852
  PAW double counting   =     21659.27152323   -20455.67731631
  entropy T*S    EENTRO =        -0.01704899
  eigenvalues    EBANDS =      1430.46746286
  atomic energy  EATOM  =     12697.67401269
  ---------------------------------------------------
  free energy    TOTEN  =      -345.76499193 eV

  energy without entropy =     -345.74794294  energy(sigma->0) =     -345.75930893


--------------------------------------------------------------------------------------------------------




--------------------------------------- Iteration      1(  13)  ---------------------------------------


    POTLOK:  cpu time    0.3918: real time    0.3918
    SETDIJ:  cpu time    0.4728: real time    0.4727
    TRIAL :  cpu time   16.5945: real time   16.7377
    CORREC:  cpu time    5.1397: real time    5.1529
    CHARGE:  cpu time    1.6331: real time    1.6418
    --------------------------------------------
      LOOP:  cpu time   24.2339: real time   24.3995

 eigenvalue-minimisations  :     0
 total energy-change (2. order) :-0.5830269E+01  (-0.1232950E+01)
 number of electron     269.9999993 magnetization     -19.1222926
 augmentation part       85.7267284 magnetization     -13.1034702

 Free energy of the ion-electron system (eV)
  ---------------------------------------------------
  alpha Z        PSCENC =       798.38614055
  Ewald energy   TEWEN  =    -12901.57693327
  -Hartree energ DENC   =     -2522.23750897
  -exchange      EXHF   =         0.00000000
  -V(xc)+E(xc)   XCENC  =     -1000.08531068
  PAW double counting   =     21299.86434785   -20061.81189042
  entropy T*S    EENTRO =        -0.01669357
  eigenvalues    EBANDS =      1338.20893043
  atomic energy  EATOM  =     12697.67401269
  ---------------------------------------------------
  free energy    TOTEN  =      -351.59526081 eV

  energy without entropy =     -351.57856724  energy(sigma->0) =     -351.58969629


--------------------------------------------------------------------------------------------------------




--------------------------------------- Iteration      1(  14)  ---------------------------------------


    POTLOK:  cpu time    0.3917: real time    0.3917
    SETDIJ:  cpu time    0.4609: real time    0.4609
    TRIAL :  cpu time   16.5443: real time   17.3808
    CORREC:  cpu time    5.0272: real time    5.1720
    CHARGE:  cpu time    1.6392: real time    1.6391
    --------------------------------------------
      LOOP:  cpu time   24.0759: real time   25.0585

 eigenvalue-minimisations  :     0
 total energy-change (2. order) :-0.1229940E+01  (-0.1143240E+01)
 number of electron     269.9999993 magnetization     -19.0916176
 augmentation part       86.0492565 magnetization     -12.9546002

 Free energy of the ion-electron system (eV)
  ---------------------------------------------------
  alpha Z        PSCENC =       798.38614055
  Ewald energy   TEWEN  =    -12901.57693327
  -Hartree energ DENC   =     -2462.34905724
  -exchange      EXHF   =         0.00000000
  -V(xc)+E(xc)   XCENC  =     -1002.44541269
  PAW double counting   =     20681.57826772   -19426.83428172
  entropy T*S    EENTRO =        -0.02379176
  eigenvalues    EBANDS =      1262.75875689
  atomic energy  EATOM  =     12697.67401269
  ---------------------------------------------------
  free energy    TOTEN  =      -352.82520064 eV

  energy without entropy =     -352.80140889  energy(sigma->0) =     -352.81727006


--------------------------------------------------------------------------------------------------------




--------------------------------------- Iteration      1(  15)  ---------------------------------------


    POTLOK:  cpu time    0.4402: real time    0.4502
    SETDIJ:  cpu time    0.4547: real time    0.4546
    TRIAL :  cpu time   16.5892: real time   16.7337
    CORREC:  cpu time    5.1432: real time    5.1574
    CHARGE:  cpu time    1.6236: real time    1.6628
    --------------------------------------------
      LOOP:  cpu time   24.2571: real time   24.4659

 eigenvalue-minimisations  :     0
 total energy-change (2. order) :-0.1146552E+01  (-0.5680725E+00)
 number of electron     269.9999992 magnetization     -18.9162653
 augmentation part       86.7094771 magnetization     -12.8323945

 Free energy of the ion-electron system (eV)
  ---------------------------------------------------
  alpha Z        PSCENC =       798.38614055
  Ewald energy   TEWEN  =    -12901.57693327
  -Hartree energ DENC   =     -2464.71771294
  -exchange      EXHF   =         0.00000000
  -V(xc)+E(xc)   XCENC  =     -1002.57782394
  PAW double counting   =     19933.54573265   -18677.53365424
  entropy T*S    EENTRO =        -0.02333336
  eigenvalues    EBANDS =      1262.85227778
  atomic energy  EATOM  =     12697.67401269
  ---------------------------------------------------
  free energy    TOTEN  =      -353.97175248 eV

  energy without entropy =     -353.94841912  energy(sigma->0) =     -353.96397469


--------------------------------------------------------------------------------------------------------




--------------------------------------- Iteration      1(  16)  ---------------------------------------


    POTLOK:  cpu time    0.3915: real time    0.3914
    SETDIJ:  cpu time    0.4594: real time    0.4594
    TRIAL :  cpu time   16.5738: real time   16.6373
    CORREC:  cpu time    5.3288: real time    6.0164
    CHARGE:  cpu time    1.6357: real time    1.6358
    --------------------------------------------
      LOOP:  cpu time   24.4364: real time   25.1887

 eigenvalue-minimisations  :     0
 total energy-change (2. order) :-0.5690813E+00  (-0.3282893E+00)
 number of electron     269.9999992 magnetization     -18.7506437
 augmentation part       87.3219734 magnetization     -12.8225870

 Free energy of the ion-electron system (eV)
  ---------------------------------------------------
  alpha Z        PSCENC =       798.38614055
  Ewald energy   TEWEN  =    -12901.57693327
  -Hartree energ DENC   =     -2490.49679638
  -exchange      EXHF   =         0.00000000
  -V(xc)+E(xc)   XCENC  =     -1001.71089711
  PAW double counting   =     19624.93405667   -18373.96860084
  entropy T*S    EENTRO =        -0.02535351
  eigenvalues    EBANDS =      1292.24151730
  atomic energy  EATOM  =     12697.67401269
  ---------------------------------------------------
  free energy    TOTEN  =      -354.54083374 eV

  energy without entropy =     -354.51548023  energy(sigma->0) =     -354.53238257


--------------------------------------------------------------------------------------------------------




--------------------------------------- Iteration      1(  17)  ---------------------------------------


    POTLOK:  cpu time    0.3924: real time    0.3924
    SETDIJ:  cpu time    0.4773: real time    0.4773
    TRIAL :  cpu time   16.6195: real time   16.8751
    CORREC:  cpu time    5.1293: real time    5.1384
    CHARGE:  cpu time    1.6251: real time    1.6392
    --------------------------------------------
      LOOP:  cpu time   24.2706: real time   24.5503

 eigenvalue-minimisations  :     0
 total energy-change (2. order) :-0.3286941E+00  (-0.3796055E+00)
 number of electron     269.9999992 magnetization     -18.5764959
 augmentation part       87.2286770 magnetization     -12.8157644

 Free energy of the ion-electron system (eV)
  ---------------------------------------------------
  alpha Z        PSCENC =       798.38614055
  Ewald energy   TEWEN  =    -12901.57693327
  -Hartree energ DENC   =     -2517.10328259
  -exchange      EXHF   =         0.00000000
  -V(xc)+E(xc)   XCENC  =     -1000.59002879
  PAW double counting   =     19502.62435911   -18257.94207108
  entropy T*S    EENTRO =        -0.02453797
  eigenvalues    EBANDS =      1323.68362907
  atomic energy  EATOM  =     12697.67401269
  ---------------------------------------------------
  free energy    TOTEN  =      -354.86952783 eV

  energy without entropy =     -354.84498986  energy(sigma->0) =     -354.86134851


--------------------------------------------------------------------------------------------------------




--------------------------------------- Iteration      1(  18)  ---------------------------------------


    POTLOK:  cpu time    0.3913: real time    0.3912
    SETDIJ:  cpu time    0.4756: real time    0.4756
    TRIAL :  cpu time   16.5985: real time   16.7464
    CORREC:  cpu time    5.1157: real time    5.1258
    CHARGE:  cpu time    1.6340: real time    1.6339
    --------------------------------------------
      LOOP:  cpu time   24.2330: real time   24.3921

 eigenvalue-minimisations  :     0
 total energy-change (2. order) :-0.3795440E+00  (-0.1229385E+00)
 number of electron     269.9999992 magnetization     -18.5287961
 augmentation part       86.9282132 magnetization     -12.8390058

 Free energy of the ion-electron system (eV)
  ---------------------------------------------------
  alpha Z        PSCENC =       798.38614055
  Ewald energy   TEWEN  =    -12901.57693327
  -Hartree energ DENC   =     -2507.25845572
  -exchange      EXHF   =         0.00000000
  -V(xc)+E(xc)   XCENC  =     -1000.58161581
  PAW double counting   =     19383.94638566   -18138.25745547
  entropy T*S    EENTRO =        -0.02693625
  eigenvalues    EBANDS =      1312.44338746
  atomic energy  EATOM  =     12697.67401269
  ---------------------------------------------------
  free energy    TOTEN  =      -355.24907187 eV

  energy without entropy =     -355.22213562  energy(sigma->0) =     -355.24009312


--------------------------------------------------------------------------------------------------------




--------------------------------------- Iteration      1(  19)  ---------------------------------------


    POTLOK:  cpu time    0.3887: real time    0.3887
    SETDIJ:  cpu time    0.4619: real time    0.4618
    TRIAL :  cpu time   16.5754: real time   17.4975
    CORREC:  cpu time    5.1120: real time    5.1768
    CHARGE:  cpu time    1.6341: real time    1.6529
    --------------------------------------------
      LOOP:  cpu time   25.0702: real time   26.0765

 eigenvalue-minimisations  :     0
 total energy-change (2. order) :-0.1231812E+00  (-0.1026821E+00)
 number of electron     269.9999992 magnetization     -18.4819069
 augmentation part       86.6962366 magnetization     -12.8591252

 Free energy of the ion-electron system (eV)
  ---------------------------------------------------
  alpha Z        PSCENC =       798.38614055
  Ewald energy   TEWEN  =    -12901.57693327
  -Hartree energ DENC   =     -2491.46444291
  -exchange      EXHF   =         0.00000000
  -V(xc)+E(xc)   XCENC  =     -1001.00810199
  PAW double counting   =     19349.94291427   -18101.14859480
  entropy T*S    EENTRO =        -0.02530341
  eigenvalues    EBANDS =      1293.84968861
  atomic energy  EATOM  =     12697.67401269
  ---------------------------------------------------
  free energy    TOTEN  =      -355.37225310 eV

  energy without entropy =     -355.34694969  energy(sigma->0) =     -355.36381863


--------------------------------------------------------------------------------------------------------




--------------------------------------- Iteration      1(  20)  ---------------------------------------


    POTLOK:  cpu time    0.3923: real time    0.3922
    SETDIJ:  cpu time    0.4736: real time    0.4735
    TRIAL :  cpu time   16.5836: real time   16.6329
    CORREC:  cpu time    5.1300: real time    5.2422
    CHARGE:  cpu time    1.6272: real time    1.6394
    --------------------------------------------
      LOOP:  cpu time   24.2116: real time   24.3871

 eigenvalue-minimisations  :     0
 total energy-change (2. order) :-0.1022449E+00  (-0.1794256E+00)
 number of electron     269.9999992 magnetization     -18.5133779
 augmentation part       86.7439624 magnetization     -12.9646599

 Free energy of the ion-electron system (eV)
  ---------------------------------------------------
  alpha Z        PSCENC =       798.38614055
  Ewald energy   TEWEN  =    -12901.57693327
  -Hartree energ DENC   =     -2481.22889020
  -exchange      EXHF   =         0.00000000
  -V(xc)+E(xc)   XCENC  =     -1001.24918613
  PAW double counting   =     19339.34164474   -18088.31141530
  entropy T*S    EENTRO =        -0.02831522
  eigenvalues    EBANDS =      1281.51543235
  atomic energy  EATOM  =     12697.67401269
  ---------------------------------------------------
  free energy    TOTEN  =      -355.47449799 eV

  energy without entropy =     -355.44618277  energy(sigma->0) =     -355.46505958


--------------------------------------------------------------------------------------------------------




--------------------------------------- Iteration      1(  21)  ---------------------------------------


    POTLOK:  cpu time    0.3907: real time    0.3907
    SETDIJ:  cpu time    0.4587: real time    0.4587
    TRIAL :  cpu time   16.5516: real time   16.5738
    CORREC:  cpu time    5.1418: real time    5.8899
    CHARGE:  cpu time    1.6329: real time    1.6432
    --------------------------------------------
      LOOP:  cpu time   24.2004: real time   24.9811

 eigenvalue-minimisations  :     0
 total energy-change (2. order) :-0.1792980E+00  (-0.8733098E-01)
 number of electron     269.9999992 magnetization     -18.4162668
 augmentation part       86.9294986 magnetization     -12.9503352

 Free energy of the ion-electron system (eV)
  ---------------------------------------------------
  alpha Z        PSCENC =       798.38614055
  Ewald energy   TEWEN  =    -12901.57693327
  -Hartree energ DENC   =     -2489.91827093
  -exchange      EXHF   =         0.00000000
  -V(xc)+E(xc)   XCENC  =     -1000.75025758
  PAW double counting   =     19386.03398279   -18136.41076828
  entropy T*S    EENTRO =        -0.02732223
  eigenvalues    EBANDS =      1290.93661332
  atomic energy  EATOM  =     12697.67401269
  ---------------------------------------------------
  free energy    TOTEN  =      -355.65379594 eV

  energy without entropy =     -355.62647371  energy(sigma->0) =     -355.64468853


--------------------------------------------------------------------------------------------------------




--------------------------------------- Iteration      1(  22)  ---------------------------------------


    POTLOK:  cpu time    0.3927: real time    0.3927
    SETDIJ:  cpu time    0.4149: real time    0.4995
    TRIAL :  cpu time   16.6007: real time   16.7090
    CORREC:  cpu time    5.1617: real time    5.2317
    CHARGE:  cpu time    1.6283: real time    1.6392
    --------------------------------------------
      LOOP:  cpu time   24.1997: real time   24.4743

 eigenvalue-minimisations  :     0
 total energy-change (2. order) :-0.8730793E-01  (-0.5838908E-01)
 number of electron     269.9999992 magnetization     -18.4183330
 augmentation part       86.9790193 magnetization     -12.9402534

 Free energy of the ion-electron system (eV)
  ---------------------------------------------------
  alpha Z        PSCENC =       798.38614055
  Ewald energy   TEWEN  =    -12901.57693327
  -Hartree energ DENC   =     -2502.93265648
  -exchange      EXHF   =         0.00000000
  -V(xc)+E(xc)   XCENC  =     -1000.22161679
  PAW double counting   =     19426.10478656   -18178.84966353
  entropy T*S    EENTRO =        -0.02899348
  eigenvalues    EBANDS =      1305.70214864
  atomic energy  EATOM  =     12697.67401269
  ---------------------------------------------------
  free energy    TOTEN  =      -355.74110387 eV

  energy without entropy =     -355.71211039  energy(sigma->0) =     -355.73143938


--------------------------------------------------------------------------------------------------------




--------------------------------------- Iteration      1(  23)  ---------------------------------------


    POTLOK:  cpu time    0.3918: real time    0.3918
    SETDIJ:  cpu time    0.4587: real time    0.4587
    TRIAL :  cpu time   16.5624: real time   16.7088
    CORREC:  cpu time    5.9907: real time    5.9914
    CHARGE:  cpu time    1.6413: real time    1.6412
    --------------------------------------------
      LOOP:  cpu time   25.0517: real time   25.1989

 eigenvalue-minimisations  :     0
 total energy-change (2. order) :-0.5859430E-01  (-0.5657464E-01)
 number of electron     269.9999992 magnetization     -18.4489963
 augmentation part       86.9049754 magnetization     -12.9224689

 Free energy of the ion-electron system (eV)
  ---------------------------------------------------
  alpha Z        PSCENC =       798.38614055
  Ewald energy   TEWEN  =    -12901.57693327
  -Hartree energ DENC   =     -2507.12118158
[...]
   45       -0.016  -0.025  -2.367  -2.408
   46        0.020   0.027   2.336   2.382
   47       -0.024  -0.030  -2.367  -2.421
   48       -0.018  -0.020  -2.373  -2.411
   49        0.021   0.022   2.362   2.406
   50       -0.013  -0.018  -2.341  -2.373
   51       -0.016  -0.025  -2.366  -2.406
   52       -0.029  -0.029  -2.225  -2.282
   53       -0.016  -0.010  -2.311  -2.337
   54       -0.020  -0.016  -2.355  -2.391
--------------------------------------------------
tot          0.016   0.110 -21.649 -21.523
 
    FORLOC:  cpu time    0.0571: real time    0.0571
    FORNL :  cpu time   26.0030: real time   26.8979
    STRESS:  cpu time   36.3232: real time   36.4668
    FORCOR:  cpu time    0.4393: real time    0.4393
    OFIELD:  cpu time    0.0023: real time    0.0023

  FORCE on cell =-STRESS in cart. coord.  units (eV):
  Direction    XX          YY          ZZ          XY          YZ          ZX
  --------------------------------------------------------------------------------------
  Alpha Z   798.38614   798.38614   798.38614
  Ewald   -4053.61603 -4053.61603 -4794.40593    -0.00000    -0.00000    -0.00000
  Hartree  1083.83147  1083.83147   333.34163     0.13551    -0.05703    -0.05703
  E(xc)   -1141.54193 -1141.54193 -1140.00292    -0.05840     0.01036     0.01036
  Local     369.52479   369.52479  1903.52241    -0.46693     0.17717     0.17717
  n-local  -171.56688  -169.00794  -176.43873    -0.21073    -0.05798     0.12016
  augment   784.38574   784.38574   768.27929     0.19711    -0.04867    -0.04834
  Kinetic  2330.16362  2339.76461  2309.83100     0.50682    -0.92322     0.61567
  Fock        0.00000     0.00000     0.00000     0.00000     0.00000     0.00000
  -------------------------------------------------------------------------------------
  Total       5.64689     5.64689     2.51289     0.10330    -0.04090    -0.04090
  in kB      12.74430    12.74430     5.67126     0.23314    -0.09232    -0.09232
  external pressure =       10.39 kB  Pullay stress =        0.00 kB


 VOLUME and BASIS-vectors are now :
 -----------------------------------------------------------------------------
  energy-cutoff  :      404.80
  volume of cell :      709.91
      direct lattice vectors                 reciprocal lattice vectors
     8.250148166  0.000000000  0.000000000     0.121209944  0.000000000  0.000000000
     0.000000000  8.250148166  0.000000000     0.000000000  0.121209944  0.000000000
     0.000000000  0.000000000 10.429911392     0.000000000  0.000000000  0.095878092

  length of vectors
     8.250148166  8.250148166 10.429911392     0.121209944  0.121209944  0.095878092


 FORCES acting on ions:
    Electron-Ion                     Ewald-Force                    Non-Local-Force
 -----------------------------------------------------------------------------------------------
   0.118E+00 0.118E+00 0.956E-02   -.239E-08 -.239E-08 -.210E-08   -.875E-01 -.875E-01 -.250E-01
   0.150E-01 0.150E-01 -.534E-01   -.239E-08 -.239E-08 0.171E-08   -.650E-02 -.650E-02 0.319E-01
   -.140E-01 -.140E-01 0.226E-01   -.239E-08 -.239E-08 0.861E-08   -.171E-02 -.171E-02 0.126E-01
   -.102E-02 -.747E-02 0.532E-01   -.239E-08 -.802E-09 -.210E-08   0.255E-02 -.672E-02 -.190E-01
   -.119E+00 0.128E+00 -.141E+00   -.239E-08 -.802E-09 0.171E-08   0.920E-01 -.962E-01 0.462E-01
   -.162E-01 0.616E-02 0.282E-01   -.239E-08 -.802E-09 0.861E-08   -.231E-01 0.203E-01 0.181E-01
   0.116E+00 -.122E+00 0.580E-01   -.239E-08 0.631E-08 -.210E-08   -.876E-01 0.968E-01 -.481E-01
   0.143E+00 -.149E+00 0.623E-02   -.239E-08 0.631E-08 0.171E-08   -.100E+00 0.105E+00 0.330E-01
   0.327E-01 -.504E-02 -.201E-01   -.239E-08 0.631E-08 0.861E-08   0.484E-02 -.616E-02 -.128E-01
   -.747E-02 -.102E-02 0.532E-01   -.802E-09 -.239E-08 -.210E-08   -.672E-02 0.255E-02 -.190E-01
   0.128E+00 -.119E+00 -.141E+00   -.802E-09 -.239E-08 0.171E-08   -.962E-01 0.920E-01 0.462E-01
   0.616E-02 -.162E-01 0.282E-01   -.803E-09 -.239E-08 0.861E-08   0.203E-01 -.231E-01 0.181E-01
   0.240E-02 0.240E-02 0.826E-01   -.802E-09 -.802E-09 -.210E-08   -.123E-01 -.123E-01 0.516E-02
   0.100E+00 0.100E+00 -.151E+00   -.802E-09 -.802E-09 0.171E-08   -.978E-01 -.978E-01 0.145E-01
   0.423E-02 0.423E-02 0.190E-01   -.803E-09 -.802E-09 0.861E-08   0.170E-01 0.170E-01 0.125E-01
   0.310E-02 0.985E-02 0.156E+00   -.802E-09 0.631E-08 -.210E-08   0.157E-02 -.149E-02 -.642E-01
   -.188E-01 0.152E-01 -.788E-01   -.802E-09 0.631E-08 0.171E-08   0.691E-02 -.405E-02 0.384E-01
   -.230E-01 0.154E-01 -.269E-01   -.803E-09 0.631E-08 0.861E-08   -.252E-02 -.203E-02 -.664E-02
   -.122E+00 0.116E+00 0.580E-01   0.631E-08 -.239E-08 -.210E-08   0.968E-01 -.876E-01 -.481E-01
   -.149E+00 0.143E+00 0.623E-02   0.631E-08 -.239E-08 0.171E-08   0.105E+00 -.100E+00 0.330E-01
   -.504E-02 0.327E-01 -.201E-01   0.631E-08 -.239E-08 0.861E-08   -.616E-02 0.484E-02 -.128E-01
   0.985E-02 0.310E-02 0.156E+00   0.631E-08 -.802E-09 -.210E-08   -.149E-02 0.157E-02 -.642E-01
   0.152E-01 -.188E-01 -.788E-01   0.631E-08 -.802E-09 0.171E-08   -.405E-02 0.691E-02 0.384E-01
   0.154E-01 -.230E-01 -.269E-01   0.631E-08 -.802E-09 0.861E-08   -.203E-02 -.252E-02 -.664E-02
   -.125E+00 -.125E+00 0.477E-01   0.631E-08 0.631E-08 -.210E-08   0.104E+00 0.104E+00 -.532E-01
   -.126E+00 -.126E+00 -.495E-01   0.631E-08 0.631E-08 0.171E-08   0.109E+00 0.109E+00 0.813E-01
   -.168E-02 -.168E-02 0.750E-02   0.631E-08 0.631E-08 0.861E-08   -.103E-01 -.103E-01 -.430E-01
   -.922E-01 -.922E-01 0.251E+00   -.169E-07 -.169E-07 -.180E-07   0.793E-01 0.793E-01 -.411E+00
   0.193E-01 0.193E-01 -.199E+00   -.169E-07 -.169E-07 -.170E-08   -.153E-01 -.153E-01 0.165E+00
   -.278E-01 -.278E-01 0.268E+00   -.169E-07 -.169E-07 0.115E-07   0.247E-01 0.247E-01 -.276E+00
   -.885E-01 0.110E+00 -.115E+00   -.169E-07 0.802E-09 -.180E-07   0.832E-01 -.844E-01 0.109E+00
   -.397E-01 0.339E+00 0.461E-01   -.169E-07 0.802E-09 -.170E-08   0.381E-01 -.201E+00 -.627E-01
   -.466E-01 -.283E-01 -.670E-01   -.169E-07 0.802E-09 0.115E-07   0.416E-01 -.167E-01 0.142E+00
   0.347E+00 -.353E-01 -.141E+00   -.169E-07 0.130E-07 -.180E-07   -.211E+00 0.173E-01 0.170E+00
   0.619E-01 -.313E+00 0.850E-01   -.169E-07 0.130E-07 -.170E-08   -.529E-01 0.181E+00 -.820E-01
   0.556E-01 0.583E-01 -.946E-01   -.169E-07 0.130E-07 0.115E-07   -.336E-01 -.148E-01 0.101E+00
   0.110E+00 -.885E-01 -.115E+00   0.802E-09 -.169E-07 -.180E-07   -.844E-01 0.832E-01 0.109E+00
   0.339E+00 -.397E-01 0.461E-01   0.802E-09 -.169E-07 -.170E-08   -.201E+00 0.381E-01 -.627E-01
   -.283E-01 -.466E-01 -.670E-01   0.802E-09 -.169E-07 0.115E-07   -.167E-01 0.416E-01 0.142E+00
   0.709E-01 0.709E-01 0.216E-01   0.802E-09 0.802E-09 -.180E-07   -.896E-01 -.896E-01 0.347E-02
   -.759E-01 -.759E-01 -.721E-02   0.802E-09 0.802E-09 -.170E-08   0.900E-01 0.900E-01 -.861E-01
   0.874E-02 0.874E-02 0.174E-01   0.802E-09 0.802E-09 0.115E-07   0.325E-01 0.325E-01 0.636E-01
   -.337E+00 0.127E-01 0.321E-01   0.802E-09 0.130E-07 -.180E-07   0.181E+00 0.219E-02 -.312E-01
   -.163E+00 0.114E+00 0.630E-02   0.802E-09 0.130E-07 -.170E-08   0.147E+00 -.117E+00 -.341E-01
   -.924E-01 0.339E-01 -.161E-01   0.802E-09 0.130E-07 0.115E-07   0.999E-01 -.616E-01 0.378E-01
   -.353E-01 0.347E+00 -.141E+00   0.130E-07 -.169E-07 -.180E-07   0.173E-01 -.211E+00 0.170E+00
   -.313E+00 0.619E-01 0.850E-01   0.130E-07 -.169E-07 -.170E-08   0.181E+00 -.529E-01 -.820E-01
   0.583E-01 0.556E-01 -.946E-01   0.130E-07 -.169E-07 0.115E-07   -.148E-01 -.336E-01 0.101E+00
   0.127E-01 -.337E+00 0.321E-01   0.130E-07 0.802E-09 -.180E-07   0.219E-02 0.181E+00 -.312E-01
   0.114E+00 -.163E+00 0.630E-02   0.130E-07 0.802E-09 -.170E-08   -.117E+00 0.147E+00 -.341E-01
   0.339E-01 -.924E-01 -.161E-01   0.130E-07 0.802E-09 0.115E-07   -.616E-01 0.999E-01 0.378E-01
   -.198E-01 -.198E-01 -.663E-01   0.130E-07 0.130E-07 -.180E-07   0.370E-01 0.370E-01 0.786E-01
   0.998E-01 0.998E-01 -.195E+00   0.130E-07 0.130E-07 -.170E-08   -.970E-01 -.970E-01 0.179E+00
   0.349E-01 0.349E-01 0.203E+00   0.130E-07 0.130E-07 0.115E-07   -.575E-01 -.575E-01 -.179E+00
 -----------------------------------------------------------------------------------------------
   -.171E-01 -.171E-01 -.243E+00   -.614E-13 -.142E-13 0.128E-13   0.169E-01 0.169E-01 0.244E+00
 
 
 POSITION                                       TOTAL-FORCE (eV/Angst)
 -----------------------------------------------------------------------------------
      0.00000      0.00000      0.00000         0.037685      0.037685     -0.012337
      0.00000      0.00000      3.47664         0.008969      0.008969     -0.024397
      0.00000      0.00000      6.95327        -0.014766     -0.014766      0.032961
      0.00000      2.75005      0.00000         0.000860     -0.013644      0.035926
      0.00000      2.75005      3.47664        -0.034907      0.039936     -0.098299
      0.00000      2.75005      6.95327        -0.037321      0.024207      0.043576
      0.00000      5.50010      0.00000         0.036204     -0.033247      0.015757
      0.00000      5.50010      3.47664         0.051156     -0.053117      0.035717
      0.00000      5.50010      6.95327         0.038015     -0.011067     -0.032116
      2.75005      0.00000      0.00000        -0.013644      0.000860      0.035926
      2.75005      0.00000      3.47664         0.039936     -0.034907     -0.098299
      2.75005      0.00000      6.95327         0.024207     -0.037321      0.043576
      2.75005      2.75005      0.00000        -0.008931     -0.008931      0.087588
      2.75005      2.75005      3.47664         0.010431      0.010431     -0.137828
      2.75005      2.75005      6.95327         0.019232      0.019232      0.029096
      2.75005      5.50010      0.00000         0.004560      0.008972      0.098229
      2.75005      5.50010      3.47664        -0.012921      0.012021     -0.043767
      2.75005      5.50010      6.95327        -0.025756      0.013981     -0.033388
      5.50010      0.00000      0.00000        -0.033247      0.036204      0.015757
      5.50010      0.00000      3.47664        -0.053117      0.051156      0.035717
      5.50010      0.00000      6.95327        -0.011067      0.038015     -0.032116
      5.50010      2.75005      0.00000         0.008972      0.004560      0.098229
      5.50010      2.75005      3.47664         0.012021     -0.012921     -0.043767
      5.50010      2.75005      6.95327         0.013981     -0.025756     -0.033388
      5.50010      5.50010      0.00000        -0.029688     -0.029688      0.000135
      5.50010      5.50010      3.47664        -0.026596     -0.026596      0.023586
      5.50010      5.50010      6.95327        -0.011495     -0.011495     -0.031933
      1.37502      1.37502      1.73832        -0.015221     -0.015221     -0.150662
      1.37502      1.37502      5.21496         0.004993      0.004993     -0.037732
      1.37502      1.37502      8.69159        -0.003695     -0.003695     -0.002803
      1.37502      4.12507      1.73832        -0.007451      0.026220     -0.007491
      1.37502      4.12507      5.21496        -0.002359      0.142589     -0.012285
      1.37502      4.12507      8.69159        -0.005428     -0.043046      0.066184
      1.37502      6.87512      1.73832         0.137414     -0.017503      0.026290
      1.37502      6.87512      5.21496         0.010005     -0.135853      0.006895
      1.37502      6.87512      8.69159         0.022725      0.041755     -0.002760
      4.12507      1.37502      1.73832         0.026220     -0.007451     -0.007491
      4.12507      1.37502      5.21496         0.142589     -0.002359     -0.012285
      4.12507      1.37502      8.69159        -0.043046     -0.005428      0.066184
      4.12507      4.12507      1.73832        -0.017137     -0.017137      0.026435
      4.12507      4.12507      5.21496         0.012417      0.012417     -0.085357
      4.12507      4.12507      8.69159         0.040893      0.040893      0.073427
      4.12507      6.87512      1.73832        -0.156751      0.015588      0.002784
      4.12507      6.87512      5.21496        -0.019518     -0.000729     -0.020004
      4.12507      6.87512      8.69159         0.005910     -0.027338      0.014126
      6.87512      1.37502      1.73832        -0.017503      0.137414      0.026290
      6.87512      1.37502      5.21496        -0.135853      0.010005      0.006895
      6.87512      1.37502      8.69159         0.041755      0.022725     -0.002760
      6.87512      4.12507      1.73832         0.015588     -0.156751      0.002784
      6.87512      4.12507      5.21496        -0.000729     -0.019518     -0.020004
      6.87512      4.12507      8.69159        -0.027338      0.005910      0.014126
      6.87512      6.87512      1.73832         0.016085      0.016085      0.011635
      6.87512      6.87512      5.21496         0.004727      0.004727     -0.014013
      6.87512      6.87512      8.69159        -0.022064     -0.022064      0.021450
 -----------------------------------------------------------------------------------
    total drift:                               -0.000159     -0.000159      0.000557


--------------------------------------------------------------------------------------------------------



  FREE ENERGIE OF THE ION-ELECTRON SYSTEM (eV)
  ---------------------------------------------------
  free  energy   TOTEN  =      -356.43752183 eV

  energy  without entropy=     -356.37694498  energy(sigma->0) =     -356.41732955
 


--------------------------------------------------------------------------------------------------------


    POTLOK:  cpu time    1.8470: real time    1.8611


--------------------------------------------------------------------------------------------------------


     LOOP+:  cpu time 2677.2282: real time 2729.9108
    4ORBIT:  cpu time    0.0000: real time    0.0000
 


 total charge     
 
# of ion       s       p       d       tot
------------------------------------------
    1        0.405   0.428   0.000   0.833
    2        0.406   0.429   0.000   0.834
    3        0.405   0.429   0.000   0.833
    4        0.405   0.426   0.000   0.831
    5        0.405   0.428   0.000   0.833
    6        0.404   0.430   0.000   0.834
    7        0.405   0.428   0.000   0.833
    8        0.405   0.428   0.000   0.833
    9        0.405   0.428   0.000   0.833
   10        0.405   0.426   0.000   0.832
   11        0.405   0.427   0.000   0.833
   12        0.404   0.429   0.000   0.833
   13        0.405   0.427   0.000   0.832
   14        0.405   0.428   0.000   0.833
   15        0.405   0.430   0.000   0.834
   16        0.405   0.426   0.000   0.832
   17        0.405   0.426   0.000   0.831
   18        0.404   0.428   0.000   0.832
   19        0.405   0.428   0.000   0.834
   20        0.405   0.428   0.000   0.833
   21        0.405   0.428   0.000   0.833
   22        0.405   0.426   0.000   0.832
   23        0.405   0.426   0.000   0.831
   24        0.404   0.429   0.000   0.833
   25        0.405   0.429   0.000   0.834
   26        0.405   0.428   0.000   0.833
   27        0.404   0.429   0.000   0.833
   28        0.334   0.349   5.140   5.824
   29        0.334   0.352   5.138   5.825
   30        0.331   0.353   5.136   5.820
   31        0.333   0.353   5.132   5.818
   32        0.333   0.357   5.108   5.798
   33        0.333   0.350   5.137   5.819
   34        0.335   0.353   5.155   5.843
   35        0.332   0.358   5.100   5.791
   36        0.333   0.352   5.134   5.819
   37        0.333   0.353   5.138   5.824
   38        0.334   0.354   5.148   5.836
   39        0.333   0.349   5.142   5.824
   40        0.333   0.351   5.137   5.822
   41        0.332   0.351   5.139   5.823
   42        0.334   0.350   5.137   5.821
   43        0.335   0.353   5.152   5.840
   44        0.332   0.354   5.131   5.817
   45        0.333   0.353   5.130   5.817
   46        0.335   0.358   5.099   5.791
   47        0.334   0.355   5.152   5.840
   48        0.333   0.351   5.137   5.820
   49        0.335   0.356   5.102   5.794
   50        0.332   0.353   5.138   5.823
   51        0.334   0.353   5.135   5.821
   52        0.338   0.355   5.126   5.819
   53        0.332   0.348   5.147   5.827
   54        0.334   0.348   5.143   5.825
--------------------------------------------------
tot         19.937  21.073 138.613 179.623
 


 magnetization (x)
 
# of ion       s       p       d       tot
------------------------------------------
    1        0.004   0.006   0.000   0.011
    2       -0.000  -0.002   0.000  -0.002
    3        0.017   0.031   0.000   0.048
    4        0.001   0.001   0.000   0.002
    5       -0.003  -0.007   0.000  -0.010
    6        0.018   0.028   0.000   0.045
    7        0.004   0.008   0.000   0.012
    8        0.003   0.005   0.000   0.008
    9        0.021   0.037   0.000   0.058
   10        0.001   0.000   0.000   0.001
   11       -0.004  -0.008   0.000  -0.011
   12        0.018   0.028   0.000   0.046
   13       -0.001  -0.002   0.000  -0.002
   14       -0.005  -0.009   0.000  -0.014
   15        0.017   0.030   0.000   0.048
   16        0.001   0.001   0.000   0.002
   17       -0.000  -0.002   0.000  -0.002
   18        0.022   0.034   0.000   0.056
   19        0.004   0.008   0.000   0.012
   20        0.003   0.005   0.000   0.009
   21        0.021   0.038   0.000   0.059
   22        0.001   0.002   0.000   0.003
   23        0.000  -0.000   0.000   0.000
   24        0.022   0.035   0.000   0.057
   25        0.004   0.006   0.000   0.010
   26        0.004   0.006   0.000   0.011
   27        0.022   0.040   0.000   0.062
   28        0.016   0.009   2.353   2.378
   29        0.028   0.026   2.237   2.291
   30       -0.013  -0.021  -2.219  -2.253
   31        0.010   0.014   2.246   2.271
   32       -0.025  -0.026  -2.411  -2.461
   33       -0.020  -0.016  -2.383  -2.420
   34        0.020   0.026   2.315   2.361
   35       -0.023  -0.030  -2.395  -2.448
   36       -0.018  -0.021  -2.372  -2.411
   37        0.010   0.015   2.243   2.268
   38       -0.026  -0.025  -2.399  -2.449
   39       -0.019  -0.016  -2.378  -2.413
   40        0.012   0.010   2.248   2.270
   41       -0.015  -0.014  -2.349  -2.378
   42       -0.018  -0.020  -2.379  -2.417
   43        0.023   0.021   2.349   2.393
   44       -0.013  -0.018  -2.349  -2.381
   45       -0.016  -0.025  -2.367  -2.408
   46        0.020   0.027   2.336   2.382
   47       -0.024  -0.030  -2.367  -2.421
   48       -0.018  -0.020  -2.373  -2.411
   49        0.021   0.022   2.362   2.406
   50       -0.013  -0.018  -2.341  -2.373
   51       -0.016  -0.025  -2.366  -2.406
   52       -0.029  -0.029  -2.225  -2.282
   53       -0.016  -0.010  -2.311  -2.337
   54       -0.020  -0.016  -2.355  -2.391
--------------------------------------------------
tot          0.016   0.110 -21.649 -21.523
 

 total amount of memory used by VASP MPI-rank0   942951. kBytes
=======================================================================

   base      :      30000. kBytes
   nonl-proj :      34131. kBytes
   fftplans  :      31580. kBytes
   grid      :      21385. kBytes
   one-center:        435. kBytes
   wavefun   :     825420. kBytes
 
  
  
 General timing and accounting informations for this job:
 ========================================================
  
                  Total CPU time used (sec):     2710.962
                            User time (sec):     2678.860
                          System time (sec):       32.102
                         Elapsed time (sec):     2767.145
  
                   Maximum memory used (kb):     1106004.
                   Average memory used (kb):           0.
  
                          Minor page faults:      1074700
                          Major page faults:           14
                 Voluntary context switches:         3627
