 vasp.5.4.4.18Apr17-6-g9f103f2a35 (build Dec 13 2018 10:28:32) complex          
  
 executed on             LinuxIFC date 2019.05.21  08:51:55
 running on   96 total cores
 distrk:  each k-point on   96 cores,    1 groups
 distr:  one band on NCORES_PER_BAND=  24 cores,    4 groups


--------------------------------------------------------------------------------------------------------


 INCAR:
 POTCAR:   PAW_PBE F 08Apr2002                    
 POTCAR:   PAW_PBE Ni 06Sep2000                   
 POTCAR:   PAW_PBE Cs_sv 08Apr2002                

 ----------------------------------------------------------------------------- 
|                                                                             |
|           W    W    AA    RRRRR   N    N  II  N    N   GGGG   !!!           |
|           W    W   A  A   R    R  NN   N  II  NN   N  G    G  !!!           |
|           W    W  A    A  R    R  N N  N  II  N N  N  G       !!!           |
|           W WW W  AAAAAA  RRRRR   N  N N  II  N  N N  G  GGG   !            |
|           WW  WW  A    A  R   R   N   NN  II  N   NN  G    G                |
|           W    W  A    A  R    R  N    N  II  N    N   GGGG   !!!           |
|                                                                             |
|      For optimal performance we recommend to set                            |
|        NCORE= 4 - approx SQRT( number of cores)                             |
|      NCORE specifies how many cores store one orbital (NPAR=cpu/NCORE).     |
|      This setting can  greatly improve the performance of VASP for DFT.     |
|      The default,   NCORE=1            might be grossly inefficient         |
|      on modern multi-core architectures or massively parallel machines.     |
|      Do your own testing !!!!                                               |
|      Unfortunately you need to use the default for GW and RPA calculations. |
|      (for HF NCORE is supported but not extensively tested yet)             |
|                                                                             |
 ----------------------------------------------------------------------------- 

 POTCAR:   PAW_PBE F 08Apr2002                    
   VRHFIN =F: s2p5                                                              
   LEXCH  = PE                                                                  
   EATOM  =   659.4942 eV,   48.4715 Ry                                         
                                                                                
   TITEL  = PAW_PBE F 08Apr2002                                                 
   LULTRA =        F    use ultrasoft PP ?                                      
   IUNSCR =        0    unscreen: 0-lin 1-nonlin 2-no                           
   RPACOR =     .000    partial core radius                                     
   POMASS =   18.998; ZVAL   =    7.000    mass and valenz                      
   RCORE  =    1.520    outmost cutoff radius                                   
   RWIGS  =    1.500; RWIGS  =     .794    wigner-seitz radius (au A)           
   ENMAX  =  400.000; ENMIN  =  300.000 eV                                      
   ICORE  =        2    local potential                                         
   LCOR   =        T    correct aug charges                                     
   LPAW   =        T    paw PP                                                  
   EAUG   =  613.614                                                            
   DEXC   =     .000                                                            
   RMAX   =    2.254    core radius for proj-oper                               
   RAUG   =    1.300    factor for augmentation sphere                          
   RDEP   =    1.539    radius for radial grids                                 
   QCUT   =   -5.545; QGAM   =   11.091    optimization parameters              
                                                                                
   Description                                                                  
     l     E      TYP  RCUT    TYP  RCUT                                        
     0   .000     23  1.200                                                     
     0  -.700     23  1.200                                                     
     1   .000     23  1.520                                                     
     1   .100     23  1.520                                                     
     2   .000      7  1.500                                                     
  local pseudopotential read in
  atomic valenz-charges read in
  non local Contribution for L=           0  read in
    real space projection operators read in
  non local Contribution for L=           0  read in
    real space projection operators read in
  non local Contribution for L=           1  read in
    real space projection operators read in
  non local Contribution for L=           1  read in
    real space projection operators read in
    PAW grid and wavefunctions read in
 
   number of l-projection  operators is LMAX  =           4
   number of lm-projection operators is LMMAX =           8
 
 POTCAR:   PAW_PBE Ni 06Sep2000                   
   VRHFIN =Ni:                                                                  
   LEXCH  = PE                                                                  
   EATOM  =  1077.9025 eV,   79.2236 Ry                                         
                                                                                
   TITEL  = PAW_PBE Ni 06Sep2000                                                
   LULTRA =        F    use ultrasoft PP ?                                      
   IUNSCR =        1    unscreen: 0-lin 1-nonlin 2-no                           
   RPACOR =    2.000    partial core radius                                     
   POMASS =   58.690; ZVAL   =   10.000    mass and valenz                      
   RCORE  =    2.300    outmost cutoff radius                                   
   RWIGS  =    2.430; RWIGS  =    1.286    wigner-seitz radius (au A)           
   ENMAX  =  269.533; ENMIN  =  202.150 eV                                      
   RCLOC  =    1.681    cutoff for local pot                                    
   LCOR   =        T    correct aug charges                                     
   LPAW   =        T    paw PP                                                  
   EAUG   =  544.565                                                            
   DEXC   =    -.009                                                            
   RMAX   =    2.808    core radius for proj-oper                               
   RAUG   =    1.300    factor for augmentation sphere                          
   RDEP   =    2.390    radius for radial grids                                 
   QCUT   =   -4.451; QGAM   =    8.902    optimization parameters              
                                                                                
   Description                                                                  
     l     E      TYP  RCUT    TYP  RCUT                                        
     2   .000     23  2.300                                                     
     2   .000     23  2.300                                                     
     0   .000     23  2.300                                                     
     0   .000     23  2.300                                                     
     1  -.200     23  2.300                                                     
     1   .000     23  2.300                                                     
     3   .000      7   .000                                                     
  local pseudopotential read in
  partial core-charges read in
  atomic valenz-charges read in
  non local Contribution for L=           2  read in
    real space projection operators read in
  non local Contribution for L=           2  read in
    real space projection operators read in
  non local Contribution for L=           0  read in
    real space projection operators read in
  non local Contribution for L=           0  read in
    real space projection operators read in
  non local Contribution for L=           1  read in
    real space projection operators read in
  non local Contribution for L=           1  read in
    real space projection operators read in
    PAW grid and wavefunctions read in
 
   number of l-projection  operators is LMAX  =           6
   number of lm-projection operators is LMMAX =          18
 
 POTCAR:   PAW_PBE Cs_sv 08Apr2002                
   VRHFIN =Cs: 5s5p6s                                                           
   LEXCH  = PE                                                                  
   EATOM  =   555.6835 eV,   40.8416 Ry                                         
                                                                                
   TITEL  = PAW_PBE Cs_sv 08Apr2002                                             
   LULTRA =        F    use ultrasoft PP ?                                      
   IUNSCR =        1    unscreen: 0-lin 1-nonlin 2-no                           
   RPACOR =    2.200    partial core radius                                     
   POMASS =  132.900; ZVAL   =    9.000    mass and valenz                      
   RCORE  =    2.500    outmost cutoff radius                                   
   RWIGS  =    2.500; RWIGS  =    1.323    wigner-seitz radius (au A)           
   ENMAX  =  220.318; ENMIN  =  165.238 eV                                      
   RCLOC  =    2.207    cutoff for local pot                                    
   LCOR   =        T    correct aug charges                                     
   LPAW   =        T    paw PP                                                  
   EAUG   =  407.933                                                            
   DEXC   =    -.004                                                            
   RMAX   =    3.106    core radius for proj-oper                               
   RAUG   =    1.300    factor for augmentation sphere                          
   RDEP   =    2.590    radius for radial grids                                 
   QCUT   =   -4.024; QGAM   =    8.048    optimization parameters              
                                                                                
   Description                                                                  
     l     E      TYP  RCUT    TYP  RCUT                                        
     0   .000     23  1.900                                                     
     0   .000     23  1.900                                                     
     0   .000     23  1.900                                                     
     0   .000     23  1.900                                                     
     1   .000     23  2.500                                                     
     1  -.200     23  2.500                                                     
     2   .000     23  2.500                                                     
  local pseudopotential read in
  partial core-charges read in
  atomic valenz-charges read in
  non local Contribution for L=           0  read in
    real space projection operators read in
  non local Contribution for L=           0  read in
    real space projection operators read in
  non local Contribution for L=           1  read in
    real space projection operators read in
  non local Contribution for L=           1  read in
    real space projection operators read in
  non local Contribution for L=           2  read in
    real space projection operators read in
    PAW grid and wavefunctions read in
 
   number of l-projection  operators is LMAX  =           5
   number of lm-projection operators is LMMAX =          13
 
 PAW_PBE F 08Apr2002                    :
 energy of atom  1       EATOM= -659.4942
 kinetic energy error for atom=    0.0323 (will be added to EATOM!!)
 PAW_PBE Ni 06Sep2000                   :
 energy of atom  2       EATOM=-1077.9025
 kinetic energy error for atom=    0.0030 (will be added to EATOM!!)
 PAW_PBE Cs_sv 08Apr2002                :
 energy of atom  3       EATOM= -555.6835
 kinetic energy error for atom=    0.0016 (will be added to EATOM!!)
 
 
 POSCAR: For VASP. System= small                 
  positions in cartesian coordinates
  velocities in cartesian coordinates
  No initial velocities read in
 exchange correlation table for  LEXCH =        8
   RHO(1)=    0.500       N(1)  =     2000
   RHO(2)=  100.500       N(2)  =     4000
 


--------------------------------------------------------------------------------------------------------


 ion  position               nearest neighbor table
   1  0.570  0.640  0.250-  32 2.04  28 2.04
   2  0.070  0.640  0.250-  31 2.04  27 2.04
   3  0.570  0.140  0.250-  30 2.04  26 2.04
   4  0.070  0.140  0.250-  29 2.04  25 2.04
   5  0.860  0.930  0.250-  29 2.04  25 2.04
   6  0.360  0.930  0.250-  30 2.04  26 2.04
   7  0.860  0.430  0.250-  31 2.04  27 2.04
   8  0.360  0.430  0.250-  32 2.04  28 2.04
   9  0.570  0.930  0.250-  30 2.04  26 2.04
  10  0.070  0.930  0.250-  29 2.04  25 2.04
  11  0.570  0.430  0.250-  32 2.04  28 2.04
  12  0.070  0.430  0.250-  31 2.04  27 2.04
  13  0.930  0.860  0.750-  25 2.04  29 2.04
  14  0.430  0.860  0.750-  26 2.04  30 2.04
  15  0.930  0.360  0.750-  27 2.04  31 2.04
  16  0.430  0.360  0.750-  28 2.04  32 2.04
  17  0.640  0.570  0.750-  28 2.04  32 2.04
  18  0.140  0.570  0.750-  27 2.04  31 2.04
  19  0.640  0.070  0.750-  26 2.04  30 2.04
  20  0.140  0.070  0.750-  25 2.04  29 2.04
  21  0.930  0.570  0.750-  27 2.04  31 2.04
  22  0.430  0.570  0.750-  28 2.04  32 2.04
  23  0.930  0.070  0.750-  25 2.04  29 2.04
  24  0.430  0.070  0.750-  26 2.04  30 2.04
  25  0.000  0.000  0.000-  20 2.04   5 2.04   4 2.04  13 2.04  23 2.04  10 2.04  29 2.66  29 2.66

  26  0.500  0.000  0.000-  19 2.04   6 2.04   3 2.04  14 2.04  24 2.04   9 2.04  30 2.66  30 2.66

  27  1.000  0.500  0.000-  18 2.04   7 2.04  15 2.04   2 2.04  21 2.04  12 2.04  31 2.66  31 2.66

  28  0.500  0.500  0.000-  17 2.04   8 2.04  16 2.04   1 2.04  22 2.04  11 2.04  32 2.66  32 2.66

  29  0.000  0.000  0.500-   5 2.04  20 2.04   4 2.04  13 2.04  10 2.04  23 2.04  25 2.66  25 2.66

  30  0.500  0.000  0.500-   6 2.04  19 2.04   3 2.04  14 2.04   9 2.04  24 2.04  26 2.66  26 2.66

  31  1.000  0.500  0.500-   7 2.04  18 2.04   2 2.04  15 2.04  12 2.04  21 2.04  27 2.66  27 2.66

  32  0.500  0.500  0.500-   8 2.04  17 2.04   1 2.04  16 2.04  11 2.04  22 2.04  28 2.66  28 2.66

  33  0.667  0.833  0.750-
  34  0.167  0.833  0.750-
  35  0.667  0.333  0.750-
  36  0.167  0.333  0.750-
  37  0.833  0.667  0.250-
  38  0.333  0.667  0.250-
  39  0.833  0.167  0.250-
  40  0.333  0.167  0.250-
 
  LATTYP: Found a hexagonal cell.
 ALAT       =    12.7752670119
 C/A-ratio  =     0.4167528495
  
  Lattice vectors:
  
 A1 = (   6.3876227840,  11.0637119627,   0.0000000000)
 A2 = (   6.3876227840, -11.0637119627,   0.0000000000)
 A3 = (   0.0000000000,   0.0000000000,  -5.3241289298)


Analysis of symmetry for initial positions (statically):
=====================================================================
 Subroutine PRICEL returns following result:
 
  LATTYP: Found a hexagonal cell.
 ALAT       =     6.3876335059
 C/A-ratio  =     0.8335056989
  
  Lattice vectors:
  
 A1 = (   3.1938113920,   5.5318559813,   0.0000000000)
 A2 = (   3.1938113920,  -5.5318559813,   0.0000000000)
 A3 = (   0.0000000000,   0.0000000000,  -5.3241289298)
 
   4 primitive cells build up your supercell.
 

 Routine SETGRP: Setting up the symmetry group for a 
 hexagonal supercell.


 Subroutine GETGRP returns: Found  8 space group operations
 (whereof  4 operations were pure point group operations)
 out of a pool of 24 trial point group operations.


The static configuration has the point symmetry C_2h.
 The point group associated with its full space group is D_2h.


Analysis of symmetry for dynamics (positions and initial velocities):
=====================================================================
 Subroutine PRICEL returns following result:
 
  LATTYP: Found a hexagonal cell.
 ALAT       =     6.3876335059
 C/A-ratio  =     0.8335056989
  
  Lattice vectors:
  
 A1 = (   3.1938113920,   5.5318559813,   0.0000000000)
 A2 = (   3.1938113920,  -5.5318559813,   0.0000000000)
 A3 = (   0.0000000000,   0.0000000000,  -5.3241289298)
 
   4 primitive cells build up your supercell.
 

 Routine SETGRP: Setting up the symmetry group for a 
 hexagonal supercell.


 Subroutine GETGRP returns: Found  8 space group operations
 (whereof  4 operations were pure point group operations)
 out of a pool of 24 trial point group operations.


The dynamic configuration has the point symmetry C_2h.
 The point group associated with its full space group is D_2h.


Analysis of structural, dynamic, and magnetic symmetry:
=====================================================================
 Subroutine PRICEL returns following result:
 
  LATTYP: Found a hexagonal cell.
 ALAT       =     6.3876335059
 C/A-ratio  =     0.8335056989
  
  Lattice vectors:
  
 A1 = (   3.1938113920,   5.5318559813,   0.0000000000)
 A2 = (   3.1938113920,  -5.5318559813,   0.0000000000)
 A3 = (   0.0000000000,   0.0000000000,  -5.3241289298)
 
   4 primitive cells build up your supercell.
 

 Routine SETGRP: Setting up the symmetry group for a 
 hexagonal supercell.


 Subroutine GETGRP returns: Found  8 space group operations
 (whereof  4 operations were pure point group operations)
 out of a pool of 24 trial point group operations.


The magnetic configuration has the point symmetry C_2h.
 The point group associated with its full space group is D_2h.


 Subroutine INISYM returns: Found  8 space group operations
 (whereof  4 operations are pure point group operations),
 and found     4 'primitive' translations

 
 
 KPOINTS: Automatic mesh                          

Automatic generation of k-mesh.
Space group operators:
 irot       det(A)        alpha          n_x          n_y          n_z        tau_x        tau_y        tau_z
    1     1.000000     0.000000     1.000000     0.000000     0.000000     0.000000     0.000000     0.000000
    2    -1.000000     0.000000     1.000000     0.000000     0.000000     0.000000     0.000000     0.000000
    3     1.000000   180.000000    -0.500001    -0.866025     0.000000     0.000000     0.000000     0.000000
    4    -1.000000   180.000000    -0.500001    -0.866025     0.000000     0.000000     0.000000     0.000000
    5     1.000000   180.000000     0.000000     0.000000     1.000000     0.000000     0.000000    -0.500000
    6    -1.000000   180.000000     0.000000     0.000000     1.000000     0.000000     0.000000    -0.500000
    7     1.000000   180.000000     0.866026    -0.499999     0.000000     0.000000     0.000000    -0.500000
    8    -1.000000   180.000000     0.866026    -0.499999     0.000000     0.000000     0.000000    -0.500000
 
 Subroutine IBZKPT returns following result:
 ===========================================
 
 Found      9 irreducible k-points:
 
 Following reciprocal coordinates:
            Coordinates               Weight
  0.000000  0.000000  0.000000      1.000000
  0.500000  0.000000  0.000000      2.000000
  0.500000  0.500000  0.000000      1.000000
  0.000000  0.000000  0.250000      2.000000
  0.500000  0.000000  0.250000      4.000000
  0.500000  0.500000  0.250000      2.000000
  0.000000  0.000000  0.500000      1.000000
  0.500000  0.000000  0.500000      2.000000
  0.500000  0.500000  0.500000      1.000000
 
 Following cartesian coordinates:
            Coordinates               Weight
  0.000000  0.000000  0.000000      1.000000
  0.039138  0.022596  0.000000      2.000000
  0.039138  0.067789  0.000000      1.000000
  0.000000  0.000000  0.046956      2.000000
  0.039138  0.022596  0.046956      4.000000
  0.039138  0.067789  0.046956      2.000000
  0.000000  0.000000  0.093912      1.000000
  0.039138  0.022596  0.093912      2.000000
  0.039138  0.067789  0.093912      1.000000
 


--------------------------------------------------------------------------------------------------------




 Dimension of arrays:
   k-points           NKPTS =      9   k-points in BZ     NKDIM =      9   number of bands    NBANDS=    192
   number of dos      NEDOS =    301   number of ions     NIONS =     40
   non local maximal  LDIM  =      6   non local SUM 2l+1 LMDIM =     18
   total plane-waves  NPLWV = 368640
   max r-space proj   IRMAX =   9164   max aug-charges    IRDMAX=   9965
   dimension x,y,z NGX =    96 NGY =   96 NGZ =   40
   dimension x,y,z NGXF=   140 NGYF=  140 NGZF=   60
   support grid    NGXF=   140 NGYF=  140 NGZF=   60
   ions per type =              24   8   8
   NGX,Y,Z   is equivalent  to a cutoff of  12.49, 12.49, 12.49 a.u.
   NGXF,Y,Z  is equivalent  to a cutoff of  18.22, 18.22, 18.74 a.u.

 SYSTEM =  CsNiF3 AF without U                     
 POSCAR =  For VASP. System= small                 

 Startparameter for this run:
   NWRITE =      2    write-flag & timer
   PREC   = high      normal or accurate (medium, high low for compatibility)
   ISTART =      0    job   : 0-new  1-cont  2-samecut
   ICHARG =      2    charge: 1-file 2-atom 10-const
   ISPIN  =      2    spin polarized calculation?
   LNONCOLLINEAR =      F non collinear calculations
   LSORBIT =      F    spin-orbit coupling
   INIWAV =      1    electr: 0-lowe 1-rand  2-diag
   LASPH  =      F    aspherical Exc in radial PAW
   METAGGA=      F    non-selfconsistent MetaGGA calc.

 Electronic Relaxation 1
   ENCUT  =  520.0 eV  38.22 Ry    6.18 a.u.  23.75 23.75  9.90*2*pi/ulx,y,z
   ENINI  =  520.0     initial cutoff
   ENAUG  =  613.6 eV  augmentation charge cutoff
   NELM   =    100;   NELMIN=  2; NELMDL= -5     # of ELM steps 
   EDIFF  = 0.1E-06   stopping-criterion for ELM
   LREAL  =      T    real-space projection
   NLSPLINE    = F    spline interpolate recip. space projectors
   LCOMPAT=      F    compatible to vasp.4.4
   GGA_COMPAT  = T    GGA compatible to vasp.4.4-vasp.4.6
   LMAXPAW     = -100 max onsite density
   LMAXMIX     =    2 max onsite mixed and CHGCAR
   VOSKOWN=      0    Vosko Wilk Nusair interpolation
   ROPT   =    0.00000   0.00000   0.00000
 Ionic relaxation
   EDIFFG = 0.1E-05   stopping-criterion for IOM
   NSW    =      0    number of steps for IOM
   NBLOCK =      1;   KBLOCK =      1    inner block; outer block 
   IBRION =     -1    ionic relax: 0-MD 1-quasi-New 2-CG
   NFREE  =      0    steps in history (QN), initial steepest desc. (CG)
   ISIF   =      2    stress and relaxation
   IWAVPR =     10    prediction:  0-non 1-charg 2-wave 3-comb
   ISYM   =      2    0-nonsym 1-usesym 2-fastsym
   LCORR  =      T    Harris-Foulkes like correction to forces

   POTIM  = 0.5000    time-step for ionic-motion
   TEIN   =    0.0    initial temperature
   TEBEG  =    0.0;   TEEND  =   0.0 temperature during run
   SMASS  =  -3.00    Nose mass-parameter (am)
   estimated Nose-frequenzy (Omega)   =  0.10E-29 period in steps =****** mass=  -0.373E-26a.u.
   SCALEE = 1.0000    scale energy and forces
   NPACO  =    256;   APACO  = 16.0  distance and # of slots for P.C.
   PSTRESS=    0.0 pullay stress

  Mass of Ions in am
   POMASS =  19.00 58.69132.90
  Ionic Valenz
   ZVAL   =   7.00 10.00  9.00
  Atomic Wigner-Seitz radii
   RWIGS  =  -1.00 -1.00 -1.00
  virtual crystal weights 
   VCA    =   1.00  1.00  1.00
   NELECT =     320.0000    total number of electrons
   NUPDOWN=      -1.0000    fix difference up-down

 DOS related values:
   EMIN   =  10.00;   EMAX   =-10.00  energy-range for DOS
   EFERMI =   0.00
   ISMEAR =     0;   SIGMA  =   0.20  broadening in eV -4-tet -1-fermi 0-gaus

 Electronic relaxation 2 (details)
   IALGO  =     38    algorithm
   LDIAG  =      T    sub-space diagonalisation (order eigenvalues)
   LSUBROT=      F    optimize rotation matrix (better conditioning)
   TURBO    =      0    0=normal 1=particle mesh
   IRESTART =      0    0=no restart 2=restart with 2 vectors
   NREBOOT  =      0    no. of reboots
   NMIN     =      0    reboot dimension
   EREF     =   0.00    reference energy to select bands
   IMIX   =      4    mixing-type and parameters
     AMIX     =   0.40;   BMIX     =  1.00
     AMIX_MAG =   1.60;   BMIX_MAG =  1.00
     AMIN     =   0.10
     WC   =   100.;   INIMIX=   1;  MIXPRE=   1;  MAXMIX= -45

 Intra band minimization:
   WEIMIN = 0.0000     energy-eigenvalue tresh-hold
   EBREAK =  0.13E-09  absolut break condition
   DEPER  =   0.30     relativ break condition  

   TIME   =   0.40     timestep for ELM

  volume/ion in A,a.u.               =      18.81       126.96
  Fermi-wavevector in a.u.,A,eV,Ry     =   1.231077  2.326398 20.620322  1.515551
  Thomas-Fermi vector in A             =   2.365901
 
 Write flags
   LWAVE        =      F    write WAVECAR
   LDOWNSAMPLE  =      F    k-point downsampling of WAVECAR
   LCHARG       =      F    write CHGCAR
   LVTOT        =      F    write LOCPOT, total local potential
   LVHAR        =      F    write LOCPOT, Hartree potential only
   LELF         =      F    write electronic localiz. function (ELF)
   LORBIT       =     11    0 simple, 1 ext, 2 COOP (PROOUT), +10 PAW based schemes


 Dipole corrections
   LMONO  =      F    monopole corrections only (constant potential shift)
   LDIPOL =      F    correct potential (dipole corrections)
   IDIPOL =      0    1-x, 2-y, 3-z, 4-all directions 
   EPSILON=  1.0000000 bulk dielectric constant

 Exchange correlation treatment:
   GGA     =    --    GGA type
   LEXCH   =     8    internal setting for exchange type
   VOSKOWN=      0    Vosko Wilk Nusair interpolation
   LHFCALC =     F    Hartree Fock is set to
   LHFONE  =     F    Hartree Fock one center treatment
   AEXX    =    0.0000 exact exchange contribution

 Linear response parameters
   LEPSILON=     F    determine dielectric tensor
   LRPA    =     F    only Hartree local field effects (RPA)
   LNABLA  =     F    use nabla operator in PAW spheres
   LVEL    =     F    velocity operator in full k-point grid
   LINTERFAST=   F  fast interpolation
   KINTER  =     0    interpolate to denser k-point grid
   CSHIFT  =0.1000    complex shift for real part using Kramers Kronig
   OMEGAMAX=  -1.0    maximum frequency
   DEG_THRESHOLD= 0.2000000E-02 threshold for treating states as degnerate
   RTIME   =   -0.100 relaxation time in fs
  (WPLASMAI=    0.000 imaginary part of plasma frequency in eV, 0.658/RTIME)
   DFIELD  = 0.0000000 0.0000000 0.0000000 field for delta impulse in time
 
 Orbital magnetization related:
   ORBITALMAG=     F  switch on orbital magnetization
   LCHIMAG   =     F  perturbation theory with respect to B field
   DQ        =  0.001000  dq finite difference perturbation B field
   LLRAUG    =     F  two centre corrections for induced B field



--------------------------------------------------------------------------------------------------------


 Static calculation
 charge density and potential will be updated during run
 spin polarized calculation
 Variant of blocked Davidson
 Davidson routine will perform the subspace rotation
 perform sub-space diagonalisation
    after iterative eigenvector-optimisation
 modified Broyden-mixing scheme, WC =      100.0
 initial mixing is a Kerker type mixing with AMIX =  0.4000 and BMIX =      1.0000
 Hartree-type preconditioning will be used
 using additional bands           32
 real space projection scheme for non local part
 use partial core corrections
 calculate Harris-corrections to forces 
   (improved forces if not selfconsistent)
 use gradient corrections 
 use of overlap-Matrix (Vanderbilt PP)
 Gauss-broadening in eV      SIGMA  =   0.20


--------------------------------------------------------------------------------------------------------


  energy-cutoff  :      520.00
  volume of cell :      752.52
      direct lattice vectors                 reciprocal lattice vectors
    12.775245568  0.000000000  0.000000000     0.078276382  0.045192789  0.000000000
    -6.387622784 11.063711963  0.000000000     0.000000000  0.090385578  0.000000000
     0.000000000  0.000000000  5.324128930     0.000000000  0.000000000  0.187824152

  length of vectors
    12.775245568 12.775267012  5.324128930     0.090385730  0.090385578  0.187824152


 
 k-points in units of 2pi/SCALE and weight: Automatic mesh                          
   0.00000000  0.00000000  0.00000000       0.062
   0.03913819  0.02259639  0.00000000       0.125
   0.03913819  0.06778918  0.00000000       0.062
   0.00000000  0.00000000  0.04695604       0.125
   0.03913819  0.02259639  0.04695604       0.250
   0.03913819  0.06778918  0.04695604       0.125
   0.00000000  0.00000000  0.09391208       0.062
   0.03913819  0.02259639  0.09391208       0.125
   0.03913819  0.06778918  0.09391208       0.062
 
 k-points in reciprocal lattice and weights: Automatic mesh                          
   0.00000000  0.00000000  0.00000000       0.062
   0.50000000  0.00000000  0.00000000       0.125
   0.50000000  0.50000000  0.00000000       0.062
   0.00000000  0.00000000  0.25000000       0.125
   0.50000000  0.00000000  0.25000000       0.250
   0.50000000  0.50000000  0.25000000       0.125
   0.00000000  0.00000000  0.50000000       0.062
   0.50000000  0.00000000  0.50000000       0.125
   0.50000000  0.50000000  0.50000000       0.062
 
 position of ions in fractional coordinates (direct lattice) 
   0.57007855  0.64016376  0.25000000
   0.07007855  0.64016376  0.25000000
   0.57007855  0.14016376  0.25000000
   0.07007855  0.14016376  0.25000000
   0.85983624  0.92992145  0.25000000
   0.35983624  0.92992145  0.25000000
   0.85983624  0.42992145  0.25000000
   0.35983624  0.42992145  0.25000000
   0.57008349  0.92991651  0.25000000
   0.07008349  0.92991651  0.25000000
   0.57008349  0.42991651  0.25000000
   0.07008349  0.42991651  0.25000000
   0.92992145  0.85983624  0.75000000
   0.42992145  0.85983624  0.75000000
   0.92992145  0.35983624  0.75000000
   0.42992145  0.35983624  0.75000000
   0.64016376  0.57007855  0.75000000
   0.14016376  0.57007855  0.75000000
   0.64016376  0.07007855  0.75000000
   0.14016376  0.07007855  0.75000000
   0.92991651  0.57008349  0.75000000
   0.42991651  0.57008349  0.75000000
   0.92991651  0.07008349  0.75000000
   0.42991651  0.07008349  0.75000000
   0.00000000  0.00000000  0.00000000
   0.50000000  0.00000000  0.00000000
   1.00000000  0.50000000  0.00000000
   0.50000000  0.50000000  0.00000000
   0.00000000  0.00000000  0.50000000
   0.50000000  0.00000000  0.50000000
   1.00000000  0.50000000  0.50000000
   0.50000000  0.50000000  0.50000000
   0.66666713  0.83333287  0.75000000
   0.16666713  0.83333287  0.75000000
   0.66666713  0.33333287  0.75000000
   0.16666713  0.33333287  0.75000000
   0.83333287  0.66666713  0.25000000
   0.33333287  0.66666713  0.25000000
   0.83333287  0.16666713  0.25000000
   0.33333287  0.16666713  0.25000000
 
 position of ions in cartesian coordinates  (Angst):
   3.19376888  7.08258743  1.33103223
  -3.19385391  7.08258743  1.33103223
   6.38758027  1.55073145  1.33103223
  -0.00004252  1.55073145  1.33103223
   5.04463170 10.28838306  1.33103223
  -1.34299108 10.28838306  1.33103223
   8.23844310  4.75652708  1.33103223
   1.85082031  4.75652708  1.33103223
   1.34300064 10.28832845  1.33103223
  -5.04462215 10.28832845  1.33103223
   4.53681203  4.75647247  1.33103223
  -1.85081076  4.75647247  1.33103223
   6.38766530  9.51298052  3.99309670
   0.00004252  9.51298052  3.99309670
   9.58147669  3.98112454  3.99309670
   3.19385391  3.98112454  3.99309670
   4.53680247  6.30718488  3.99309670
  -1.85082031  6.30718488  3.99309670
   7.73061386  0.77532890  3.99309670
   1.34299108  0.77532890  3.99309670
   8.23843354  6.30723949  3.99309670
   1.85081076  6.30723949  3.99309670
  11.43224493  0.77538351  3.99309670
   5.04462215  0.77538351  3.99309670
   0.00000000  0.00000000  0.00000000
   6.38762278  0.00000000  0.00000000
   9.58143418  5.53185598  0.00000000
   3.19381139  5.53185598  0.00000000
   0.00000000  0.00000000  2.66206446
   6.38762278  0.00000000  2.66206446
   9.58143418  5.53185598  2.66206446
   3.19381139  5.53185598  2.66206446
   3.19382031  9.21975482  3.99309670
  -3.19380247  9.21975482  3.99309670
   6.38763170  3.68789884  3.99309670
   0.00000892  3.68789884  3.99309670
   6.38761387  7.37581312  1.33103223
  -0.00000892  7.37581312  1.33103223
   9.58142526  1.84395714  1.33103223
   3.19380247  1.84395714  1.33103223
 


--------------------------------------------------------------------------------------------------------


 k-point  1 :   0.0000 0.0000 0.0000  plane waves:   20197
 k-point  2 :   0.5000 0.0000 0.0000  plane waves:   20226
 k-point  3 :   0.5000 0.5000 0.0000  plane waves:   20226
 k-point  4 :   0.0000 0.0000 0.2500  plane waves:   20294
 k-point  5 :   0.5000 0.0000 0.2500  plane waves:   20258
 k-point  6 :   0.5000 0.5000 0.2500  plane waves:   20258
 k-point  7 :   0.0000 0.0000 0.5000  plane waves:   20240
 k-point  8 :   0.5000 0.0000 0.5000  plane waves:   20320
 k-point  9 :   0.5000 0.5000 0.5000  plane waves:   20320

 maximum and minimum number of plane-waves per node :       882      806

 maximum number of plane-waves:     20320
 maximum index in each direction: 
   IXMAX=   23   IYMAX=   23   IZMAX=    9
   IXMIN=  -24   IYMIN=  -24   IZMIN=  -10


 real space projection operators:
  total allocation   :      19689.81 KBytes
  max/ min on nodes  :        844.06        757.81


 parallel 3D FFT for wavefunctions:
    minimum data exchange during FFTs selected (reduces bandwidth)
 parallel 3D FFT for charge:
    minimum data exchange during FFTs selected (reduces bandwidth)


 total amount of memory used by VASP MPI-rank0    53350. kBytes
=======================================================================

   base      :      30000. kBytes
   nonlr-proj:       7318. kBytes
   fftplans  :       1046. kBytes
   grid      :       2759. kBytes
   one-center:         62. kBytes
   wavefun   :      12165. kBytes
 
     INWAV:  cpu time    0.0001: real time    0.0002
 Broyden mixing: mesh for mixing (old mesh)
   NGX = 47   NGY = 47   NGZ = 19
  (NGX  =140   NGY  =140   NGZ  = 60)
  gives a total of  41971 points

 initial charge density was supplied:
 charge density of overlapping atoms calculated
 number of electron     320.0000000 magnetization      -0.0000000
 keeping initial charge density in first step


--------------------------------------------------------------------------------------------------------


 Maximum index for non-local projection operator          385
 Maximum index for augmentation-charges          485 (set IRDMAX)


--------------------------------------------------------------------------------------------------------


 First call to EWALD:  gamma=   0.195
 Maximum number of real-space cells 2x 2x 4
 Maximum number of reciprocal cells 4x 4x 2

    FEWALD:  cpu time    0.0020: real time    0.0020


--------------------------------------- Iteration      1(   1)  ---------------------------------------


    POTLOK:  cpu time    0.1192: real time    0.1207
    SETDIJ:  cpu time    0.0073: real time    0.0073
     EDDAV:  cpu time    5.5188: real time    5.5390
       DOS:  cpu time    0.0032: real time    0.0032
    --------------------------------------------
      LOOP:  cpu time    5.6486: real time    5.6702

 eigenvalue-minimisations  :  6912
 total energy-change (2. order) : 0.3968890E+04  (-0.1462861E+05)
 number of electron     320.0000000 magnetization      -0.0000000
 augmentation part      320.0000000 magnetization      -0.0000000

 Free energy of the ion-electron system (eV)
  ---------------------------------------------------
  alpha Z        PSCENC =      1278.33848294
  Ewald energy   TEWEN  =    -16011.11606870
  -Hartree energ DENC   =    -12510.24273293
  -exchange      EXHF   =         0.00000000
  -V(xc)+E(xc)   XCENC  =      1221.43890180
  PAW double counting   =     19640.54138542   -20241.63226317
  entropy T*S    EENTRO =        -0.12414276
  eigenvalues    EBANDS =      1695.94955231
  atomic energy  EATOM  =     28895.73697308
  Solvation  Ediel_sol  =         0.00000000
  ---------------------------------------------------
  free energy    TOTEN  =      3968.89008800 eV

  energy without entropy =     3969.01423076  energy(sigma->0) =     3968.95215938


--------------------------------------------------------------------------------------------------------




--------------------------------------- Iteration      1(   2)  ---------------------------------------


     EDDAV:  cpu time    6.0828: real time    6.1117
       DOS:  cpu time    0.0037: real time    0.0037
    --------------------------------------------
      LOOP:  cpu time    6.0865: real time    6.1154

 eigenvalue-minimisations  :  7456
 total energy-change (2. order) :-0.3479538E+04  (-0.3224604E+04)
 number of electron     320.0000000 magnetization      -0.0000000
 augmentation part      320.0000000 magnetization      -0.0000000

 Free energy of the ion-electron system (eV)
  ---------------------------------------------------
  alpha Z        PSCENC =      1278.33848294
  Ewald energy   TEWEN  =    -16011.11606870
  -Hartree energ DENC   =    -12510.24273293
  -exchange      EXHF   =         0.00000000
  -V(xc)+E(xc)   XCENC  =      1221.43890180
  PAW double counting   =     19640.54138542   -20241.63226317
  entropy T*S    EENTRO =        -0.30963042
  eigenvalues    EBANDS =     -1783.40253356
  atomic energy  EATOM  =     28895.73697308
  Solvation  Ediel_sol  =         0.00000000
  ---------------------------------------------------
  free energy    TOTEN  =       489.35251447 eV

  energy without entropy =      489.66214489  energy(sigma->0) =      489.50732968


--------------------------------------------------------------------------------------------------------




--------------------------------------- Iteration      1(   3)  ---------------------------------------


     EDDAV:  cpu time    6.0640: real time    6.0866
       DOS:  cpu time    0.0039: real time    0.0039
    --------------------------------------------
      LOOP:  cpu time    6.0679: real time    6.0905

 eigenvalue-minimisations  :  7512
 total energy-change (2. order) :-0.6603204E+03  (-0.6411562E+03)
 number of electron     320.0000000 magnetization      -0.0000000
 augmentation part      320.0000000 magnetization      -0.0000000

 Free energy of the ion-electron system (eV)
  ---------------------------------------------------
  alpha Z        PSCENC =      1278.33848294
  Ewald energy   TEWEN  =    -16011.11606870
  -Hartree energ DENC   =    -12510.24273293
  -exchange      EXHF   =         0.00000000
  -V(xc)+E(xc)   XCENC  =      1221.43890180
  PAW double counting   =     19640.54138542   -20241.63226317
  entropy T*S    EENTRO =        -0.43329284
  eigenvalues    EBANDS =     -2443.59930877
  atomic energy  EATOM  =     28895.73697308
  Solvation  Ediel_sol  =         0.00000000
  ---------------------------------------------------
  free energy    TOTEN  =      -170.96792316 eV

  energy without entropy =     -170.53463032  energy(sigma->0) =     -170.75127674


--------------------------------------------------------------------------------------------------------




--------------------------------------- Iteration      1(   4)  ---------------------------------------


     EDDAV:  cpu time    6.3575: real time    6.3744
       DOS:  cpu time    0.0040: real time    0.0040
    --------------------------------------------
      LOOP:  cpu time    6.3615: real time    6.3784

 eigenvalue-minimisations  :  8008
 total energy-change (2. order) :-0.3809362E+02  (-0.3731865E+02)
 number of electron     320.0000000 magnetization      -0.0000000
 augmentation part      320.0000000 magnetization      -0.0000000

 Free energy of the ion-electron system (eV)
  ---------------------------------------------------
  alpha Z        PSCENC =      1278.33848294
  Ewald energy   TEWEN  =    -16011.11606870
  -Hartree energ DENC   =    -12510.24273293
  -exchange      EXHF   =         0.00000000
  -V(xc)+E(xc)   XCENC  =      1221.43890180
  PAW double counting   =     19640.54138542   -20241.63226317
  entropy T*S    EENTRO =        -0.40148253
  eigenvalues    EBANDS =     -2481.72473815
  atomic energy  EATOM  =     28895.73697308
  Solvation  Ediel_sol  =         0.00000000
  ---------------------------------------------------
  free energy    TOTEN  =      -209.06154223 eV

  energy without entropy =     -208.66005970  energy(sigma->0) =     -208.86080097


--------------------------------------------------------------------------------------------------------




--------------------------------------- Iteration      1(   5)  ---------------------------------------


     EDDAV:  cpu time    6.5540: real time    6.5881
       DOS:  cpu time    0.0041: real time    0.0041
    CHARGE:  cpu time    0.3414: real time    0.3431
    MIXING:  cpu time    0.0016: real time    0.0016
    --------------------------------------------
      LOOP:  cpu time    6.9010: real time    6.9368

 eigenvalue-minimisations  :  8688
 total energy-change (2. order) :-0.1469841E+01  (-0.1462303E+01)
 number of electron     320.0000850 magnetization      -0.0000000
 augmentation part       64.5767003 magnetization      -0.0000000

 Broyden mixing:
  rms(total) = 0.37183E+01    rms(broyden)= 0.37145E+01
  rms(prec ) = 0.46243E+01
  weight for this iteration     100.00

 Free energy of the ion-electron system (eV)
  ---------------------------------------------------
  alpha Z        PSCENC =      1278.33848294
  Ewald energy   TEWEN  =    -16011.11606870
  -Hartree energ DENC   =    -12510.24273293
  -exchange      EXHF   =         0.00000000
  -V(xc)+E(xc)   XCENC  =      1221.43890180
  PAW double counting   =     19640.54138542   -20241.63226317
  entropy T*S    EENTRO =        -0.40071174
  eigenvalues    EBANDS =     -2483.19535000
  atomic energy  EATOM  =     28895.73697308
  Solvation  Ediel_sol  =         0.00000000
  ---------------------------------------------------
  free energy    TOTEN  =      -210.53138329 eV

  energy without entropy =     -210.13067156  energy(sigma->0) =     -210.33102743


--------------------------------------------------------------------------------------------------------




--------------------------------------- Iteration      1(   6)  ---------------------------------------


    POTLOK:  cpu time    0.0824: real time    0.0862
    SETDIJ:  cpu time    0.0069: real time    0.0069
     EDDAV:  cpu time    6.9616: real time    6.9751
       DOS:  cpu time    0.0030: real time    0.0030
    CHARGE:  cpu time    0.3719: real time    0.3726
    MIXING:  cpu time    0.0048: real time    0.0048
    --------------------------------------------
      LOOP:  cpu time    7.4306: real time    7.4485

 eigenvalue-minimisations  :  9648
 total energy-change (2. order) : 0.2712603E+02  (-0.2117876E+02)
 number of electron     320.0000821 magnetization      -0.0000000
 augmentation part       66.3610787 magnetization      -0.0000000

 Broyden mixing:
  rms(total) = 0.20590E+01    rms(broyden)= 0.20571E+01
  rms(prec ) = 0.22166E+01
  weight for this iteration     100.00

 eigenvalues of (default mixing * dielectric matrix)
  average eigenvalue GAMMA=   0.5966
  0.5966

 Free energy of the ion-electron system (eV)
  ---------------------------------------------------
  alpha Z        PSCENC =      1278.33848294
  Ewald energy   TEWEN  =    -16011.11606870
  -Hartree energ DENC   =    -12661.49093763
  -exchange      EXHF   =         0.00000000
  -V(xc)+E(xc)   XCENC  =      1242.12550953
  PAW double counting   =     20155.67146914   -20728.42890656
  entropy T*S    EENTRO =        -0.00000002
  eigenvalues    EBANDS =     -2354.24187837
  atomic energy  EATOM  =     28895.73697308
  Solvation  Ediel_sol  =         0.00000000
  ---------------------------------------------------
  free energy    TOTEN  =      -183.40535660 eV

  energy without entropy =     -183.40535658  energy(sigma->0) =     -183.40535659


--------------------------------------------------------------------------------------------------------




--------------------------------------- Iteration      1(   7)  ---------------------------------------


    POTLOK:  cpu time    0.0879: real time    0.0909
    SETDIJ:  cpu time    0.0067: real time    0.0067
     EDDAV:  cpu time    7.1317: real time    7.1679
       DOS:  cpu time    0.0037: real time    0.0037
    CHARGE:  cpu time    0.3645: real time    0.3646
    MIXING:  cpu time    0.0014: real time    0.0014
    --------------------------------------------
      LOOP:  cpu time    7.5959: real time    7.6353

 eigenvalue-minimisations  :  9600
 total energy-change (2. order) : 0.6219769E+00  (-0.2942143E+01)
 number of electron     320.0000820 magnetization      -0.0000000
 augmentation part       64.3193733 magnetization      -0.0000000

 Broyden mixing:
  rms(total) = 0.87465E+00    rms(broyden)= 0.87439E+00
  rms(prec ) = 0.94733E+00
  weight for this iteration     100.00

 eigenvalues of (default mixing * dielectric matrix)
  average eigenvalue GAMMA=   0.6550
  0.6550  0.6550

 Free energy of the ion-electron system (eV)
  ---------------------------------------------------
  alpha Z        PSCENC =      1278.33848294
  Ewald energy   TEWEN  =    -16011.11606870
  -Hartree energ DENC   =    -12691.12869993
  -exchange      EXHF   =         0.00000000
  -V(xc)+E(xc)   XCENC  =      1238.82709574
  PAW double counting   =     20307.30276866   -20911.38680916
  entropy T*S    EENTRO =        -0.00011465
  eigenvalues    EBANDS =     -2289.35700770
  atomic energy  EATOM  =     28895.73697308
  Solvation  Ediel_sol  =         0.00000000
  ---------------------------------------------------
  free energy    TOTEN  =      -182.78337971 eV

  energy without entropy =     -182.78326507  energy(sigma->0) =     -182.78332239


--------------------------------------------------------------------------------------------------------




--------------------------------------- Iteration      1(   8)  ---------------------------------------


    POTLOK:  cpu time    0.0860: real time    0.0907
    SETDIJ:  cpu time    0.0068: real time    0.0068
     EDDAV:  cpu time    6.5043: real time    6.5358
       DOS:  cpu time    0.0039: real time    0.0039
    CHARGE:  cpu time    0.3842: real time    0.3919
    MIXING:  cpu time    0.0010: real time    0.0010
    --------------------------------------------
      LOOP:  cpu time    6.9861: real time    7.0301

 eigenvalue-minimisations  :  8304
 total energy-change (2. order) :-0.3450294E+00  (-0.4329025E+00)
 number of electron     320.0000826 magnetization      -0.0000000
 augmentation part       64.4307908 magnetization      -0.0000000

 Broyden mixing:
  rms(total) = 0.47461E+00    rms(broyden)= 0.47447E+00
  rms(prec ) = 0.55085E+00
  weight for this iteration     100.00

 eigenvalues of (default mixing * dielectric matrix)
  average eigenvalue GAMMA=   1.0657
  1.8136  0.6917  0.6917

 Free energy of the ion-electron system (eV)
  ---------------------------------------------------
  alpha Z        PSCENC =      1278.33848294
  Ewald energy   TEWEN  =    -16011.11606870
  -Hartree energ DENC   =    -12677.69898121
  -exchange      EXHF   =         0.00000000
  -V(xc)+E(xc)   XCENC  =      1238.41591583
  PAW double counting   =     20356.12542230   -20966.16854546
  entropy T*S    EENTRO =        -0.00003638
  eigenvalues    EBANDS =     -2296.76157149
  atomic energy  EATOM  =     28895.73697308
  Solvation  Ediel_sol  =         0.00000000
  ---------------------------------------------------
  free energy    TOTEN  =      -183.12840910 eV

  energy without entropy =     -183.12837272  energy(sigma->0) =     -183.12839091


--------------------------------------------------------------------------------------------------------




--------------------------------------- Iteration      1(   9)  ---------------------------------------


    POTLOK:  cpu time    0.0888: real time    0.0891
    SETDIJ:  cpu time    0.0069: real time    0.0069
     EDDAV:  cpu time    7.2712: real time    7.2902
       DOS:  cpu time    0.0037: real time    0.0037
    CHARGE:  cpu time    0.3281: real time    0.3283
    MIXING:  cpu time    0.0014: real time    0.0014
    --------------------------------------------
      LOOP:  cpu time    7.7000: real time    7.7196

 eigenvalue-minimisations  :  9280
 total energy-change (2. order) : 0.1013508E+00  (-0.6531026E-01)
 number of electron     320.0000824 magnetization      -0.0000000
 augmentation part       64.5898647 magnetization      -0.0000000

 Broyden mixing:
  rms(total) = 0.21627E+00    rms(broyden)= 0.21625E+00
  rms(prec ) = 0.23449E+00
  weight for this iteration     100.00

 eigenvalues of (default mixing * dielectric matrix)
  average eigenvalue GAMMA=   1.1147
  2.4386  0.7985  0.6109  0.6109

 Free energy of the ion-electron system (eV)
  ---------------------------------------------------
  alpha Z        PSCENC =      1278.33848294
  Ewald energy   TEWEN  =    -16011.11606870
  -Hartree energ DENC   =    -12691.02556192
  -exchange      EXHF   =         0.00000000
  -V(xc)+E(xc)   XCENC  =      1240.17415643
  PAW double counting   =     20544.78042042   -21167.69136107
  entropy T*S    EENTRO =        -0.00000523
  eigenvalues    EBANDS =     -2272.22409425
  atomic energy  EATOM  =     28895.73697308
  Solvation  Ediel_sol  =         0.00000000
  ---------------------------------------------------
  free energy    TOTEN  =      -183.02705830 eV

  energy without entropy =     -183.02705307  energy(sigma->0) =     -183.02705569


--------------------------------------------------------------------------------------------------------




--------------------------------------- Iteration      1(  10)  ---------------------------------------


    POTLOK:  cpu time    0.0851: real time    0.0889
    SETDIJ:  cpu time    0.0068: real time    0.0068
     EDDAV:  cpu time    7.0995: real time    7.1389
       DOS:  cpu time    0.0036: real time    0.0036
    CHARGE:  cpu time    0.3957: real time    0.3959
    MIXING:  cpu time    0.0015: real time    0.0015
    --------------------------------------------
      LOOP:  cpu time    7.5921: real time    7.6356

 eigenvalue-minimisations  :  9328
 total energy-change (2. order) :-0.1872457E-01  (-0.2430022E-01)
 number of electron     320.0000826 magnetization       0.0000000
 augmentation part       64.4885720 magnetization       0.0000000

 Broyden mixing:
  rms(total) = 0.73769E-01    rms(broyden)= 0.73716E-01
  rms(prec ) = 0.88191E-01
  weight for this iteration     100.00

 eigenvalues of (default mixing * dielectric matrix)
  average eigenvalue GAMMA=   1.1107
  2.4397  1.1441  0.6553  0.6553  0.6589

 Free energy of the ion-electron system (eV)
  ---------------------------------------------------
  alpha Z        PSCENC =      1278.33848294
  Ewald energy   TEWEN  =    -16011.11606870
  -Hartree energ DENC   =    -12694.64452864
  -exchange      EXHF   =         0.00000000
  -V(xc)+E(xc)   XCENC  =      1240.08777691
  PAW double counting   =     20562.29385193   -21188.23187390
  entropy T*S    EENTRO =        -0.00000487
  eigenvalues    EBANDS =     -2265.51039161
  atomic energy  EATOM  =     28895.73697308
  Solvation  Ediel_sol  =         0.00000000
  ---------------------------------------------------
  free energy    TOTEN  =      -183.04578287 eV

  energy without entropy =     -183.04577800  energy(sigma->0) =     -183.04578044


--------------------------------------------------------------------------------------------------------




--------------------------------------- Iteration      1(  11)  ---------------------------------------


    POTLOK:  cpu time    0.0836: real time    0.0872
    SETDIJ:  cpu time    0.0067: real time    0.0068
     EDDAV:  cpu time    7.2685: real time    7.2755
       DOS:  cpu time    0.0036: real time    0.0036
    CHARGE:  cpu time    0.3278: real time    0.3281
    MIXING:  cpu time    0.0011: real time    0.0011
    --------------------------------------------
      LOOP:  cpu time    7.6914: real time    7.7022

 eigenvalue-minimisations  :  9992
 total energy-change (2. order) : 0.1749146E-03  (-0.4137051E-02)
 number of electron     320.0000827 magnetization      -0.0000000
 augmentation part       64.4759269 magnetization      -0.0000000

 Broyden mixing:
  rms(total) = 0.26763E-01    rms(broyden)= 0.26697E-01
  rms(prec ) = 0.30986E-01
  weight for this iteration     100.00

 eigenvalues of (default mixing * dielectric matrix)
  average eigenvalue GAMMA=   1.0799
  2.4741  1.0177  1.0177  0.6599  0.6599  0.6505

 Free energy of the ion-electron system (eV)
  ---------------------------------------------------
  alpha Z        PSCENC =      1278.33848294
  Ewald energy   TEWEN  =    -16011.11606870
  -Hartree energ DENC   =    -12695.07064869
  -exchange      EXHF   =         0.00000000
  -V(xc)+E(xc)   XCENC  =      1239.90399798
  PAW double counting   =     20556.78595115   -21182.96997634
  entropy T*S    EENTRO =        -0.00000674
  eigenvalues    EBANDS =     -2264.65431263
  atomic energy  EATOM  =     28895.73697308
  Solvation  Ediel_sol  =         0.00000000
  ---------------------------------------------------
  free energy    TOTEN  =      -183.04560796 eV

  energy without entropy =     -183.04560122  energy(sigma->0) =     -183.04560459


--------------------------------------------------------------------------------------------------------




--------------------------------------- Iteration      1(  12)  ---------------------------------------


    POTLOK:  cpu time    0.0901: real time    0.0903
    SETDIJ:  cpu time    0.0249: real time    0.0249
     EDDAV:  cpu time    6.2694: real time    6.2847
       DOS:  cpu time    0.0037: real time    0.0037
    CHARGE:  cpu time    0.3678: real time    0.3681
    MIXING:  cpu time    0.0010: real time    0.0010
    --------------------------------------------
      LOOP:  cpu time    6.7569: real time    6.7726

 eigenvalue-minimisations  :  7720
 total energy-change (2. order) :-0.3360344E-02  (-0.1135010E-02)
 number of electron     320.0000826 magnetization      -0.0000000
 augmentation part       64.4836316 magnetization      -0.0000000

 Broyden mixing:
  rms(total) = 0.12140E-01    rms(broyden)= 0.12104E-01
  rms(prec ) = 0.14194E-01
  weight for this iteration     100.00

 eigenvalues of (default mixing * dielectric matrix)
  average eigenvalue GAMMA=   1.1736
  2.4783  1.7979  0.9854  0.9854  0.6627  0.6627  0.6429

 Free energy of the ion-electron system (eV)
  ---------------------------------------------------
  alpha Z        PSCENC =      1278.33848294
  Ewald energy   TEWEN  =    -16011.11606870
  -Hartree energ DENC   =    -12697.55240888
  -exchange      EXHF   =         0.00000000
  -V(xc)+E(xc)   XCENC  =      1240.09109679
  PAW double counting   =     20557.70852411   -21183.82552519
  entropy T*S    EENTRO =        -0.00000563
  eigenvalues    EBANDS =     -2262.43003683
  atomic energy  EATOM  =     28895.73697308
  Solvation  Ediel_sol  =         0.00000000
  ---------------------------------------------------
  free energy    TOTEN  =      -183.04896830 eV

  energy without entropy =     -183.04896268  energy(sigma->0) =     -183.04896549


--------------------------------------------------------------------------------------------------------




--------------------------------------- Iteration      1(  13)  ---------------------------------------


    POTLOK:  cpu time    0.0845: real time    0.0889
    SETDIJ:  cpu time    0.0067: real time    0.0067
     EDDAV:  cpu time    6.2698: real time    6.2938
       DOS:  cpu time    0.0033: real time    0.0033
    CHARGE:  cpu time    0.3301: real time    0.3304
    MIXING:  cpu time    0.0014: real time    0.0014
    --------------------------------------------
      LOOP:  cpu time    6.6960: real time    6.7246

 eigenvalue-minimisations  :  8328
 total energy-change (2. order) :-0.8021426E-03  (-0.9898454E-04)
 number of electron     320.0000826 magnetization      -0.0000000
 augmentation part       64.4783603 magnetization      -0.0000000

 Broyden mixing:
  rms(total) = 0.58928E-02    rms(broyden)= 0.58844E-02
  rms(prec ) = 0.67743E-02
  weight for this iteration     100.00

 eigenvalues of (default mixing * dielectric matrix)
  average eigenvalue GAMMA=   1.1895
  2.4902  2.2549  1.0063  1.0063  0.6591  0.6591  0.6396  0.8009

 Free energy of the ion-electron system (eV)
  ---------------------------------------------------
  alpha Z        PSCENC =      1278.33848294
  Ewald energy   TEWEN  =    -16011.11606870
  -Hartree energ DENC   =    -12699.06620728
  -exchange      EXHF   =         0.00000000
  -V(xc)+E(xc)   XCENC  =      1240.14534814
  PAW double counting   =     20557.87674273   -21183.97867046
  entropy T*S    EENTRO =        -0.00000572
  eigenvalues    EBANDS =     -2260.98636517
  atomic energy  EATOM  =     28895.73697308
  Solvation  Ediel_sol  =         0.00000000
  ---------------------------------------------------
  free energy    TOTEN  =      -183.04977044 eV

  energy without entropy =     -183.04976472  energy(sigma->0) =     -183.04976758


--------------------------------------------------------------------------------------------------------




--------------------------------------- Iteration      1(  14)  ---------------------------------------


    POTLOK:  cpu time    0.0852: real time    0.0893
    SETDIJ:  cpu time    0.0069: real time    0.0069
     EDDAV:  cpu time    6.0929: real time    6.1239
       DOS:  cpu time    0.0038: real time    0.0038
    CHARGE:  cpu time    0.3462: real time    0.3495
    MIXING:  cpu time    0.0014: real time    0.0014
    --------------------------------------------
      LOOP:  cpu time    6.5363: real time    6.5747

 eigenvalue-minimisations  :  8136
 total energy-change (2. order) :-0.1443425E-03  (-0.1720846E-04)
 number of electron     320.0000826 magnetization      -0.0000000
 augmentation part       64.4793307 magnetization      -0.0000000

 Broyden mixing:
  rms(total) = 0.25951E-02    rms(broyden)= 0.25916E-02
  rms(prec ) = 0.29758E-02
  weight for this iteration     100.00

 eigenvalues of (default mixing * dielectric matrix)
  average eigenvalue GAMMA=   1.2232
  2.7158  2.3766  1.1562  1.1562  0.9524  0.6614  0.6614  0.6814  0.6473

 Free energy of the ion-electron system (eV)
  ---------------------------------------------------
  alpha Z        PSCENC =      1278.33848294
  Ewald energy   TEWEN  =    -16011.11606870
  -Hartree energ DENC   =    -12699.45176443
  -exchange      EXHF   =         0.00000000
  -V(xc)+E(xc)   XCENC  =      1240.16171182
  PAW double counting   =     20557.63781408   -21183.70256733
  entropy T*S    EENTRO =        -0.00000585
  eigenvalues    EBANDS =     -2260.65449041
  atomic energy  EATOM  =     28895.73697308
  Solvation  Ediel_sol  =         0.00000000
  ---------------------------------------------------
  free energy    TOTEN  =      -183.04991479 eV

  energy without entropy =     -183.04990894  energy(sigma->0) =     -183.04991186


--------------------------------------------------------------------------------------------------------




--------------------------------------- Iteration      1(  15)  ---------------------------------------


    POTLOK:  cpu time    0.0884: real time    0.0903
    SETDIJ:  cpu time    0.0068: real time    0.0068
     EDDAV:  cpu time    6.4516: real time    6.4785
       DOS:  cpu time    0.0036: real time    0.0036
    CHARGE:  cpu time    0.3387: real time    0.3389
    MIXING:  cpu time    0.0024: real time    0.0024
    --------------------------------------------
      LOOP:  cpu time    6.8915: real time    6.9205

 eigenvalue-minimisations  :  8320
 total energy-change (2. order) :-0.5054929E-04  (-0.4497381E-05)
 number of electron     320.0000826 magnetization      -0.0000000
 augmentation part       64.4794872 magnetization      -0.0000000

 Broyden mixing:
  rms(total) = 0.88429E-03    rms(broyden)= 0.87833E-03
  rms(prec ) = 0.10041E-02
  weight for this iteration     100.00

 eigenvalues of (default mixing * dielectric matrix)
  average eigenvalue GAMMA=   1.2158
  2.8994  2.3885  1.2023  1.2023  1.0584  0.6615  0.6615  0.7928  0.6345  0.6570

 Free energy of the ion-electron system (eV)
  ---------------------------------------------------
  alpha Z        PSCENC =      1278.33848294
  Ewald energy   TEWEN  =    -16011.11606870
  -Hartree energ DENC   =    -12699.71127582
  -exchange      EXHF   =         0.00000000
  -V(xc)+E(xc)   XCENC  =      1240.17775197
  PAW double counting   =     20557.63175669   -21183.68408915
  entropy T*S    EENTRO =        -0.00000585
  eigenvalues    EBANDS =     -2260.42349048
  atomic energy  EATOM  =     28895.73697308
  Solvation  Ediel_sol  =         0.00000000
  ---------------------------------------------------
  free energy    TOTEN  =      -183.04996534 eV

  energy without entropy =     -183.04995948  energy(sigma->0) =     -183.04996241


--------------------------------------------------------------------------------------------------------




--------------------------------------- Iteration      1(  16)  ---------------------------------------


    POTLOK:  cpu time    0.0892: real time    0.0931
    SETDIJ:  cpu time    0.0067: real time    0.0067
     EDDAV:  cpu time    6.7106: real time    6.7918
       DOS:  cpu time    0.0034: real time    0.0034
    CHARGE:  cpu time    0.3848: real time    0.3938
    MIXING:  cpu time    0.0013: real time    0.0013
    --------------------------------------------
      LOOP:  cpu time    7.1959: real time    7.2900

 eigenvalue-minimisations  :  8736
 total energy-change (2. order) :-0.6229806E-05  (-0.7676698E-06)
 number of electron     320.0000826 magnetization      -0.0000000
 augmentation part       64.4795780 magnetization      -0.0000000

 Broyden mixing:
  rms(total) = 0.53776E-03    rms(broyden)= 0.53759E-03
  rms(prec ) = 0.61487E-03
  weight for this iteration     100.00

 eigenvalues of (default mixing * dielectric matrix)
  average eigenvalue GAMMA=   1.2091
  2.9265  2.4089  1.2299  1.2299  1.1008  1.1008  0.6619  0.6619  0.7189  0.6554
  0.6051

 Free energy of the ion-electron system (eV)
  ---------------------------------------------------
  alpha Z        PSCENC =      1278.33848294
  Ewald energy   TEWEN  =    -16011.11606870
  -Hartree energ DENC   =    -12699.74856245
  -exchange      EXHF   =         0.00000000
  -V(xc)+E(xc)   XCENC  =      1240.18127341
  PAW double counting   =     20557.55909166   -21183.61018125
  entropy T*S    EENTRO =        -0.00000584
  eigenvalues    EBANDS =     -2260.39097443
  atomic energy  EATOM  =     28895.73697308
  Solvation  Ediel_sol  =         0.00000000
  ---------------------------------------------------
  free energy    TOTEN  =      -183.04997157 eV

  energy without entropy =     -183.04996573  energy(sigma->0) =     -183.04996865


--------------------------------------------------------------------------------------------------------




--------------------------------------- Iteration      1(  17)  ---------------------------------------


    POTLOK:  cpu time    0.0862: real time    0.0903
    SETDIJ:  cpu time    0.0067: real time    0.0067
     EDDAV:  cpu time    7.0667: real time    7.1259
       DOS:  cpu time    0.0033: real time    0.0033
    CHARGE:  cpu time    0.3493: real time    0.3496
    MIXING:  cpu time    0.0016: real time    0.0016
    --------------------------------------------
      LOOP:  cpu time    7.5138: real time    7.5775

 eigenvalue-minimisations  :  8832
 total energy-change (2. order) :-0.2499124E-05  (-0.2067189E-06)
 number of electron     320.0000826 magnetization      -0.0000000
 augmentation part       64.4795547 magnetization      -0.0000000

 Broyden mixing:
  rms(total) = 0.21027E-03    rms(broyden)= 0.21019E-03
  rms(prec ) = 0.22890E-03
  weight for this iteration     100.00

 eigenvalues of (default mixing * dielectric matrix)
  average eigenvalue GAMMA=   1.2466
  2.9843  2.4312  2.0871  1.1705  1.1705  1.0696  0.6618  0.6618  0.7903  0.7149
  0.6430  0.5742

 Free energy of the ion-electron system (eV)
  ---------------------------------------------------
  alpha Z        PSCENC =      1278.33848294
  Ewald energy   TEWEN  =    -16011.11606870
  -Hartree energ DENC   =    -12699.74103906
  -exchange      EXHF   =         0.00000000
  -V(xc)+E(xc)   XCENC  =      1240.18162920
  PAW double counting   =     20557.42113677   -21183.47335156
  entropy T*S    EENTRO =        -0.00000584
  eigenvalues    EBANDS =     -2260.39773088
  atomic energy  EATOM  =     28895.73697308
  Solvation  Ediel_sol  =         0.00000000
  ---------------------------------------------------
  free energy    TOTEN  =      -183.04997407 eV

  energy without entropy =     -183.04996822  energy(sigma->0) =     -183.04997114


--------------------------------------------------------------------------------------------------------




--------------------------------------- Iteration      1(  18)  ---------------------------------------


    POTLOK:  cpu time    0.0858: real time    0.0900
    SETDIJ:  cpu time    0.0067: real time    0.0067
     EDDAV:  cpu time    5.5281: real time    5.5502
       DOS:  cpu time    0.0035: real time    0.0035
    CHARGE:  cpu time    0.3431: real time    0.3432
    MIXING:  cpu time    0.0014: real time    0.0014
    --------------------------------------------
      LOOP:  cpu time    5.9687: real time    5.9950

 eigenvalue-minimisations  :  7008
 total energy-change (2. order) :-0.6923874E-06  (-0.6112187E-07)
 number of electron     320.0000826 magnetization      -0.0000000
 augmentation part       64.4796520 magnetization      -0.0000000

 Broyden mixing:
  rms(total) = 0.11095E-03    rms(broyden)= 0.11091E-03
  rms(prec ) = 0.13002E-03
  weight for this iteration     100.00

 eigenvalues of (default mixing * dielectric matrix)
  average eigenvalue GAMMA=   1.2267
  3.0102  2.4595  2.1982  1.1934  1.1934  0.6619  0.6619  0.9155  0.9155  0.8487
  0.6749  0.6383  0.5762

 Free energy of the ion-electron system (eV)
  ---------------------------------------------------
  alpha Z        PSCENC =      1278.33848294
  Ewald energy   TEWEN  =    -16011.11606870
  -Hartree energ DENC   =    -12699.74053910
  -exchange      EXHF   =         0.00000000
  -V(xc)+E(xc)   XCENC  =      1240.18217519
  PAW double counting   =     20557.38761278   -21183.44015459
  entropy T*S    EENTRO =        -0.00000585
  eigenvalues    EBANDS =     -2260.39845052
  atomic energy  EATOM  =     28895.73697308
  Solvation  Ediel_sol  =         0.00000000
  ---------------------------------------------------
  free energy    TOTEN  =      -183.04997476 eV

  energy without entropy =     -183.04996891  energy(sigma->0) =     -183.04997183


--------------------------------------------------------------------------------------------------------




--------------------------------------- Iteration      1(  19)  ---------------------------------------


    POTLOK:  cpu time    0.0870: real time    0.0909
    SETDIJ:  cpu time    0.0067: real time    0.0067
     EDDAV:  cpu time    4.4117: real time    4.4365
       DOS:  cpu time    0.0034: real time    0.0034
    --------------------------------------------
      LOOP:  cpu time    4.5088: real time    4.5375

 eigenvalue-minimisations  :  4552
 total energy-change (2. order) :-0.7388007E-07  (-0.5141427E-08)
 number of electron     320.0000826 magnetization      -0.0000000
 augmentation part       64.4796520 magnetization      -0.0000000

 Free energy of the ion-electron system (eV)
  ---------------------------------------------------
  alpha Z        PSCENC =      1278.33848294
  Ewald energy   TEWEN  =    -16011.11606870
  -Hartree energ DENC   =    -12699.74676866
  -exchange      EXHF   =         0.00000000
  -V(xc)+E(xc)   XCENC  =      1240.18274988
  PAW double counting   =     20557.39688449   -21183.44980680
  entropy T*S    EENTRO =        -0.00000585
  eigenvalues    EBANDS =     -2260.39241521
  atomic energy  EATOM  =     28895.73697308
  Solvation  Ediel_sol  =         0.00000000
  ---------------------------------------------------
  free energy    TOTEN  =      -183.04997483 eV

  energy without entropy =     -183.04996899  energy(sigma->0) =     -183.04997191


--------------------------------------------------------------------------------------------------------




 average (electrostatic) potential at core
  the test charge radii are     0.7167  0.9791  1.1312
  (the norm of the test charge is              1.0000)
       1 -78.4164       2 -78.4164       3 -78.4164       4 -78.4164       5 -78.4164
       6 -78.4164       7 -78.4164       8 -78.4164       9 -78.4164      10 -78.4164
      11 -78.4164      12 -78.4164      13 -78.4164      14 -78.4164      15 -78.4164
      16 -78.4164      17 -78.4164      18 -78.4164      19 -78.4164      20 -78.4164
      21 -78.4164      22 -78.4164      23 -78.4164      24 -78.4164      25 -46.7728
      26 -46.7728      27 -46.7728      28 -46.7728      29 -46.7728      30 -46.7728
      31 -46.7728      32 -46.7728      33 -49.4759      34 -49.4759      35 -49.4759
      36 -49.4759      37 -49.4759      38 -49.4759      39 -49.4759      40 -49.4759
 
 
 
 E-fermi :   1.1231     XC(G=0):  -8.6945     alpha+bet : -7.8451


 spin component 1

 k-point     1 :       0.0000    0.0000    0.0000
  band No.  band energies     occupation 
      1     -22.3757      1.00000
      2     -22.3587      1.00000
      3     -22.1732      1.00000
      4     -22.1573      1.00000
      5     -22.0402      1.00000
      6     -22.0345      1.00000
      7     -21.9193      1.00000
      8     -21.9125      1.00000
      9     -21.9066      1.00000
     10     -21.8988      1.00000
     11     -21.8636      1.00000
     12     -21.8612      1.00000
     13     -21.8583      1.00000
     14     -21.8559      1.00000
     15     -21.8346      1.00000
     16     -21.8290      1.00000
     17     -21.7138      1.00000
     18     -21.7057      1.00000
     19     -21.7000      1.00000
     20     -21.6927      1.00000
     21     -21.6478      1.00000
     22     -21.6455      1.00000
     23     -21.6425      1.00000
     24     -21.6401      1.00000
     25     -19.7378      1.00000
     26     -19.7369      1.00000
     27     -19.7362      1.00000
     28     -19.7361      1.00000
     29     -19.7343      1.00000
     30     -19.7342      1.00000
     31     -19.7338      1.00000
     32     -19.7113      1.00000
     33      -7.0042      1.00000
     34      -7.0042      1.00000
     35      -6.9191      1.00000
     36      -6.8550      1.00000
     37      -6.8545      1.00000
     38      -6.8539      1.00000
     39      -6.7084      1.00000
     40      -6.7060      1.00000
     41      -6.7037      1.00000
     42      -6.6376      1.00000
     43      -6.6321      1.00000
     44      -6.6263      1.00000
     45      -6.6007      1.00000
     46      -6.6007      1.00000
     47      -6.5867      1.00000
     48      -6.5862      1.00000
     49      -6.5860      1.00000
     50      -6.5652      1.00000
     51      -6.5623      1.00000
     52      -6.5599      1.00000
     53      -6.4958      1.00000
     54      -6.4956      1.00000
     55      -6.4955      1.00000
     56      -6.4329      1.00000
     57      -5.7384      1.00000
     58      -5.6459      1.00000
     59      -5.4324      1.00000
     60      -5.3787      1.00000
     61      -5.1863      1.00000
     62      -5.1105      1.00000
     63      -4.9607      1.00000
     64      -4.8472      1.00000
     65      -4.7764      1.00000
     66      -4.7635      1.00000
     67      -4.7548      1.00000
     68      -4.6924      1.00000
     69      -4.6556      1.00000
     70      -4.5956      1.00000
     71      -4.5434      1.00000
     72      -4.5255      1.00000
     73      -4.5178      1.00000
     74      -4.4988      1.00000
     75      -4.4362      1.00000
     76      -4.3867      1.00000
     77      -4.2665      1.00000
     78      -4.1495      1.00000
     79      -4.1185      1.00000
     80      -4.0564      1.00000
     81      -4.0396      1.00000
     82      -4.0100      1.00000
     83      -3.9928      1.00000
     84      -3.9692      1.00000
     85      -3.8382      1.00000
     86      -3.7855      1.00000
     87      -3.7738      1.00000
     88      -3.7581      1.00000
     89      -3.7425      1.00000
     90      -3.7341      1.00000
     91      -3.7340      1.00000
     92      -3.7314      1.00000
     93      -3.7208      1.00000
     94      -3.7150      1.00000
     95      -3.7065      1.00000
     96      -3.6947      1.00000
     97      -3.6476      1.00000
     98      -3.6324      1.00000
     99      -3.6304      1.00000
    100      -3.5815      1.00000
    101      -3.5258      1.00000
    102      -3.5063      1.00000
    103      -3.4910      1.00000
    104      -3.4722      1.00000
    105      -3.2886      1.00000
    106      -3.1934      1.00000
    107      -3.1604      1.00000
    108      -3.1014      1.00000
    109      -3.0988      1.00000
    110      -3.0889      1.00000
    111      -3.0329      1.00000
    112      -2.9924      1.00000
    113      -2.9586      1.00000
    114      -2.8561      1.00000
    115      -2.8508      1.00000
    116      -2.8499      1.00000
    117      -2.8459      1.00000
    118      -2.7907      1.00000
    119      -2.7418      1.00000
    120      -2.6722      1.00000
    121      -2.6128      1.00000
    122      -2.6074      1.00000
    123      -2.5735      1.00000
    124      -2.5425      1.00000
    125      -2.5172      1.00000
    126      -2.5019      1.00000
    127      -2.4146      1.00000
    128      -2.3897      1.00000
    129      -1.5727      1.00000
    130      -1.5583      1.00000
    131      -1.2959      1.00000
    132      -1.2920      1.00000
    133      -1.2917      1.00000
    134      -1.2878      1.00000
    135      -0.8528      1.00000
    136      -0.8380      1.00000
    137      -0.8335      1.00000
    138      -0.8196      1.00000
    139      -0.6893      1.00000
    140      -0.6889      1.00000
    141      -0.5812      1.00000
    142      -0.5722      1.00000
    143      -0.4308      1.00000
    144      -0.4224      1.00000
    145      -0.4183      1.00000
    146      -0.4159      1.00000
    147      -0.4116      1.00000
    148      -0.4040      1.00000
    149      -0.3753      1.00000
    150      -0.3438      1.00000
    151      -0.0759      1.00000
    152      -0.0741      1.00000
    153      -0.0737      1.00000
    154      -0.0719      1.00000
    155       0.2437      1.00000
    156       0.2442      1.00000
    157       0.2549      1.00000
    158       0.2557      1.00000
    159       0.4928      1.00000
    160       0.4928      1.00000
    161       1.8161      0.00000
    162       1.8446      0.00000
    163       1.8608      0.00000
    164       1.8633      0.00000
    165       1.8666      0.00000
    166       1.8693      0.00000
    167       1.8707      0.00000
    168       1.8984      0.00000
    169       3.8868      0.00000
    170       5.3841      0.00000
    171       5.4809      0.00000
    172       5.5754      0.00000
    173       5.8017      0.00000
    174       5.8096      0.00000
    175       5.8176      0.00000
    176       6.1448      0.00000
    177       6.4578      0.00000
    178       6.4705      0.00000
    179       6.4838      0.00000
    180       6.9682      0.00000
    181       6.9735      0.00000
    182       6.9786      0.00000
    183       7.0371      0.00000
    184       7.0372      0.00000
    185       7.1491      0.00000
    186       7.1496      0.00000
    187       7.5103      0.00000
    188       7.5107      0.00000
    189       7.5819      0.00000
    190       7.5958      0.00000
    191       7.6162      0.00000
    192       7.6908      0.00000

 k-point     2 :       0.5000    0.0000    0.0000
  band No.  band energies     occupation 
      1     -22.3672      1.00000
      2     -22.3672      1.00000
      3     -22.1661      1.00000
      4     -22.1661      1.00000
      5     -22.0374      1.00000
      6     -22.0374      1.00000
      7     -21.9093      1.00000
      8     -21.9093      1.00000
      9     -21.9086      1.00000
     10     -21.9086      1.00000
     11     -21.8599      1.00000
     12     -21.8599      1.00000
     13     -21.8597      1.00000
     14     -21.8597      1.00000
     15     -21.8316      1.00000
     16     -21.8316      1.00000
     17     -21.7034      1.00000
     18     -21.7034      1.00000
     19     -21.7032      1.00000
     20     -21.7032      1.00000
     21     -21.6439      1.00000
     22     -21.6439      1.00000
     23     -21.6438      1.00000
     24     -21.6438      1.00000
     25     -19.7386      1.00000
     26     -19.7386      1.00000
     27     -19.7373      1.00000
     28     -19.7373      1.00000
     29     -19.7328      1.00000
     30     -19.7328      1.00000
     31     -19.7217      1.00000
     32     -19.7217      1.00000
     33      -6.9346      1.00000
     34      -6.9346      1.00000
     35      -6.8380      1.00000
     36      -6.8380      1.00000
     37      -6.8314      1.00000
     38      -6.8314      1.00000
     39      -6.8215      1.00000
     40      -6.8215      1.00000
     41      -6.7179      1.00000
     42      -6.7179      1.00000
     43      -6.6856      1.00000
     44      -6.6856      1.00000
     45      -6.5823      1.00000
     46      -6.5823      1.00000
     47      -6.5784      1.00000
     48      -6.5784      1.00000
     49      -6.5714      1.00000
     50      -6.5714      1.00000
     51      -6.5550      1.00000
     52      -6.5550      1.00000
     53      -6.4869      1.00000
     54      -6.4869      1.00000
     55      -6.4546      1.00000
     56      -6.4546      1.00000
     57      -5.6905      1.00000
     58      -5.6905      1.00000
     59      -5.4125      1.00000
     60      -5.4125      1.00000
     61      -5.1411      1.00000
     62      -5.1411      1.00000
     63      -4.8783      1.00000
     64      -4.8783      1.00000
     65      -4.7693      1.00000
     66      -4.7693      1.00000
     67      -4.7554      1.00000
     68      -4.7554      1.00000
     69      -4.6226      1.00000
     70      -4.6226      1.00000
     71      -4.5236      1.00000
     72      -4.5236      1.00000
     73      -4.5226      1.00000
     74      -4.5226      1.00000
     75      -4.4127      1.00000
     76      -4.4127      1.00000
     77      -4.1349      1.00000
     78      -4.1349      1.00000
     79      -4.1314      1.00000
     80      -4.1314      1.00000
     81      -4.0102      1.00000
     82      -4.0102      1.00000
     83      -3.9936      1.00000
     84      -3.9936      1.00000
     85      -3.7792      1.00000
     86      -3.7792      1.00000
     87      -3.7724      1.00000
     88      -3.7724      1.00000
     89      -3.7407      1.00000
     90      -3.7407      1.00000
     91      -3.7132      1.00000
     92      -3.7132      1.00000
     93      -3.7081      1.00000
     94      -3.7081      1.00000
     95      -3.7050      1.00000
     96      -3.7050      1.00000
     97      -3.6271      1.00000
[...]
   24        1.736   4.329   0.000   6.064
   25        0.296   0.367   8.176   8.839
   26        0.296   0.367   8.176   8.839
   27        0.296   0.367   8.176   8.839
   28        0.296   0.367   8.176   8.839
   29        0.296   0.367   8.176   8.839
   30        0.296   0.367   8.176   8.839
   31        0.296   0.367   8.176   8.839
   32        0.296   0.367   8.176   8.839
   33        1.838   4.719   0.017   6.574
   34        1.838   4.719   0.017   6.574
   35        1.838   4.719   0.017   6.574
   36        1.838   4.719   0.017   6.574
   37        1.838   4.719   0.017   6.574
   38        1.838   4.719   0.017   6.574
   39        1.838   4.719   0.017   6.574
   40        1.838   4.719   0.017   6.574
--------------------------------------------------
tot         58.727 144.576  65.549 268.852
 


 magnetization (x)
 
# of ion       s       p       d       tot
------------------------------------------
    1        0.004   0.101   0.000   0.105
    2       -0.004  -0.101   0.000  -0.105
    3       -0.004  -0.101   0.000  -0.105
    4        0.004   0.101   0.000   0.105
    5        0.004   0.101   0.000   0.105
    6       -0.004  -0.101   0.000  -0.105
    7       -0.004  -0.101   0.000  -0.105
    8        0.004   0.101   0.000   0.105
    9       -0.004  -0.100   0.000  -0.104
   10        0.004   0.100   0.000   0.104
   11        0.004   0.100   0.000   0.104
   12       -0.004  -0.100   0.000  -0.104
   13        0.004   0.101   0.000   0.105
   14       -0.004  -0.101   0.000  -0.105
   15       -0.004  -0.101   0.000  -0.105
   16        0.004   0.101   0.000   0.105
   17        0.004   0.101   0.000   0.105
   18       -0.004  -0.101   0.000  -0.105
   19       -0.004  -0.101   0.000  -0.105
   20        0.004   0.101   0.000   0.105
   21       -0.004  -0.100   0.000  -0.104
   22        0.004   0.100   0.000   0.104
   23        0.004   0.100   0.000   0.104
   24       -0.004  -0.100   0.000  -0.104
   25        0.000  -0.001   1.644   1.642
   26       -0.000   0.001  -1.644  -1.642
   27       -0.000   0.001  -1.644  -1.642
   28        0.000  -0.001   1.644   1.642
   29        0.000  -0.001   1.644   1.642
   30       -0.000   0.001  -1.644  -1.642
   31       -0.000   0.001  -1.644  -1.642
   32        0.000  -0.001   1.644   1.642
   33        0.000   0.000   0.000   0.001
   34       -0.000  -0.000  -0.000  -0.001
   35       -0.000  -0.000  -0.000  -0.001
   36        0.000   0.000   0.000   0.001
   37        0.000   0.000   0.000   0.001
   38       -0.000  -0.000  -0.000  -0.001
   39       -0.000  -0.000  -0.000  -0.001
   40        0.000   0.000   0.000   0.001
--------------------------------------------------
tot         -0.000  -0.000   0.000  -0.000
 
    CHARGE:  cpu time    0.3355: real time    0.3357
    FORLOC:  cpu time    0.0031: real time    0.0031
    FORNL :  cpu time    0.7850: real time    0.7858
    STRESS:  cpu time    2.4886: real time    2.4900
    FORCOR:  cpu time    0.0770: real time    0.0815
    FORHAR:  cpu time    0.0380: real time    0.0380
    MIXING:  cpu time    0.0013: real time    0.0013
    OFIELD:  cpu time    0.0000: real time    0.0000

  FORCE on cell =-STRESS in cart. coord.  units (eV):
  Direction    XX          YY          ZZ          XY          YZ          ZX
  --------------------------------------------------------------------------------------
  Alpha Z  1278.33848  1278.33848  1278.33848
  Ewald   -7609.75632 -7610.00282  -791.44196    -0.20307    -0.00000     0.00000
  Hartree  2322.02535  2321.81818  8055.91541    -0.18133    -0.00000    -0.00000
  E(xc)   -1677.20238 -1677.20327 -1675.12908    -0.00095    -0.00000    -0.00000
  Local     557.07962   557.50795-11901.94849     0.37711     0.00000     0.00000
  n-local -1127.02214 -1127.04259 -1113.12663     0.00487    -0.00000     0.00000
  augment   750.20158   750.20609   727.58473     0.00177     0.00000    -0.00000
  Kinetic  5506.30019  5506.48569  5419.76394    -0.04274    -0.00000    -0.00000
  Fock        0.00000     0.00000     0.00000     0.00000     0.00000     0.00000
  -------------------------------------------------------------------------------------
  Total       0.03734     0.03477    -0.04360    -0.00222     0.00000     0.00000
  in kB       0.07949     0.07402    -0.09284    -0.00473     0.00000     0.00000
  external pressure =        0.02 kB  Pullay stress =        0.00 kB


 VOLUME and BASIS-vectors are now :
 -----------------------------------------------------------------------------
  energy-cutoff  :      520.00
  volume of cell :      752.52
      direct lattice vectors                 reciprocal lattice vectors
    12.775245568  0.000000000  0.000000000     0.078276382  0.045192789  0.000000000
    -6.387622784 11.063711963  0.000000000     0.000000000  0.090385578  0.000000000
     0.000000000  0.000000000  5.324128930     0.000000000  0.000000000  0.187824152

  length of vectors
    12.775245568 12.775267012  5.324128930     0.090385730  0.090385578  0.187824152


 FORCES acting on ions
    electron-ion (+dipol)            ewald-force                    non-local-force                 convergence-correction
 -----------------------------------------------------------------------------------------------
   -.130E-03 -.392E+03 -.228E-04   -.107E-02 0.408E+03 -.641E-08   0.102E-02 -.163E+02 0.000E+00   0.826E-05 0.555E-03 -.197E-11
   -.130E-03 -.392E+03 -.228E-04   -.107E-02 0.408E+03 -.641E-08   0.102E-02 -.163E+02 0.000E+00   0.826E-05 0.555E-03 -.203E-11
   -.130E-03 -.392E+03 -.228E-04   -.107E-02 0.408E+03 -.641E-08   0.102E-02 -.163E+02 0.000E+00   0.826E-05 0.555E-03 -.195E-11
   -.130E-03 -.392E+03 -.228E-04   -.107E-02 0.408E+03 -.641E-08   0.102E-02 -.163E+02 0.000E+00   0.826E-05 0.555E-03 -.199E-11
   0.339E+03 0.196E+03 0.226E-04   -.354E+03 -.204E+03 -.641E-08   0.142E+02 0.817E+01 0.000E+00   -.476E-03 -.284E-03 -.200E-11
   0.339E+03 0.196E+03 0.226E-04   -.354E+03 -.204E+03 -.642E-08   0.142E+02 0.817E+01 0.000E+00   -.476E-03 -.284E-03 -.201E-11
   0.339E+03 0.196E+03 0.226E-04   -.354E+03 -.204E+03 -.642E-08   0.142E+02 0.817E+01 0.000E+00   -.476E-03 -.284E-03 -.202E-11
   0.339E+03 0.196E+03 0.226E-04   -.354E+03 -.204E+03 -.642E-08   0.142E+02 0.817E+01 0.000E+00   -.476E-03 -.284E-03 -.202E-11
   -.339E+03 0.196E+03 -.889E-07   0.354E+03 -.204E+03 -.641E-08   -.142E+02 0.817E+01 0.000E+00   0.474E-03 -.274E-03 -.200E-11
   -.339E+03 0.196E+03 -.889E-07   0.354E+03 -.204E+03 -.641E-08   -.142E+02 0.817E+01 0.000E+00   0.474E-03 -.274E-03 -.206E-11
   -.339E+03 0.196E+03 -.889E-07   0.354E+03 -.204E+03 -.641E-08   -.142E+02 0.817E+01 0.000E+00   0.474E-03 -.274E-03 -.201E-11
   -.339E+03 0.196E+03 -.889E-07   0.354E+03 -.204E+03 -.641E-08   -.142E+02 0.817E+01 0.000E+00   0.474E-03 -.274E-03 -.207E-11
   0.130E-03 0.392E+03 0.226E-04   0.107E-02 -.408E+03 -.641E-08   -.102E-02 0.163E+02 -.207E-24   -.826E-05 -.555E-03 -.216E-11
   0.130E-03 0.392E+03 0.226E-04   0.107E-02 -.408E+03 -.641E-08   -.102E-02 0.163E+02 0.000E+00   -.826E-05 -.555E-03 -.216E-11
   0.130E-03 0.392E+03 0.226E-04   0.107E-02 -.408E+03 -.641E-08   -.102E-02 0.163E+02 0.000E+00   -.826E-05 -.555E-03 -.216E-11
   0.130E-03 0.392E+03 0.226E-04   0.107E-02 -.408E+03 -.641E-08   -.102E-02 0.163E+02 -.207E-24   -.826E-05 -.555E-03 -.214E-11
   -.339E+03 -.196E+03 -.228E-04   0.354E+03 0.204E+03 -.642E-08   -.142E+02 -.817E+01 -.207E-24   0.476E-03 0.284E-03 -.209E-11
   -.339E+03 -.196E+03 -.228E-04   0.354E+03 0.204E+03 -.642E-08   -.142E+02 -.817E+01 -.207E-24   0.476E-03 0.284E-03 -.204E-11
   -.339E+03 -.196E+03 -.228E-04   0.354E+03 0.204E+03 -.642E-08   -.142E+02 -.817E+01 -.207E-24   0.476E-03 0.284E-03 -.210E-11
   -.339E+03 -.196E+03 -.228E-04   0.354E+03 0.204E+03 -.642E-08   -.142E+02 -.817E+01 0.000E+00   0.476E-03 0.284E-03 -.205E-11
   0.339E+03 -.196E+03 -.894E-07   -.354E+03 0.204E+03 -.641E-08   0.142E+02 -.817E+01 0.000E+00   -.474E-03 0.274E-03 -.213E-11
   0.339E+03 -.196E+03 -.894E-07   -.354E+03 0.204E+03 -.641E-08   0.142E+02 -.817E+01 0.000E+00   -.474E-03 0.274E-03 -.214E-11
   0.339E+03 -.196E+03 -.893E-07   -.354E+03 0.204E+03 -.641E-08   0.142E+02 -.817E+01 0.000E+00   -.474E-03 0.274E-03 -.218E-11
   0.339E+03 -.196E+03 -.894E-07   -.354E+03 0.204E+03 -.641E-08   0.142E+02 -.817E+01 0.000E+00   -.474E-03 0.274E-03 -.216E-11
   -.462E-10 0.972E-09 -.322E-08   0.265E-09 -.724E-08 0.206E-07   0.414E-24 -.103E-24 0.000E+00   -.763E-11 0.412E-09 -.117E-10
   -.449E-10 0.972E-09 -.322E-08   0.265E-09 -.724E-08 0.206E-07   -.258E-24 -.103E-24 0.000E+00   -.772E-11 0.411E-09 -.117E-10
   -.159E-08 0.665E-08 -.224E-08   0.874E-08 0.171E-08 0.100E-07   -.121E-23 0.207E-24 0.000E+00   -.126E-10 -.531E-09 0.154E-10
   -.158E-08 0.666E-08 -.221E-08   0.874E-08 0.171E-08 0.100E-07   0.620E-24 -.827E-24 0.000E+00   -.133E-10 -.531E-09 0.155E-10
   -.467E-10 0.972E-09 -.368E-08   0.267E-09 -.724E-08 0.181E-07   -.258E-24 0.000E+00 0.000E+00   -.775E-11 0.412E-09 0.124E-10
   -.455E-10 0.972E-09 -.368E-08   0.267E-09 -.724E-08 0.181E-07   0.620E-24 0.000E+00 0.000E+00   -.776E-11 0.411E-09 0.123E-10
   -.159E-08 0.665E-08 -.469E-08   0.874E-08 0.171E-08 0.287E-07   0.129E-23 0.000E+00 0.103E-24   -.127E-10 -.531E-09 -.147E-10
   -.159E-08 0.666E-08 -.468E-08   0.874E-08 0.171E-08 0.287E-07   -.114E-23 0.414E-24 0.000E+00   -.133E-10 -.531E-09 -.148E-10
   -.773E-02 0.545E-02 -.276E-07   0.754E-02 -.538E-02 -.113E-09   0.200E-03 -.115E-03 0.000E+00   0.688E-05 -.382E-05 0.221E-11
   -.773E-02 0.545E-02 -.276E-07   0.754E-02 -.538E-02 -.113E-09   0.200E-03 -.115E-03 0.517E-25   0.688E-05 -.382E-05 0.223E-11
   -.773E-02 0.545E-02 -.276E-07   0.754E-02 -.538E-02 -.113E-09   0.200E-03 -.115E-03 0.000E+00   0.688E-05 -.382E-05 0.222E-11
   -.773E-02 0.545E-02 -.276E-07   0.754E-02 -.538E-02 -.113E-09   0.200E-03 -.115E-03 0.000E+00   0.688E-05 -.382E-05 0.222E-11
   0.773E-02 -.545E-02 -.276E-07   -.754E-02 0.538E-02 -.113E-09   -.200E-03 0.115E-03 0.000E+00   -.688E-05 0.382E-05 0.229E-11
   0.773E-02 -.545E-02 -.276E-07   -.754E-02 0.538E-02 -.113E-09   -.200E-03 0.115E-03 0.000E+00   -.688E-05 0.382E-05 0.230E-11
   0.773E-02 -.545E-02 -.276E-07   -.754E-02 0.538E-02 -.113E-09   -.200E-03 0.115E-03 0.000E+00   -.688E-05 0.382E-05 0.231E-11
   0.773E-02 -.545E-02 -.276E-07   -.754E-02 0.538E-02 -.113E-09   -.200E-03 0.115E-03 0.000E+00   -.688E-05 0.382E-05 0.231E-11
 -----------------------------------------------------------------------------------------------
   0.289E-07 0.200E-05 -.239E-05   0.541E-12 0.107E-12 -.791E-14   -.391E-13 0.178E-14 -.879E-24   -.120E-09 -.671E-09 -.289E-10
 
 
 POSITION                                       TOTAL-FORCE (eV/Angst)
 -----------------------------------------------------------------------------------
      3.19377      7.08259      1.33103        -0.000129      0.001741      0.000000
     -3.19385      7.08259      1.33103        -0.000129      0.001741      0.000000
      6.38758      1.55073      1.33103        -0.000129      0.001741      0.000000
     -0.00004      1.55073      1.33103        -0.000129      0.001741      0.000000
      5.04463     10.28838      1.33103        -0.001572     -0.000758     -0.000000
     -1.34299     10.28838      1.33103        -0.001572     -0.000758      0.000000
      8.23844      4.75653      1.33103        -0.001572     -0.000758      0.000000
      1.85082      4.75653      1.33103        -0.001572     -0.000758     -0.000000
      1.34300     10.28833      1.33103         0.001495     -0.000863     -0.000000
     -5.04462     10.28833      1.33103         0.001495     -0.000863     -0.000000
      4.53681      4.75647      1.33103         0.001495     -0.000863     -0.000000
     -1.85081      4.75647      1.33103         0.001495     -0.000863     -0.000000
      6.38767      9.51298      3.99310         0.000129     -0.001741      0.000000
      0.00004      9.51298      3.99310         0.000129     -0.001741      0.000000
      9.58148      3.98112      3.99310         0.000129     -0.001741     -0.000000
      3.19385      3.98112      3.99310         0.000129     -0.001741      0.000000
      4.53680      6.30718      3.99310         0.001572      0.000758     -0.000000
     -1.85082      6.30718      3.99310         0.001572      0.000758      0.000000
      7.73061      0.77533      3.99310         0.001572      0.000758      0.000000
      1.34299      0.77533      3.99310         0.001572      0.000758     -0.000000
      8.23843      6.30724      3.99310        -0.001495      0.000863     -0.000000
      1.85081      6.30724      3.99310        -0.001495      0.000863     -0.000000
     11.43224      0.77538      3.99310        -0.001495      0.000863     -0.000000
      5.04462      0.77538      3.99310        -0.001495      0.000863     -0.000000
      0.00000      0.00000      0.00000        -0.000000      0.000000     -0.000000
      6.38762      0.00000      0.00000        -0.000000      0.000000     -0.000000
      9.58143      5.53186      0.00000        -0.000000      0.000000     -0.000000
      3.19381      5.53186      0.00000        -0.000000      0.000000     -0.000000
      0.00000      0.00000      2.66206        -0.000000      0.000000     -0.000000
      6.38762      0.00000      2.66206        -0.000000      0.000000     -0.000000
      9.58143      5.53186      2.66206        -0.000000      0.000000     -0.000000
      3.19381      5.53186      2.66206        -0.000000      0.000000     -0.000000
      3.19382      9.21975      3.99310         0.000034     -0.000019     -0.000000
     -3.19380      9.21975      3.99310         0.000034     -0.000019     -0.000000
      6.38763      3.68790      3.99310         0.000034     -0.000019     -0.000000
      0.00001      3.68790      3.99310         0.000034     -0.000019     -0.000000
      6.38761      7.37581      1.33103        -0.000034      0.000019     -0.000000
     -0.00001      7.37581      1.33103        -0.000034      0.000019     -0.000000
      9.58143      1.84396      1.33103        -0.000034      0.000019     -0.000000
      3.19380      1.84396      1.33103        -0.000034      0.000019     -0.000000
 -----------------------------------------------------------------------------------
    total drift:                                0.000000      0.000002     -0.000002


--------------------------------------------------------------------------------------------------------



  FREE ENERGIE OF THE ION-ELECTRON SYSTEM (eV)
  ---------------------------------------------------
  free  energy   TOTEN  =      -183.04997483 eV

  energy  without entropy=     -183.04996899  energy(sigma->0) =     -183.04997191
 


--------------------------------------------------------------------------------------------------------


    POTLOK:  cpu time    0.0970: real time    0.0970


--------------------------------------------------------------------------------------------------------


     LOOP+:  cpu time  132.0043: real time  132.6391
    4ORBIT:  cpu time    0.0000: real time    0.0000
 


 total charge     
 
# of ion       s       p       d       tot
------------------------------------------
    1        1.736   4.328   0.000   6.064
    2        1.736   4.328   0.000   6.064
    3        1.736   4.328   0.000   6.064
    4        1.736   4.328   0.000   6.064
    5        1.736   4.329   0.000   6.065
    6        1.736   4.329   0.000   6.065
    7        1.736   4.329   0.000   6.065
    8        1.736   4.329   0.000   6.065
    9        1.736   4.329   0.000   6.064
   10        1.736   4.329   0.000   6.064
   11        1.736   4.329   0.000   6.064
   12        1.736   4.329   0.000   6.064
   13        1.736   4.328   0.000   6.064
   14        1.736   4.328   0.000   6.064
   15        1.736   4.328   0.000   6.064
   16        1.736   4.328   0.000   6.064
   17        1.736   4.329   0.000   6.065
   18        1.736   4.329   0.000   6.065
   19        1.736   4.329   0.000   6.065
   20        1.736   4.329   0.000   6.065
   21        1.736   4.329   0.000   6.064
   22        1.736   4.329   0.000   6.064
   23        1.736   4.329   0.000   6.064
   24        1.736   4.329   0.000   6.064
   25        0.296   0.367   8.176   8.839
   26        0.296   0.367   8.176   8.839
   27        0.296   0.367   8.176   8.839
   28        0.296   0.367   8.176   8.839
   29        0.296   0.367   8.176   8.839
   30        0.296   0.367   8.176   8.839
   31        0.296   0.367   8.176   8.839
   32        0.296   0.367   8.176   8.839
   33        1.838   4.719   0.017   6.574
   34        1.838   4.719   0.017   6.574
   35        1.838   4.719   0.017   6.574
   36        1.838   4.719   0.017   6.574
   37        1.838   4.719   0.017   6.574
   38        1.838   4.719   0.017   6.574
   39        1.838   4.719   0.017   6.574
   40        1.838   4.719   0.017   6.574
--------------------------------------------------
tot         58.727 144.576  65.549 268.852
 


 magnetization (x)
 
# of ion       s       p       d       tot
------------------------------------------
    1        0.004   0.101   0.000   0.105
    2       -0.004  -0.101   0.000  -0.105
    3       -0.004  -0.101   0.000  -0.105
    4        0.004   0.101   0.000   0.105
    5        0.004   0.101   0.000   0.105
    6       -0.004  -0.101   0.000  -0.105
    7       -0.004  -0.101   0.000  -0.105
    8        0.004   0.101   0.000   0.105
    9       -0.004  -0.100   0.000  -0.104
   10        0.004   0.100   0.000   0.104
   11        0.004   0.100   0.000   0.104
   12       -0.004  -0.100   0.000  -0.104
   13        0.004   0.101   0.000   0.105
   14       -0.004  -0.101   0.000  -0.105
   15       -0.004  -0.101   0.000  -0.105
   16        0.004   0.101   0.000   0.105
   17        0.004   0.101   0.000   0.105
   18       -0.004  -0.101   0.000  -0.105
   19       -0.004  -0.101   0.000  -0.105
   20        0.004   0.101   0.000   0.105
   21       -0.004  -0.100   0.000  -0.104
   22        0.004   0.100   0.000   0.104
   23        0.004   0.100   0.000   0.104
   24       -0.004  -0.100   0.000  -0.104
   25        0.000  -0.001   1.644   1.642
   26       -0.000   0.001  -1.644  -1.642
   27       -0.000   0.001  -1.644  -1.642
   28        0.000  -0.001   1.644   1.642
   29        0.000  -0.001   1.644   1.642
   30       -0.000   0.001  -1.644  -1.642
   31       -0.000   0.001  -1.644  -1.642
   32        0.000  -0.001   1.644   1.642
   33        0.000   0.000   0.000   0.001
   34       -0.000  -0.000  -0.000  -0.001
   35       -0.000  -0.000  -0.000  -0.001
   36        0.000   0.000   0.000   0.001
   37        0.000   0.000   0.000   0.001
   38       -0.000  -0.000  -0.000  -0.001
   39       -0.000  -0.000  -0.000  -0.001
   40        0.000   0.000   0.000   0.001
--------------------------------------------------
tot         -0.000  -0.000   0.000  -0.000
 

 total amount of memory used by VASP MPI-rank0    53350. kBytes
=======================================================================

   base      :      30000. kBytes
   nonlr-proj:       7318. kBytes
   fftplans  :       1046. kBytes
   grid      :       2759. kBytes
   one-center:         62. kBytes
   wavefun   :      12165. kBytes
 
  
  
 General timing and accounting informations for this job:
 ========================================================
  
                  Total CPU time used (sec):      142.856
                            User time (sec):      139.197
                          System time (sec):        3.658
                         Elapsed time (sec):      147.174
  
                   Maximum memory used (kb):      122968.
                   Average memory used (kb):           0.
  
                          Minor page faults:        49377
                          Major page faults:           17
                 Voluntary context switches:         3389
