 vasp.5.4.4.18Apr17-6-g9f103f2a35 (build Dec 20 2018 12:05:58) complex          
  
 executed on             LinuxIFC date 2019.06.20  21:45:07
 running on   32 total cores
 distrk:  each k-point on    8 cores,    4 groups
 distr:  one band on NCORES_PER_BAND=   4 cores,    2 groups


--------------------------------------------------------------------------------------------------------


 INCAR:
 POTCAR:    PAW_PBE Al 04Jan2001                  
 POTCAR:    PAW_PBE Mn 06Sep2000                  

 ----------------------------------------------------------------------------- 
|                                                                             |
|           W    W    AA    RRRRR   N    N  II  N    N   GGGG   !!!           |
|           W    W   A  A   R    R  NN   N  II  NN   N  G    G  !!!           |
|           W    W  A    A  R    R  N N  N  II  N N  N  G       !!!           |
|           W WW W  AAAAAA  RRRRR   N  N N  II  N  N N  G  GGG   !            |
|           WW  WW  A    A  R   R   N   NN  II  N   NN  G    G                |
|           W    W  A    A  R    R  N    N  II  N    N   GGGG   !!!           |
|                                                                             |
|      You have enabled k-point parallelism (KPAR>1).                         |
|      This developmental code was originally  written by Paul Kent at ORNL,  |
|      and carefully double checked in Vienna.                                |
|      GW as well as linear response parallelism added by Martijn Marsman     |
|      and Georg Kresse.                                                      |
|      Carefully verify results versus KPAR=1.                                |
|      Report problems to Paul Kent and Vienna.                               |
|                                                                             |
 ----------------------------------------------------------------------------- 

 POTCAR:    PAW_PBE Al 04Jan2001                  
   VRHFIN =Al: s2p1                                                             
   LEXCH  = PE                                                                  
   EATOM  =    53.5387 eV,    3.9350 Ry                                         
                                                                                
   TITEL  = PAW_PBE Al 04Jan2001                                                
   LULTRA =        F    use ultrasoft PP ?                                      
   IUNSCR =        1    unscreen: 0-lin 1-nonlin 2-no                           
   RPACOR =    1.500    partial core radius                                     
   POMASS =   26.981; ZVAL   =    3.000    mass and valenz                      
   RCORE  =    1.900    outmost cutoff radius                                   
   RWIGS  =    2.650; RWIGS  =    1.402    wigner-seitz radius (au A)           
   ENMAX  =  240.300; ENMIN  =  180.225 eV                                      
   ICORE  =        2    local potential                                         
   LCOR   =        T    correct aug charges                                     
   LPAW   =        T    paw PP                                                  
   EAUG   =  291.052                                                            
   DEXC   =    0.000                                                            
   RMAX   =    1.939    core radius for proj-oper                               
   RAUG   =    1.300    factor for augmentation sphere                          
   RDEP   =    1.966    radius for radial grids                                 
   RDEPT  =    1.856    core radius for aug-charge                              
                                                                                
   Atomic configuration                                                         
    6 entries                                                                   
     n  l   j            E        occ.                                          
     1  0  0.50     -1511.1048   2.0000                                         
     2  0  0.50      -108.1629   2.0000                                         
     2  1  1.50       -69.6402   6.0000                                         
     3  0  0.50        -7.7528   2.0000                                         
     3  1  1.50        -2.7121   1.0000                                         
     3  2  2.50        -2.7212   0.0000                                         
   Description                                                                  
     l       E           TYP  RCUT    TYP  RCUT                                 
     0     -7.7528455     23  1.900                                             
     0     -3.3096929     23  1.900                                             
     1     -2.7120682     23  1.900                                             
     1     13.6058260     23  1.900                                             
     2     -2.7211652      7  1.900                                             
  local pseudopotential read in
  partial core-charges read in
  partial kinetic energy density read in
  atomic valenz-charges read in
  non local Contribution for L=           0  read in
    real space projection operators read in
  non local Contribution for L=           0  read in
    real space projection operators read in
  non local Contribution for L=           1  read in
    real space projection operators read in
  non local Contribution for L=           1  read in
    real space projection operators read in
    PAW grid and wavefunctions read in
 
   number of l-projection  operators is LMAX  =           4
   number of lm-projection operators is LMMAX =           8
 
 POTCAR:    PAW_PBE Mn 06Sep2000                  
   VRHFIN =Mn: d6 s1                                                            
   LEXCH  = PE                                                                  
   EATOM  =   416.7541 eV,   30.6306 Ry                                         
                                                                                
   TITEL  = PAW_PBE Mn 06Sep2000                                                
   LULTRA =        F    use ultrasoft PP ?                                      
   IUNSCR =        1    unscreen: 0-lin 1-nonlin 2-no                           
   RPACOR =    2.000    partial core radius                                     
   POMASS =   54.938; ZVAL   =    7.000    mass and valenz                      
   RCORE  =    2.300    outmost cutoff radius                                   
   RWIGS  =    2.500; RWIGS  =    1.323    wigner-seitz radius (au A)           
   ENMAX  =  269.864; ENMIN  =  202.398 eV                                      
   RCLOC  =    1.725    cutoff for local pot                                    
   LCOR   =        T    correct aug charges                                     
   LPAW   =        T    paw PP                                                  
   EAUG   =  500.711                                                            
   DEXC   =    0.000                                                            
   RMAX   =    2.343    core radius for proj-oper                               
   RAUG   =    1.300    factor for augmentation sphere                          
   RDEP   =    2.338    radius for radial grids                                 
   RDEPT  =    1.911    core radius for aug-charge                              
                                                                                
   Atomic configuration                                                         
    9 entries                                                                   
     n  l   j            E        occ.                                          
     1  0  0.50     -6424.8288   2.0000                                         
     2  0  0.50      -739.1154   2.0000                                         
     2  1  1.50      -625.3949   6.0000                                         
     3  0  0.50       -81.6100   2.0000                                         
     3  1  1.50       -50.4667   6.0000                                         
     3  2  2.50        -3.3745   6.0000                                         
     4  0  0.50        -4.1331   1.0000                                         
     4  1  0.50        -4.0817   0.0000                                         
     4  3  2.50        -1.3606   0.0000                                         
   Description                                                                  
     l       E           TYP  RCUT    TYP  RCUT                                 
     2     -3.3744664     23  2.300                                             
     2     -4.7350490     23  2.300                                             
     0     -4.1331408     23  2.300                                             
     0      7.6656614     23  2.300                                             
     1     -2.7211652     23  2.300                                             
     1     20.4087390     23  2.300                                             
  local pseudopotential read in
  partial core-charges read in
  partial kinetic energy density read in
  atomic valenz-charges read in
  non local Contribution for L=           2  read in
    real space projection operators read in
  non local Contribution for L=           2  read in
    real space projection operators read in
  non local Contribution for L=           0  read in
    real space projection operators read in
  non local Contribution for L=           0  read in
    real space projection operators read in
  non local Contribution for L=           1  read in
    real space projection operators read in
  non local Contribution for L=           1  read in
    real space projection operators read in
    PAW grid and wavefunctions read in
 
   number of l-projection  operators is LMAX  =           6
   number of lm-projection operators is LMMAX =          18
 

 ----------------------------------------------------------------------------- 
|                                                                             |
|  ADVICE TO THIS USER RUNNING 'VASP/VAMP'   (HEAR YOUR MASTER'S VOICE ...):  |
|                                                                             |
|      You have a (more or less) 'large supercell' and for larger cells       |
|      it might be more efficient to use real space projection opertators     |
|      So try LREAL= Auto  in the INCAR   file.                               |
|      Mind:          For very  accurate calculation you might also keep the  |
|      reciprocal projection scheme          (i.e. LREAL=.FALSE.)             |
|                                                                             |
 ----------------------------------------------------------------------------- 

  PAW_PBE Al 04Jan2001                  :
 energy of atom  1       EATOM=  -53.5387
 kinetic energy error for atom=    0.0005 (will be added to EATOM!!)
  PAW_PBE Mn 06Sep2000                  :
 energy of atom  2       EATOM= -416.7541
 kinetic energy error for atom=    0.0080 (will be added to EATOM!!)
 
 
 POSCAR: NewRef: 27, @ ['Mn', array([1.37502469, 
  positions in cartesian coordinates
  velocities in cartesian coordinates
  No initial velocities read in
 exchange correlation table for  LEXCH =        8
   RHO(1)=    0.500       N(1)  =     2000
   RHO(2)=  100.500       N(2)  =     4000
 


--------------------------------------------------------------------------------------------------------


 ion  position               nearest neighbor table
   1  0.000  0.000  0.000-  28 2.61  30 2.61  34 2.61  36 2.61  46 2.61  48 2.61  52 2.61  54 2.61
                             4 2.75  10 2.75   7 2.75  19 2.75
   2  0.000  0.000  0.333-  28 2.61  34 2.61  46 2.61  52 2.61  29 2.61  47 2.61  35 2.61  53 2.61
                             5 2.75  11 2.75   8 2.75  20 2.75
   3  0.000  0.000  0.667-  29 2.61  35 2.61  47 2.61  53 2.61  30 2.61  48 2.61  36 2.61  54 2.61
                             6 2.75  12 2.75   9 2.75  21 2.75
   4  0.000  0.333  0.000-  28 2.61  30 2.61  46 2.61  48 2.61  31 2.61  33 2.61  49 2.61  51 2.61
                            13 2.75   1 2.75   7 2.75  22 2.75
   5  0.000  0.333  0.333-  28 2.61  46 2.61  31 2.61  49 2.61  47 2.61  29 2.61  32 2.61  50 2.61
                            14 2.75   2 2.75   8 2.75  23 2.75
   6  0.000  0.333  0.667-  29 2.61  47 2.61  32 2.61  50 2.61  48 2.61  30 2.61  33 2.61  51 2.61
                            15 2.75   3 2.75   9 2.75  24 2.75
   7  0.000  0.667  0.000-  31 2.61  33 2.61  49 2.61  51 2.61  34 2.61  36 2.61  52 2.61  54 2.61
                             4 2.75  16 2.75   1 2.75  25 2.75
   8  0.000  0.667  0.333-  31 2.61  49 2.61  34 2.61  52 2.61  50 2.61  32 2.61  35 2.61  53 2.61
                             5 2.75  17 2.75   2 2.75  26 2.75
   9  0.000  0.667  0.667-  32 2.61  50 2.61  35 2.61  53 2.61  51 2.61  33 2.61  36 2.61  54 2.61
                             6 2.75  18 2.75   3 2.75  27 2.75
  10  0.333  0.000  0.000-  28 2.61  30 2.61  34 2.61  36 2.61  37 2.61  39 2.61  43 2.61  45 2.61
                            19 2.75   1 2.75  13 2.75  16 2.75
  11  0.333  0.000  0.333-  28 2.61  34 2.61  37 2.61  43 2.61  29 2.61  35 2.61  38 2.61  44 2.61
                            20 2.75   2 2.75  14 2.75  17 2.75
  12  0.333  0.000  0.667-  29 2.61  35 2.61  38 2.61  44 2.61  30 2.61  36 2.61  39 2.61  45 2.61
                            21 2.75   3 2.75  15 2.75  18 2.75
  13  0.333  0.333  0.000-  28 2.61  30 2.61  31 2.61  33 2.61  37 2.61  39 2.61  40 2.61  42 2.61
                             4 2.75  10 2.75  16 2.75  22 2.75
  14  0.333  0.333  0.333-  28 2.61  31 2.61  37 2.61  29 2.61  40 2.61  38 2.61  32 2.61  41 2.61
                             5 2.75  11 2.75  17 2.75  23 2.75
  15  0.333  0.333  0.667-  29 2.61  32 2.61  38 2.61  30 2.61  41 2.61  39 2.61  33 2.61  42 2.61
                             6 2.75  12 2.75  18 2.75  24 2.75
  16  0.333  0.667  0.000-  31 2.61  33 2.61  34 2.61  36 2.61  40 2.61  42 2.61  43 2.61  45 2.61
                            25 2.75   7 2.75  13 2.75  10 2.75
  17  0.333  0.667  0.333-  31 2.61  34 2.61  40 2.61  32 2.61  43 2.61  41 2.61  35 2.61  44 2.61
                            26 2.75   8 2.75  14 2.75  11 2.75
  18  0.333  0.667  0.667-  32 2.61  35 2.61  41 2.61  33 2.61  44 2.61  42 2.61  36 2.61  45 2.61
                            27 2.75   9 2.75  15 2.75  12 2.75
  19  0.667  0.000  0.000-  37 2.61  39 2.61  43 2.61  45 2.61  46 2.61  48 2.61  52 2.61  54 2.61
                            10 2.75  22 2.75   1 2.75  25 2.75
  20  0.667  0.000  0.333-  37 2.61  43 2.61  46 2.61  52 2.61  38 2.61  44 2.61  47 2.61  53 2.61
                            11 2.75  23 2.75   2 2.75  26 2.75
  21  0.667  0.000  0.667-  38 2.61  44 2.61  47 2.61  53 2.61  39 2.61  45 2.61  48 2.61  54 2.61
                            12 2.75  24 2.75   3 2.75  27 2.75
  22  0.667  0.333  0.000-  37 2.61  39 2.61  40 2.61  42 2.61  46 2.61  48 2.61  49 2.61  51 2.61
                            25 2.75  13 2.75  19 2.75   4 2.75
  23  0.667  0.333  0.333-  37 2.61  40 2.61  46 2.61  38 2.61  49 2.61  47 2.61  41 2.61  50 2.61
                            26 2.75  14 2.75  20 2.75   5 2.75
  24  0.667  0.333  0.667-  38 2.61  41 2.61  47 2.61  39 2.61  50 2.61  48 2.61  42 2.61  51 2.61
                            27 2.75  15 2.75  21 2.75   6 2.75
  25  0.667  0.667  0.000-  40 2.61  42 2.61  43 2.61  45 2.61  49 2.61  51 2.61  52 2.61  54 2.61
                            16 2.75  22 2.75  19 2.75   7 2.75
  26  0.667  0.667  0.333-  40 2.61  43 2.61  49 2.61  41 2.61  52 2.61  50 2.61  44 2.61  53 2.61
                            17 2.75  23 2.75  20 2.75   8 2.75
  27  0.667  0.667  0.667-  41 2.61  44 2.61  50 2.61  42 2.61  53 2.61  51 2.61  45 2.61  54 2.61
                            18 2.75  24 2.75  21 2.75   9 2.75
  28  0.167  0.167  0.167-  14 2.61  11 2.61   5 2.61  13 2.61   2 2.61  10 2.61   4 2.61   1 2.61
                            31 2.75  37 2.75  34 2.75  46 2.75
  29  0.167  0.167  0.500-  15 2.61  12 2.61   6 2.61  14 2.61   3 2.61  11 2.61   5 2.61   2 2.61
                            32 2.75  38 2.75  35 2.75  47 2.75
  30  0.167  0.167  0.833-  13 2.61  15 2.61  10 2.61  12 2.61   4 2.61   6 2.61   1 2.61   3 2.61
                            33 2.75  39 2.75  36 2.75  48 2.75
  31  0.167  0.500  0.167-  17 2.61  14 2.61   8 2.61  16 2.61   5 2.61  13 2.61   7 2.61   4 2.61
                            28 2.75  34 2.75  40 2.75  49 2.75
  32  0.167  0.500  0.500-  18 2.61  15 2.61   9 2.61  17 2.61   6 2.61  14 2.61   8 2.61   5 2.61
                            29 2.75  35 2.75  41 2.75  50 2.75
  33  0.167  0.500  0.833-  16 2.61  18 2.61  13 2.61  15 2.61   7 2.61   9 2.61   4 2.61   6 2.61
                            30 2.75  36 2.75  42 2.75  51 2.75
  34  0.167  0.833  0.167-  11 2.61  17 2.61   2 2.61   8 2.61  16 2.61  10 2.61   7 2.61   1 2.61
                            31 2.75  43 2.75  28 2.75  52 2.75
  35  0.167  0.833  0.500-  12 2.61  18 2.61   3 2.61   9 2.61  17 2.61  11 2.61   8 2.61   2 2.61
                            32 2.75  44 2.75  29 2.75  53 2.75
  36  0.167  0.833  0.833-  10 2.61  12 2.61  16 2.61  18 2.61   1 2.61   3 2.61   7 2.61   9 2.61
                            33 2.75  45 2.75  30 2.75  54 2.75
  37  0.500  0.167  0.167-  23 2.61  20 2.61  14 2.61  22 2.61  11 2.61  19 2.61  13 2.61  10 2.61
                            28 2.75  40 2.75  46 2.75  43 2.75
  38  0.500  0.167  0.500-  24 2.61  21 2.61  15 2.61  23 2.61  12 2.61  20 2.61  14 2.61  11 2.61
                            29 2.75  41 2.75  47 2.75  44 2.75
  39  0.500  0.167  0.833-  22 2.61  24 2.61  19 2.61  21 2.61  13 2.61  15 2.61  10 2.61  12 2.61
                            30 2.75  42 2.75  48 2.75  45 2.75
  40  0.500  0.500  0.167-  26 2.61  23 2.61  17 2.61  25 2.61  14 2.61  22 2.61  16 2.61  13 2.61
                            31 2.75  37 2.75  43 2.75  49 2.75
  41  0.500  0.500  0.500-  27 2.61  24 2.61  18 2.61  26 2.61  15 2.61  23 2.61  17 2.61  14 2.61
                            32 2.75  38 2.75  44 2.75  50 2.75
  42  0.500  0.500  0.833-  25 2.61  27 2.61  22 2.61  24 2.61  16 2.61  18 2.61  13 2.61  15 2.61
                            33 2.75  39 2.75  45 2.75  51 2.75
  43  0.500  0.833  0.167-  20 2.61  26 2.61  11 2.61  17 2.61  25 2.61  19 2.61  16 2.61  10 2.61
                            34 2.75  40 2.75  52 2.75  37 2.75
  44  0.500  0.833  0.500-  21 2.61  27 2.61  12 2.61  18 2.61  26 2.61  20 2.61  17 2.61  11 2.61
                            35 2.75  41 2.75  53 2.75  38 2.75
  45  0.500  0.833  0.833-  19 2.61  21 2.61  25 2.61  27 2.61  10 2.61  12 2.61  16 2.61  18 2.61
                            36 2.75  42 2.75  54 2.75  39 2.75
  46  0.833  0.167  0.167-   5 2.61  23 2.61  20 2.61   2 2.61  22 2.61   4 2.61  19 2.61   1 2.61
                            37 2.75  49 2.75  28 2.75  52 2.75
  47  0.833  0.167  0.500-   6 2.61  24 2.61  21 2.61   3 2.61  23 2.61   5 2.61  20 2.61   2 2.61
                            38 2.75  50 2.75  29 2.75  53 2.75
  48  0.833  0.167  0.833-   4 2.61   6 2.61  22 2.61  24 2.61  19 2.61  21 2.61   1 2.61   3 2.61
                            39 2.75  51 2.75  30 2.75  54 2.75
  49  0.833  0.500  0.167-   8 2.61  26 2.61  23 2.61   5 2.61  25 2.61   7 2.61  22 2.61   4 2.61
                            40 2.75  46 2.75  52 2.75  31 2.75
  50  0.833  0.500  0.500-   9 2.61  27 2.61  24 2.61   6 2.61  26 2.61   8 2.61  23 2.61   5 2.61
                            41 2.75  47 2.75  53 2.75  32 2.75
  51  0.833  0.500  0.833-   7 2.61   9 2.61  25 2.61  27 2.61  22 2.61  24 2.61   4 2.61   6 2.61
                            42 2.75  48 2.75  54 2.75  33 2.75
  52  0.833  0.833  0.167-   2 2.61   8 2.61  20 2.61  26 2.61  19 2.61   7 2.61  25 2.61   1 2.61
                            43 2.75  49 2.75  46 2.75  34 2.75
  53  0.833  0.833  0.500-   3 2.61   9 2.61  21 2.61  27 2.61  20 2.61   8 2.61  26 2.61   2 2.61
                            44 2.75  50 2.75  47 2.75  35 2.75
  54  0.833  0.833  0.833-   1 2.61   3 2.61   7 2.61   9 2.61  19 2.61  21 2.61  25 2.61  27 2.61
                            45 2.75  51 2.75  48 2.75  36 2.75
 
  LATTYP: Found a simple tetragonal cell.
 ALAT       =     8.2501481662
 C/A-ratio  =     1.2642089792
  
  Lattice vectors:
  
 A1 = (   8.2501481662,   0.0000000000,   0.0000000000)
 A2 = (   0.0000000000,   8.2501481662,   0.0000000000)
 A3 = (   0.0000000000,   0.0000000000,  10.4299113916)


Analysis of symmetry for initial positions (statically):
=====================================================================
 Subroutine PRICEL returns following result:
 
  LATTYP: Found a simple tetragonal cell.
 ALAT       =     2.7500493888
 C/A-ratio  =     1.2642089792
  
  Lattice vectors:
  
 A1 = (   2.7500493888,   0.0000000000,   0.0000000000)
 A2 = (   0.0000000000,   2.7500493888,   0.0000000000)
 A3 = (   0.0000000000,   0.0000000000,   3.4766371306)
 
  27 primitive cells build up your supercell.
 

 Routine SETGRP: Setting up the symmetry group for a 
 simple tetragonal supercell.


 Subroutine GETGRP returns: Found 16 space group operations
 (whereof 16 operations were pure point group operations)
 out of a pool of 16 trial point group operations.


The static configuration has the point symmetry D_4h.


Analysis of symmetry for dynamics (positions and initial velocities):
=====================================================================
 Subroutine PRICEL returns following result:
 
  LATTYP: Found a simple tetragonal cell.
 ALAT       =     2.7500493888
 C/A-ratio  =     1.2642089792
  
  Lattice vectors:
  
 A1 = (   2.7500493888,   0.0000000000,   0.0000000000)
 A2 = (   0.0000000000,   2.7500493888,   0.0000000000)
 A3 = (   0.0000000000,   0.0000000000,   3.4766371306)
 
  27 primitive cells build up your supercell.
 

 Routine SETGRP: Setting up the symmetry group for a 
 simple tetragonal supercell.


 Subroutine GETGRP returns: Found 16 space group operations
 (whereof 16 operations were pure point group operations)
 out of a pool of 16 trial point group operations.


The dynamic configuration has the point symmetry D_4h.


Analysis of structural, dynamic, and magnetic symmetry:
=====================================================================
 Subroutine PRICEL returns:
 Original cell was already a primitive cell.
 

 Routine SETGRP: Setting up the symmetry group for a 
 simple tetragonal supercell.


 Subroutine GETGRP returns: Found  1 space group operations
 (whereof  1 operations were pure point group operations)
 out of a pool of 16 trial point group operations.


The magnetic configuration has the point symmetry C_1 .


 Subroutine INISYM returns: Found  1 space group operations
 (whereof  1 operations are pure point group operations),
 and found     1 'primitive' translations

 
 
 KPOINTS: automatic KPOINTS                       

Automatic generation of k-mesh.
 generate k-points for:    5    5    4
Space group operators:
 irot       det(A)        alpha          n_x          n_y          n_z        tau_x        tau_y        tau_z
    1     1.000000     0.000001     1.000000     0.000000     0.000000     0.000000     0.000000     0.000000
 
 Subroutine IBZKPT returns following result:
 ===========================================
 
 Found     51 irreducible k-points:
 
 Following reciprocal coordinates:
            Coordinates               Weight
  0.000000  0.000000  0.000000      1.000000
  0.200000  0.000000  0.000000      2.000000
  0.400000  0.000000  0.000000      2.000000
  0.000000  0.200000  0.000000      2.000000
  0.200000  0.200000  0.000000      2.000000
  0.400000  0.200000  0.000000      2.000000
 -0.400000  0.200000  0.000000      2.000000
 -0.200000  0.200000  0.000000      2.000000
  0.000000  0.400000  0.000000      2.000000
  0.200000  0.400000  0.000000      2.000000
  0.400000  0.400000  0.000000      2.000000
 -0.400000  0.400000  0.000000      2.000000
 -0.200000  0.400000  0.000000      2.000000
  0.000000  0.000000  0.250000      2.000000
  0.200000  0.000000  0.250000      2.000000
  0.400000  0.000000  0.250000      2.000000
 -0.400000  0.000000  0.250000      2.000000
 -0.200000  0.000000  0.250000      2.000000
  0.000000  0.200000  0.250000      2.000000
  0.200000  0.200000  0.250000      2.000000
  0.400000  0.200000  0.250000      2.000000
 -0.400000  0.200000  0.250000      2.000000
 -0.200000  0.200000  0.250000      2.000000
  0.000000  0.400000  0.250000      2.000000
  0.200000  0.400000  0.250000      2.000000
  0.400000  0.400000  0.250000      2.000000
 -0.400000  0.400000  0.250000      2.000000
 -0.200000  0.400000  0.250000      2.000000
  0.000000 -0.400000  0.250000      2.000000
  0.200000 -0.400000  0.250000      2.000000
  0.400000 -0.400000  0.250000      2.000000
 -0.400000 -0.400000  0.250000      2.000000
 -0.200000 -0.400000  0.250000      2.000000
  0.000000 -0.200000  0.250000      2.000000
  0.200000 -0.200000  0.250000      2.000000
  0.400000 -0.200000  0.250000      2.000000
 -0.400000 -0.200000  0.250000      2.000000
 -0.200000 -0.200000  0.250000      2.000000
  0.000000  0.000000  0.500000      1.000000
  0.200000  0.000000  0.500000      2.000000
  0.400000  0.000000  0.500000      2.000000
  0.000000  0.200000  0.500000      2.000000
  0.200000  0.200000  0.500000      2.000000
  0.400000  0.200000  0.500000      2.000000
 -0.400000  0.200000  0.500000      2.000000
 -0.200000  0.200000  0.500000      2.000000
  0.000000  0.400000  0.500000      2.000000
  0.200000  0.400000  0.500000      2.000000
  0.400000  0.400000  0.500000      2.000000
 -0.400000  0.400000  0.500000      2.000000
 -0.200000  0.400000  0.500000      2.000000
 
 Following cartesian coordinates:
            Coordinates               Weight
  0.000000  0.000000  0.000000      1.000000
  0.024242  0.000000  0.000000      2.000000
  0.048484  0.000000  0.000000      2.000000
  0.000000  0.024242  0.000000      2.000000
  0.024242  0.024242  0.000000      2.000000
  0.048484  0.024242  0.000000      2.000000
 -0.048484  0.024242  0.000000      2.000000
 -0.024242  0.024242  0.000000      2.000000
  0.000000  0.048484  0.000000      2.000000
  0.024242  0.048484  0.000000      2.000000
  0.048484  0.048484  0.000000      2.000000
 -0.048484  0.048484  0.000000      2.000000
 -0.024242  0.048484  0.000000      2.000000
  0.000000  0.000000  0.023970      2.000000
  0.024242  0.000000  0.023970      2.000000
  0.048484  0.000000  0.023970      2.000000
 -0.048484  0.000000  0.023970      2.000000
 -0.024242  0.000000  0.023970      2.000000
  0.000000  0.024242  0.023970      2.000000
  0.024242  0.024242  0.023970      2.000000
  0.048484  0.024242  0.023970      2.000000
 -0.048484  0.024242  0.023970      2.000000
 -0.024242  0.024242  0.023970      2.000000
  0.000000  0.048484  0.023970      2.000000
  0.024242  0.048484  0.023970      2.000000
  0.048484  0.048484  0.023970      2.000000
 -0.048484  0.048484  0.023970      2.000000
 -0.024242  0.048484  0.023970      2.000000
  0.000000 -0.048484  0.023970      2.000000
  0.024242 -0.048484  0.023970      2.000000
  0.048484 -0.048484  0.023970      2.000000
 -0.048484 -0.048484  0.023970      2.000000
 -0.024242 -0.048484  0.023970      2.000000
  0.000000 -0.024242  0.023970      2.000000
  0.024242 -0.024242  0.023970      2.000000
  0.048484 -0.024242  0.023970      2.000000
 -0.048484 -0.024242  0.023970      2.000000
 -0.024242 -0.024242  0.023970      2.000000
  0.000000  0.000000  0.047939      1.000000
  0.024242  0.000000  0.047939      2.000000
  0.048484  0.000000  0.047939      2.000000
  0.000000  0.024242  0.047939      2.000000
  0.024242  0.024242  0.047939      2.000000
  0.048484  0.024242  0.047939      2.000000
 -0.048484  0.024242  0.047939      2.000000
 -0.024242  0.024242  0.047939      2.000000
  0.000000  0.048484  0.047939      2.000000
  0.024242  0.048484  0.047939      2.000000
  0.048484  0.048484  0.047939      2.000000
 -0.048484  0.048484  0.047939      2.000000
 -0.024242  0.048484  0.047939      2.000000
 


--------------------------------------------------------------------------------------------------------




 Dimension of arrays:
   k-points           NKPTS =     51   k-points in BZ     NKDIM =     51   number of bands    NBANDS=    160
   number of dos      NEDOS =    301   number of ions     NIONS =     54
   non local maximal  LDIM  =      6   non local SUM 2l+1 LMDIM =     18
   total plane-waves  NPLWV = 204120
   max r-space proj   IRMAX =      1   max aug-charges    IRDMAX=  89713
   dimension x,y,z NGX =    54 NGY =   54 NGZ =   70
   dimension x,y,z NGXF=   108 NGYF=  108 NGZF=  140
   support grid    NGXF=   216 NGYF=  216 NGZF=  280
   ions per type =              27  27
   NGX,Y,Z   is equivalent  to a cutoff of  10.88, 10.88, 11.16 a.u.
   NGXF,Y,Z  is equivalent  to a cutoff of  21.76, 21.76, 22.32 a.u.

 SYSTEM =  AlMn_pv                                 
 POSCAR =  NewRef: 27, @ ['Mn', array([1.37502469, 

 Startparameter for this run:
   NWRITE =      2    write-flag & timer
   PREC   = accura    normal or accurate (medium, high low for compatibility)
   ISTART =      0    job   : 0-new  1-cont  2-samecut
   ICHARG =      2    charge: 1-file 2-atom 10-const
   ISPIN  =      2    spin polarized calculation?
   LNONCOLLINEAR =      F non collinear calculations
   LSORBIT =      F    spin-orbit coupling
   INIWAV =      1    electr: 0-lowe 1-rand  2-diag
   LASPH  =      F    aspherical Exc in radial PAW
   METAGGA=      F    non-selfconsistent MetaGGA calc.

 Electronic Relaxation 1
   ENCUT  =  404.8 eV  29.75 Ry    5.45 a.u.  13.53 13.53 17.11*2*pi/ulx,y,z
   ENINI  =  404.8     initial cutoff
   ENAUG  =  500.7 eV  augmentation charge cutoff
   NELM   =    100;   NELMIN=  4; NELMDL= -8     # of ELM steps 
   EDIFF  = 0.1E-06   stopping-criterion for ELM
   LREAL  =      F    real-space projection
   NLSPLINE    = F    spline interpolate recip. space projectors
   LCOMPAT=      F    compatible to vasp.4.4
   GGA_COMPAT  = T    GGA compatible to vasp.4.4-vasp.4.6
   LMAXPAW     = -100 max onsite density
   LMAXMIX     =    2 max onsite mixed and CHGCAR
   VOSKOWN=      0    Vosko Wilk Nusair interpolation
   ROPT   =    0.00000   0.00000
 Ionic relaxation
   EDIFFG = 0.1E-05   stopping-criterion for IOM
   NSW    =      0    number of steps for IOM
   NBLOCK =      1;   KBLOCK =      1    inner block; outer block 
   IBRION =     -1    ionic relax: 0-MD 1-quasi-New 2-CG
   NFREE  =      0    steps in history (QN), initial steepest desc. (CG)
   ISIF   =      2    stress and relaxation
   IWAVPR =     10    prediction:  0-non 1-charg 2-wave 3-comb
   ISYM   =      2    0-nonsym 1-usesym 2-fastsym
   LCORR  =      T    Harris-Foulkes like correction to forces

   POTIM  = 0.2000    time-step for ionic-motion
   TEIN   =    0.0    initial temperature
   TEBEG  =    0.0;   TEEND  =   0.0 temperature during run
   SMASS  =  -3.00    Nose mass-parameter (am)
   estimated Nose-frequenzy (Omega)   =  0.10E-29 period in steps =****** mass=  -0.156E-26a.u.
   SCALEE = 1.0000    scale energy and forces
   NPACO  =    256;   APACO  = 16.0  distance and # of slots for P.C.
   PSTRESS=    0.0 pullay stress

  Mass of Ions in am
   POMASS =  26.98 54.94
  Ionic Valenz
   ZVAL   =   3.00  7.00
  Atomic Wigner-Seitz radii
   RWIGS  =  -1.00 -1.00
  virtual crystal weights 
   VCA    =   1.00  1.00
   NELECT =     270.0000    total number of electrons
   NUPDOWN=      -1.0000    fix difference up-down

 DOS related values:
   EMIN   =  10.00;   EMAX   =-10.00  energy-range for DOS
   EFERMI =   0.00
   ISMEAR =     1;   SIGMA  =   0.20  broadening in eV -4-tet -1-fermi 0-gaus

 Electronic relaxation 2 (details)
   IALGO  =     58    algorithm
   LDIAG  =      T    sub-space diagonalisation (order eigenvalues)
   LSUBROT=      F    optimize rotation matrix (better conditioning)
   TURBO    =      0    0=normal 1=particle mesh
   IRESTART =      0    0=no restart 2=restart with 2 vectors
   NREBOOT  =      0    no. of reboots
   NMIN     =      0    reboot dimension
   EREF     =   0.00    reference energy to select bands
   IMIX   =      4    mixing-type and parameters
     AMIX     =   0.40;   BMIX     =  1.00
     AMIX_MAG =   1.60;   BMIX_MAG =  1.00
     AMIN     =   0.10
     WC   =   100.;   INIMIX=   1;  MIXPRE=   1;  MAXMIX= -45

 Intra band minimization:
   WEIMIN = 0.0000     energy-eigenvalue tresh-hold
   EBREAK =  0.16E-09  absolut break condition
   DEPER  =   0.30     relativ break condition  

   TIME   =   0.40     timestep for ELM

  volume/ion in A,a.u.               =      13.15        88.72
  Fermi-wavevector in a.u.,A,eV,Ry     =   1.186118  2.241439 19.141722  1.406877
  Thomas-Fermi vector in A             =   2.322298
 
 Write flags
   LWAVE        =      F    write WAVECAR
   LDOWNSAMPLE  =      F    k-point downsampling of WAVECAR
   LCHARG       =      F    write CHGCAR
   LVTOT        =      F    write LOCPOT, total local potential
   LVHAR        =      F    write LOCPOT, Hartree potential only
   LELF         =      F    write electronic localiz. function (ELF)
   LORBIT       =     10    0 simple, 1 ext, 2 COOP (PROOUT), +10 PAW based schemes


 Dipole corrections
   LMONO  =      F    monopole corrections only (constant potential shift)
   LDIPOL =      F    correct potential (dipole corrections)
   IDIPOL =      0    1-x, 2-y, 3-z, 4-all directions 
   EPSILON=  1.0000000 bulk dielectric constant

 Exchange correlation treatment:
   GGA     =    --    GGA type
   LEXCH   =     8    internal setting for exchange type
   VOSKOWN=      0    Vosko Wilk Nusair interpolation
   LHFCALC =     F    Hartree Fock is set to
   LHFONE  =     F    Hartree Fock one center treatment
   AEXX    =    0.0000 exact exchange contribution

 Linear response parameters
   LEPSILON=     F    determine dielectric tensor
   LRPA    =     F    only Hartree local field effects (RPA)
   LNABLA  =     F    use nabla operator in PAW spheres
   LVEL    =     F    velocity operator in full k-point grid
   LINTERFAST=   F  fast interpolation
   KINTER  =     0    interpolate to denser k-point grid
   CSHIFT  =0.1000    complex shift for real part using Kramers Kronig
   OMEGAMAX=  -1.0    maximum frequency
   DEG_THRESHOLD= 0.2000000E-02 threshold for treating states as degnerate
   RTIME   =   -0.100 relaxation time in fs
  (WPLASMAI=    0.000 imaginary part of plasma frequency in eV, 0.658/RTIME)
   DFIELD  = 0.0000000 0.0000000 0.0000000 field for delta impulse in time
 
 Orbital magnetization related:
   ORBITALMAG=     F  switch on orbital magnetization
   LCHIMAG   =     F  perturbation theory with respect to B field
   DQ        =  0.001000  dq finite difference perturbation B field
   LLRAUG    =     F  two centre corrections for induced B field



--------------------------------------------------------------------------------------------------------


 Static calculation
 charge density and potential will be updated during run
 spin polarized calculation
 Conjugate gradient for all bands (Freysoldt, et al. PRB 79, 241103 (2009))
 preconditioned conjugated gradient                                        
 perform sub-space diagonalisation
    before iterative eigenvector-optimisation
 modified Broyden-mixing scheme, WC =      100.0
 initial mixing is a Kerker type mixing with AMIX =  0.4000 and BMIX =      1.0000
 Hartree-type preconditioning will be used
 using additional bands           25
 reciprocal scheme for non local part
 use partial core corrections
 no Harris-corrections to forces 
 use gradient corrections 
 use of overlap-Matrix (Vanderbilt PP)
 Methfessel and Paxton  Order N= 1 SIGMA  =   0.20


--------------------------------------------------------------------------------------------------------


  energy-cutoff  :      404.80
  volume of cell :      709.91
      direct lattice vectors                 reciprocal lattice vectors
     8.250148166  0.000000000  0.000000000     0.121209944  0.000000000  0.000000000
     0.000000000  8.250148166  0.000000000     0.000000000  0.121209944  0.000000000
     0.000000000  0.000000000 10.429911392     0.000000000  0.000000000  0.095878092

  length of vectors
     8.250148166  8.250148166 10.429911392     0.121209944  0.121209944  0.095878092


 
 k-points in units of 2pi/SCALE and weight: automatic KPOINTS                       
   0.00000000  0.00000000  0.00000000       0.010
   0.02424199  0.00000000  0.00000000       0.020
   0.04848398  0.00000000  0.00000000       0.020
   0.00000000  0.02424199  0.00000000       0.020
   0.02424199  0.02424199  0.00000000       0.020
   0.04848398  0.02424199  0.00000000       0.020
  -0.04848398  0.02424199  0.00000000       0.020
  -0.02424199  0.02424199  0.00000000       0.020
   0.00000000  0.04848398  0.00000000       0.020
   0.02424199  0.04848398  0.00000000       0.020
   0.04848398  0.04848398  0.00000000       0.020
  -0.04848398  0.04848398  0.00000000       0.020
  -0.02424199  0.04848398  0.00000000       0.020
   0.00000000  0.00000000  0.02396952       0.020
   0.02424199  0.00000000  0.02396952       0.020
   0.04848398  0.00000000  0.02396952       0.020
  -0.04848398  0.00000000  0.02396952       0.020
  -0.02424199  0.00000000  0.02396952       0.020
   0.00000000  0.02424199  0.02396952       0.020
   0.02424199  0.02424199  0.02396952       0.020
   0.04848398  0.02424199  0.02396952       0.020
  -0.04848398  0.02424199  0.02396952       0.020
  -0.02424199  0.02424199  0.02396952       0.020
   0.00000000  0.04848398  0.02396952       0.020
   0.02424199  0.04848398  0.02396952       0.020
   0.04848398  0.04848398  0.02396952       0.020
  -0.04848398  0.04848398  0.02396952       0.020
  -0.02424199  0.04848398  0.02396952       0.020
   0.00000000 -0.04848398  0.02396952       0.020
   0.02424199 -0.04848398  0.02396952       0.020
   0.04848398 -0.04848398  0.02396952       0.020
  -0.04848398 -0.04848398  0.02396952       0.020
  -0.02424199 -0.04848398  0.02396952       0.020
   0.00000000 -0.02424199  0.02396952       0.020
   0.02424199 -0.02424199  0.02396952       0.020
   0.04848398 -0.02424199  0.02396952       0.020
  -0.04848398 -0.02424199  0.02396952       0.020
  -0.02424199 -0.02424199  0.02396952       0.020
   0.00000000  0.00000000  0.04793905       0.010
   0.02424199  0.00000000  0.04793905       0.020
   0.04848398  0.00000000  0.04793905       0.020
   0.00000000  0.02424199  0.04793905       0.020
   0.02424199  0.02424199  0.04793905       0.020
   0.04848398  0.02424199  0.04793905       0.020
  -0.04848398  0.02424199  0.04793905       0.020
  -0.02424199  0.02424199  0.04793905       0.020
   0.00000000  0.04848398  0.04793905       0.020
   0.02424199  0.04848398  0.04793905       0.020
   0.04848398  0.04848398  0.04793905       0.020
  -0.04848398  0.04848398  0.04793905       0.020
  -0.02424199  0.04848398  0.04793905       0.020
 
 k-points in reciprocal lattice and weights: automatic KPOINTS                       
   0.00000000  0.00000000  0.00000000       0.010
   0.20000000  0.00000000  0.00000000       0.020
   0.40000000  0.00000000  0.00000000       0.020
   0.00000000  0.20000000  0.00000000       0.020
   0.20000000  0.20000000  0.00000000       0.020
   0.40000000  0.20000000  0.00000000       0.020
  -0.40000000  0.20000000  0.00000000       0.020
  -0.20000000  0.20000000  0.00000000       0.020
   0.00000000  0.40000000  0.00000000       0.020
   0.20000000  0.40000000  0.00000000       0.020
   0.40000000  0.40000000  0.00000000       0.020
  -0.40000000  0.40000000  0.00000000       0.020
  -0.20000000  0.40000000  0.00000000       0.020
   0.00000000  0.00000000  0.25000000       0.020
   0.20000000  0.00000000  0.25000000       0.020
   0.40000000  0.00000000  0.25000000       0.020
  -0.40000000  0.00000000  0.25000000       0.020
  -0.20000000  0.00000000  0.25000000       0.020
   0.00000000  0.20000000  0.25000000       0.020
   0.20000000  0.20000000  0.25000000       0.020
   0.40000000  0.20000000  0.25000000       0.020
  -0.40000000  0.20000000  0.25000000       0.020
  -0.20000000  0.20000000  0.25000000       0.020
   0.00000000  0.40000000  0.25000000       0.020
   0.20000000  0.40000000  0.25000000       0.020
   0.40000000  0.40000000  0.25000000       0.020
  -0.40000000  0.40000000  0.25000000       0.020
  -0.20000000  0.40000000  0.25000000       0.020
   0.00000000 -0.40000000  0.25000000       0.020
   0.20000000 -0.40000000  0.25000000       0.020
   0.40000000 -0.40000000  0.25000000       0.020
  -0.40000000 -0.40000000  0.25000000       0.020
  -0.20000000 -0.40000000  0.25000000       0.020
   0.00000000 -0.20000000  0.25000000       0.020
   0.20000000 -0.20000000  0.25000000       0.020
   0.40000000 -0.20000000  0.25000000       0.020
  -0.40000000 -0.20000000  0.25000000       0.020
  -0.20000000 -0.20000000  0.25000000       0.020
   0.00000000  0.00000000  0.50000000       0.010
   0.20000000  0.00000000  0.50000000       0.020
   0.40000000  0.00000000  0.50000000       0.020
   0.00000000  0.20000000  0.50000000       0.020
   0.20000000  0.20000000  0.50000000       0.020
   0.40000000  0.20000000  0.50000000       0.020
  -0.40000000  0.20000000  0.50000000       0.020
  -0.20000000  0.20000000  0.50000000       0.020
   0.00000000  0.40000000  0.50000000       0.020
   0.20000000  0.40000000  0.50000000       0.020
   0.40000000  0.40000000  0.50000000       0.020
  -0.40000000  0.40000000  0.50000000       0.020
  -0.20000000  0.40000000  0.50000000       0.020
 
 position of ions in fractional coordinates (direct lattice) 
   0.00000000  0.00000000  0.00000000
   0.00000000  0.00000000  0.33333333
   0.00000000  0.00000000  0.66666667
   0.00000000  0.33333333  0.00000000
   0.00000000  0.33333333  0.33333333
   0.00000000  0.33333333  0.66666667
   0.00000000  0.66666667  0.00000000
   0.00000000  0.66666667  0.33333333
   0.00000000  0.66666667  0.66666667
   0.33333333  0.00000000  0.00000000
   0.33333333  0.00000000  0.33333333
   0.33333333  0.00000000  0.66666667
   0.33333333  0.33333333  0.00000000
   0.33333333  0.33333333  0.33333333
   0.33333333  0.33333333  0.66666667
   0.33333333  0.66666667  0.00000000
   0.33333333  0.66666667  0.33333333
   0.33333333  0.66666667  0.66666667
   0.66666667  0.00000000  0.00000000
   0.66666667  0.00000000  0.33333333
   0.66666667  0.00000000  0.66666667
   0.66666667  0.33333333  0.00000000
   0.66666667  0.33333333  0.33333333
   0.66666667  0.33333333  0.66666667
   0.66666667  0.66666667  0.00000000
   0.66666667  0.66666667  0.33333333
   0.66666667  0.66666667  0.66666667
   0.16666667  0.16666667  0.16666667
   0.16666667  0.16666667  0.50000000
   0.16666667  0.16666667  0.83333333
   0.16666667  0.50000000  0.16666667
   0.16666667  0.50000000  0.50000000
   0.16666667  0.50000000  0.83333333
   0.16666667  0.83333333  0.16666667
   0.16666667  0.83333333  0.50000000
   0.16666667  0.83333333  0.83333333
   0.50000000  0.16666667  0.16666667
   0.50000000  0.16666667  0.50000000
   0.50000000  0.16666667  0.83333333
   0.50000000  0.50000000  0.16666667
   0.50000000  0.50000000  0.50000000
   0.50000000  0.50000000  0.83333333
   0.50000000  0.83333333  0.16666667
   0.50000000  0.83333333  0.50000000
   0.50000000  0.83333333  0.83333333
   0.83333333  0.16666667  0.16666667
   0.83333333  0.16666667  0.50000000
   0.83333333  0.16666667  0.83333333
   0.83333333  0.50000000  0.16666667
   0.83333333  0.50000000  0.50000000
   0.83333333  0.50000000  0.83333333
   0.83333333  0.83333333  0.16666667
   0.83333333  0.83333333  0.50000000
   0.83333333  0.83333333  0.83333333
 
 position of ions in cartesian coordinates  (Angst):
   0.00000000  0.00000000  0.00000000
   0.00000000  0.00000000  3.47663713
   0.00000000  0.00000000  6.95327426
   0.00000000  2.75004939  0.00000000
   0.00000000  2.75004939  3.47663713
   0.00000000  2.75004939  6.95327426
   0.00000000  5.50009878  0.00000000
   0.00000000  5.50009878  3.47663713
   0.00000000  5.50009878  6.95327426
   2.75004939  0.00000000  0.00000000
   2.75004939  0.00000000  3.47663713
   2.75004939  0.00000000  6.95327426
   2.75004939  2.75004939  0.00000000
   2.75004939  2.75004939  3.47663713
   2.75004939  2.75004939  6.95327426
   2.75004939  5.50009878  0.00000000
   2.75004939  5.50009878  3.47663713
   2.75004939  5.50009878  6.95327426
   5.50009878  0.00000000  0.00000000
   5.50009878  0.00000000  3.47663713
   5.50009878  0.00000000  6.95327426
   5.50009878  2.75004939  0.00000000
   5.50009878  2.75004939  3.47663713
   5.50009878  2.75004939  6.95327426
   5.50009878  5.50009878  0.00000000
   5.50009878  5.50009878  3.47663713
   5.50009878  5.50009878  6.95327426
   1.37502469  1.37502469  1.73831857
   1.37502469  1.37502469  5.21495570
   1.37502469  1.37502469  8.69159283
   1.37502469  4.12507408  1.73831857
   1.37502469  4.12507408  5.21495570
   1.37502469  4.12507408  8.69159283
   1.37502469  6.87512347  1.73831857
   1.37502469  6.87512347  5.21495570
   1.37502469  6.87512347  8.69159283
   4.12507408  1.37502469  1.73831857
   4.12507408  1.37502469  5.21495570
   4.12507408  1.37502469  8.69159283
   4.12507408  4.12507408  1.73831857
   4.12507408  4.12507408  5.21495570
   4.12507408  4.12507408  8.69159283
   4.12507408  6.87512347  1.73831857
   4.12507408  6.87512347  5.21495570
   4.12507408  6.87512347  8.69159283
   6.87512347  1.37502469  1.73831857
   6.87512347  1.37502469  5.21495570
   6.87512347  1.37502469  8.69159283
   6.87512347  4.12507408  1.73831857
   6.87512347  4.12507408  5.21495570
   6.87512347  4.12507408  8.69159283
   6.87512347  6.87512347  1.73831857
   6.87512347  6.87512347  5.21495570
   6.87512347  6.87512347  8.69159283
 


--------------------------------------------------------------------------------------------------------


 k-point  1 :   0.0000 0.0000 0.0000  plane waves:   13099
 k-point  2 :   0.2000 0.0000 0.0000  plane waves:   13101
 k-point  3 :   0.4000 0.0000 0.0000  plane waves:   13111
 k-point  4 :   0.0000 0.2000 0.0000  plane waves:   13101
 k-point  5 :   0.2000 0.2000 0.0000  plane waves:   13137
 k-point  6 :   0.4000 0.2000 0.0000  plane waves:   13119
 k-point  7 :  -0.4000 0.2000 0.0000  plane waves:   13119
 k-point  8 :  -0.2000 0.2000 0.0000  plane waves:   13137
 k-point  9 :   0.0000 0.4000 0.0000  plane waves:   13111
 k-point 10 :   0.2000 0.4000 0.0000  plane waves:   13119
 k-point 11 :   0.4000 0.4000 0.0000  plane waves:   13129
 k-point 12 :  -0.4000 0.4000 0.0000  plane waves:   13129
 k-point 13 :  -0.2000 0.4000 0.0000  plane waves:   13119
 k-point 14 :   0.0000 0.0000 0.2500  plane waves:   13134
 k-point 15 :   0.2000 0.0000 0.2500  plane waves:   13149
 k-point 16 :   0.4000 0.0000 0.2500  plane waves:   13119
 k-point 17 :  -0.4000 0.0000 0.2500  plane waves:   13119
 k-point 18 :  -0.2000 0.0000 0.2500  plane waves:   13149
 k-point 19 :   0.0000 0.2000 0.2500  plane waves:   13149
 k-point 20 :   0.2000 0.2000 0.2500  plane waves:   13145
 k-point 21 :   0.4000 0.2000 0.2500  plane waves:   13134
 k-point 22 :  -0.4000 0.2000 0.2500  plane waves:   13134
 k-point 23 :  -0.2000 0.2000 0.2500  plane waves:   13145
 k-point 24 :   0.0000 0.4000 0.2500  plane waves:   13119
 k-point 25 :   0.2000 0.4000 0.2500  plane waves:   13134
 k-point 26 :   0.4000 0.4000 0.2500  plane waves:   13108
 k-point 27 :  -0.4000 0.4000 0.2500  plane waves:   13108
 k-point 28 :  -0.2000 0.4000 0.2500  plane waves:   13134
 k-point 29 :   0.0000-0.4000 0.2500  plane waves:   13119
 k-point 30 :   0.2000-0.4000 0.2500  plane waves:   13134
 k-point 31 :   0.4000-0.4000 0.2500  plane waves:   13108
 k-point 32 :  -0.4000-0.4000 0.2500  plane waves:   13108
 k-point 33 :  -0.2000-0.4000 0.2500  plane waves:   13134
 k-point 34 :   0.0000-0.2000 0.2500  plane waves:   13149
 k-point 35 :   0.2000-0.2000 0.2500  plane waves:   13145
 k-point 36 :   0.4000-0.2000 0.2500  plane waves:   13134
 k-point 37 :  -0.4000-0.2000 0.2500  plane waves:   13134
 k-point 38 :  -0.2000-0.2000 0.2500  plane waves:   13145
 k-point 39 :   0.0000 0.0000 0.5000  plane waves:   13186
 k-point 40 :   0.2000 0.0000 0.5000  plane waves:   13124
 k-point 41 :   0.4000 0.0000 0.5000  plane waves:   13152
 k-point 42 :   0.0000 0.2000 0.5000  plane waves:   13124
 k-point 43 :   0.2000 0.2000 0.5000  plane waves:   13136
 k-point 44 :   0.4000 0.2000 0.5000  plane waves:   13128
 k-point 45 :  -0.4000 0.2000 0.5000  plane waves:   13128
 k-point 46 :  -0.2000 0.2000 0.5000  plane waves:   13136
 k-point 47 :   0.0000 0.4000 0.5000  plane waves:   13152
 k-point 48 :   0.2000 0.4000 0.5000  plane waves:   13128
 k-point 49 :   0.4000 0.4000 0.5000  plane waves:   13112
 k-point 50 :  -0.4000 0.4000 0.5000  plane waves:   13112
 k-point 51 :  -0.2000 0.4000 0.5000  plane waves:   13128

 maximum and minimum number of plane-waves per node :      3327     3200

 maximum number of plane-waves:     13186
 maximum index in each direction: 
   IXMAX=   13   IYMAX=   13   IZMAX=   17
   IXMIN=  -13   IYMIN=  -13   IZMIN=  -17


 parallel 3D FFT for wavefunctions:
    minimum data exchange during FFTs selected (reduces bandwidth)
 parallel 3D FFT for charge:
    minimum data exchange during FFTs selected (reduces bandwidth)


 total amount of memory used by VASP MPI-rank0  1502622. kBytes
=======================================================================

   base      :      30000. kBytes
   nonl-proj :      51477. kBytes
   fftplans  :      31580. kBytes
   grid      :      21385. kBytes
   one-center:        435. kBytes
   wavefun   :    1367745. kBytes
 
     INWAV:  cpu time    0.0001: real time    0.0001
 Broyden mixing: mesh for mixing (old mesh)
   NGX = 27   NGY = 27   NGZ = 35
  (NGX  =108   NGY  =108   NGZ  =140)
  gives a total of  25515 points

 initial charge density was supplied:
 charge density of overlapping atoms calculated
 number of electron     270.0000000 magnetization      -9.0000000
 keeping initial charge density in first step


--------------------------------------------------------------------------------------------------------


 Maximum index for augmentation-charges        10967 (set IRDMAX)


--------------------------------------------------------------------------------------------------------


 First call to EWALD:  gamma=   0.199
 Maximum number of real-space cells 3x 3x 2
 Maximum number of reciprocal cells 3x 3x 3

    FEWALD:  cpu time    0.0025: real time    0.0025


--------------------------------------- Iteration      1(   1)  ---------------------------------------


    POTLOK:  cpu time    0.3975: real time    0.3975
    SETDIJ:  cpu time    0.4705: real time    0.4773
    TRIAL :  cpu time   52.0629: real time   54.7770
    CORREC:  cpu time    0.0090: real time    0.0099
    --------------------------------------------
      LOOP:  cpu time   53.4025: real time   56.1306

 eigenvalue-minimisations  : 32640
 total energy-change (2. order) : 0.2071953E+04  (-0.8670711E+04)
 number of electron     270.0000000 magnetization      -9.0000000
 augmentation part      270.0000000 magnetization      -9.0000000

 Free energy of the ion-electron system (eV)
  ---------------------------------------------------
  alpha Z        PSCENC =       798.38614055
  Ewald energy   TEWEN  =    -12901.57693327
  -Hartree energ DENC   =     -2855.60785864
  -exchange      EXHF   =         0.00000000
  -V(xc)+E(xc)   XCENC  =      -996.23754825
  PAW double counting   =     12741.82587617   -11476.22345381
  entropy T*S    EENTRO =        -0.00056506
  eigenvalues    EBANDS =      4063.71318120
  atomic energy  EATOM  =     12697.67401269
  ---------------------------------------------------
  free energy    TOTEN  =      2071.95285156 eV

  energy without entropy =     2071.95341662  energy(sigma->0) =     2071.95303991


--------------------------------------------------------------------------------------------------------




--------------------------------------- Iteration      1(   2)  ---------------------------------------


    TRIAL :  cpu time   53.1895: real time   54.3841
    CORREC:  cpu time    0.0114: real time    0.0116
    --------------------------------------------
      LOOP:  cpu time   53.2038: real time   54.3987

 eigenvalue-minimisations  : 32640
 total energy-change (2. order) :-0.2124572E+04  (-0.2089506E+04)
 number of electron     270.0000000 magnetization      -9.0000000
 augmentation part      270.0000000 magnetization      -9.0000000

 Free energy of the ion-electron system (eV)
  ---------------------------------------------------
  alpha Z        PSCENC =       798.38614055
  Ewald energy   TEWEN  =    -12901.57693327
  -Hartree energ DENC   =     -2855.60785864
  -exchange      EXHF   =         0.00000000
  -V(xc)+E(xc)   XCENC  =      -996.23754825
  PAW double counting   =     12741.82587617   -11476.22345381
  entropy T*S    EENTRO =         0.00362204
  eigenvalues    EBANDS =      1939.13673087
  atomic energy  EATOM  =     12697.67401269
  ---------------------------------------------------
  free energy    TOTEN  =       -52.61941167 eV

  energy without entropy =      -52.62303371  energy(sigma->0) =      -52.62061902


--------------------------------------------------------------------------------------------------------




--------------------------------------- Iteration      1(   3)  ---------------------------------------


    TRIAL :  cpu time   72.4000: real time   74.3556
    CORREC:  cpu time    0.0135: real time    0.0144
    --------------------------------------------
      LOOP:  cpu time   72.4167: real time   74.3733

 eigenvalue-minimisations  : 49192
 total energy-change (2. order) :-0.2903456E+03  (-0.2650358E+03)
 number of electron     270.0000000 magnetization      -9.0000000
 augmentation part      270.0000000 magnetization      -9.0000000

 Free energy of the ion-electron system (eV)
  ---------------------------------------------------
  alpha Z        PSCENC =       798.38614055
  Ewald energy   TEWEN  =    -12901.57693327
  -Hartree energ DENC   =     -2855.60785864
  -exchange      EXHF   =         0.00000000
  -V(xc)+E(xc)   XCENC  =      -996.23754825
  PAW double counting   =     12741.82587617   -11476.22345381
  entropy T*S    EENTRO =         0.00062854
  eigenvalues    EBANDS =      1648.79414710
  atomic energy  EATOM  =     12697.67401269
  ---------------------------------------------------
  free energy    TOTEN  =      -342.96498893 eV

  energy without entropy =     -342.96561747  energy(sigma->0) =     -342.96519845


--------------------------------------------------------------------------------------------------------




--------------------------------------- Iteration      1(   4)  ---------------------------------------


    TRIAL :  cpu time   77.0863: real time   79.0532
    CORREC:  cpu time    0.0143: real time    0.0152
    --------------------------------------------
      LOOP:  cpu time   77.1061: real time   79.0761

 eigenvalue-minimisations  : 53048
 total energy-change (2. order) :-0.5334235E+02  (-0.4816323E+02)
 number of electron     270.0000000 magnetization      -9.0000000
 augmentation part      270.0000000 magnetization      -9.0000000

 Free energy of the ion-electron system (eV)
  ---------------------------------------------------
  alpha Z        PSCENC =       798.38614055
  Ewald energy   TEWEN  =    -12901.57693327
  -Hartree energ DENC   =     -2855.60785864
  -exchange      EXHF   =         0.00000000
  -V(xc)+E(xc)   XCENC  =      -996.23754825
  PAW double counting   =     12741.82587617   -11476.22345381
  entropy T*S    EENTRO =         0.01006844
  eigenvalues    EBANDS =      1595.44235819
  atomic energy  EATOM  =     12697.67401269
  ---------------------------------------------------
  free energy    TOTEN  =      -396.30733794 eV

  energy without entropy =     -396.31740638  energy(sigma->0) =     -396.31069409


--------------------------------------------------------------------------------------------------------




--------------------------------------- Iteration      1(   5)  ---------------------------------------


    TRIAL :  cpu time   80.1430: real time   83.4246
    CORREC:  cpu time    0.0145: real time    0.0155
    --------------------------------------------
      LOOP:  cpu time   80.1585: real time   83.4436

 eigenvalue-minimisations  : 55464
 total energy-change (2. order) :-0.7120562E+01  (-0.6774820E+01)
 number of electron     270.0000000 magnetization      -9.0000000
 augmentation part      270.0000000 magnetization      -9.0000000

 Free energy of the ion-electron system (eV)
  ---------------------------------------------------
  alpha Z        PSCENC =       798.38614055
  Ewald energy   TEWEN  =    -12901.57693327
  -Hartree energ DENC   =     -2855.60785864
  -exchange      EXHF   =         0.00000000
  -V(xc)+E(xc)   XCENC  =      -996.23754825
  PAW double counting   =     12741.82587617   -11476.22345381
  entropy T*S    EENTRO =         0.00807735
  eigenvalues    EBANDS =      1588.32378690
  atomic energy  EATOM  =     12697.67401269
  ---------------------------------------------------
  free energy    TOTEN  =      -403.42790032 eV

  energy without entropy =     -403.43597767  energy(sigma->0) =     -403.43059277


--------------------------------------------------------------------------------------------------------




--------------------------------------- Iteration      1(   6)  ---------------------------------------


    TRIAL :  cpu time   79.5496: real time   81.5248
    CORREC:  cpu time    0.0146: real time    0.0156
    --------------------------------------------
      LOOP:  cpu time   79.5674: real time   81.5440

 eigenvalue-minimisations  : 54920
 total energy-change (2. order) :-0.6681220E+00  (-0.6455070E+00)
 number of electron     270.0000000 magnetization      -9.0000000
 augmentation part      270.0000000 magnetization      -9.0000000

 Free energy of the ion-electron system (eV)
  ---------------------------------------------------
  alpha Z        PSCENC =       798.38614055
  Ewald energy   TEWEN  =    -12901.57693327
  -Hartree energ DENC   =     -2855.60785864
  -exchange      EXHF   =         0.00000000
  -V(xc)+E(xc)   XCENC  =      -996.23754825
  PAW double counting   =     12741.82587617   -11476.22345381
  entropy T*S    EENTRO =         0.01177207
  eigenvalues    EBANDS =      1587.65197023
  atomic energy  EATOM  =     12697.67401269
  ---------------------------------------------------
  free energy    TOTEN  =      -404.09602228 eV

  energy without entropy =     -404.10779435  energy(sigma->0) =     -404.09994630


--------------------------------------------------------------------------------------------------------




--------------------------------------- Iteration      1(   7)  ---------------------------------------


    TRIAL :  cpu time   82.3101: real time   83.4907
    CORREC:  cpu time    0.0144: real time    0.0153
    --------------------------------------------
      LOOP:  cpu time   82.3258: real time   83.5092

 eigenvalue-minimisations  : 56112
 total energy-change (2. order) :-0.8508910E-01  (-0.8307665E-01)
 number of electron     270.0000000 magnetization      -9.0000000
 augmentation part      270.0000000 magnetization      -9.0000000

 Free energy of the ion-electron system (eV)
  ---------------------------------------------------
  alpha Z        PSCENC =       798.38614055
  Ewald energy   TEWEN  =    -12901.57693327
  -Hartree energ DENC   =     -2855.60785864
  -exchange      EXHF   =         0.00000000
  -V(xc)+E(xc)   XCENC  =      -996.23754825
  PAW double counting   =     12741.82587617   -11476.22345381
  entropy T*S    EENTRO =         0.01347997
  eigenvalues    EBANDS =      1587.56517322
  atomic energy  EATOM  =     12697.67401269
  ---------------------------------------------------
  free energy    TOTEN  =      -404.18111138 eV

  energy without entropy =     -404.19459136  energy(sigma->0) =     -404.18560471


--------------------------------------------------------------------------------------------------------




--------------------------------------- Iteration      1(   8)  ---------------------------------------


    TRIAL :  cpu time   78.8094: real time   80.8917
    CORREC:  cpu time    0.0152: real time    0.0161
    CHARGE:  cpu time    2.2096: real time    2.2096
    --------------------------------------------
      LOOP:  cpu time   81.0527: real time   83.1381

 eigenvalue-minimisations  : 53696
 total energy-change (2. order) :-0.1121234E-01  (-0.1102272E-01)
 number of electron     269.9999995 magnetization      -5.8388941
 augmentation part       64.1465333 magnetization      -3.4782477

 Free energy of the ion-electron system (eV)
  ---------------------------------------------------
  alpha Z        PSCENC =       798.38614055
  Ewald energy   TEWEN  =    -12901.57693327
  -Hartree energ DENC   =     -2855.60785864
  -exchange      EXHF   =         0.00000000
  -V(xc)+E(xc)   XCENC  =      -996.23754825
  PAW double counting   =     12741.82587617   -11476.22345381
  entropy T*S    EENTRO =         0.01428649
  eigenvalues    EBANDS =      1587.55315436
  atomic energy  EATOM  =     12697.67401269
  ---------------------------------------------------
  free energy    TOTEN  =      -404.19232373 eV

  energy without entropy =     -404.20661021  energy(sigma->0) =     -404.19708589


--------------------------------------------------------------------------------------------------------




--------------------------------------- Iteration      1(   9)  ---------------------------------------


    POTLOK:  cpu time    0.3973: real time    0.3974
    SETDIJ:  cpu time    0.4771: real time    0.4771
    TRIAL :  cpu time   27.3335: real time   27.4011
    CORREC:  cpu time    7.4111: real time    8.2669
    CHARGE:  cpu time    2.2045: real time    2.2045
    --------------------------------------------
      LOOP:  cpu time   37.8283: real time   38.7538

 eigenvalue-minimisations  :     0
 total energy-change (2. order) : 0.3017757E+03  (-0.2190075E+03)
 number of electron     269.9999993 magnetization      -6.2929336
 augmentation part       82.4215716 magnetization      -4.2286807

 Free energy of the ion-electron system (eV)
  ---------------------------------------------------
  alpha Z        PSCENC =       798.38614055
  Ewald energy   TEWEN  =    -12901.57693327
  -Hartree energ DENC   =     -1271.51772548
  -exchange      EXHF   =         0.00000000
  -V(xc)+E(xc)   XCENC  =     -1041.65216824
  PAW double counting   =     19163.04595863   -17743.44234792
  entropy T*S    EENTRO =         0.02635087
  eigenvalues    EBANDS =       196.65216767
  atomic energy  EATOM  =     12697.67401269
  ---------------------------------------------------
  free energy    TOTEN  =      -102.41660889 eV

  energy without entropy =     -102.44295975  energy(sigma->0) =     -102.42539251


--------------------------------------------------------------------------------------------------------




--------------------------------------- Iteration      1(  10)  ---------------------------------------


    POTLOK:  cpu time    0.3923: real time    0.3923
    SETDIJ:  cpu time    0.4784: real time    0.4786
    TRIAL :  cpu time   27.0509: real time   28.0374
    CORREC:  cpu time    7.4749: real time    7.5307
    CHARGE:  cpu time    2.2079: real time    2.2077
    --------------------------------------------
      LOOP:  cpu time   37.6116: real time   38.6542

 eigenvalue-minimisations  :     0
 total energy-change (2. order) :-0.2149295E+03  (-0.1275234E+02)
 number of electron     269.9999993 magnetization      -6.3060791
 augmentation part       86.7347896 magnetization      -4.2737733

 Free energy of the ion-electron system (eV)
  ---------------------------------------------------
  alpha Z        PSCENC =       798.38614055
  Ewald energy   TEWEN  =    -12901.57693327
  -Hartree energ DENC   =     -2102.59474982
  -exchange      EXHF   =         0.00000000
  -V(xc)+E(xc)   XCENC  =     -1012.71200970
  PAW double counting   =     20609.02841069   -19369.76480024
  entropy T*S    EENTRO =         0.02211129
  eigenvalues    EBANDS =       964.18743252
  atomic energy  EATOM  =     12697.67401269
  ---------------------------------------------------
  free energy    TOTEN  =      -317.34614571 eV

  energy without entropy =     -317.36825700  energy(sigma->0) =     -317.35351614


--------------------------------------------------------------------------------------------------------




--------------------------------------- Iteration      1(  11)  ---------------------------------------


    POTLOK:  cpu time    0.3922: real time    0.3923
    SETDIJ:  cpu time    0.4667: real time    0.4667
    TRIAL :  cpu time   26.4637: real time   28.1439
    CORREC:  cpu time    7.4624: real time    7.4863
    CHARGE:  cpu time    2.2072: real time    2.2824
    --------------------------------------------
      LOOP:  cpu time   37.0031: real time   38.7832

 eigenvalue-minimisations  :     0
 total energy-change (2. order) :-0.1219772E+02  (-0.1119001E+02)
 number of electron     269.9999992 magnetization      -6.2377137
 augmentation part       88.9439927 magnetization      -4.4642038

 Free energy of the ion-electron system (eV)
  ---------------------------------------------------
  alpha Z        PSCENC =       798.38614055
  Ewald energy   TEWEN  =    -12901.57693327
  -Hartree energ DENC   =     -2356.71469105
  -exchange      EXHF   =         0.00000000
  -V(xc)+E(xc)   XCENC  =     -1003.45674460
  PAW double counting   =     21614.61707763   -20418.53167865
  entropy T*S    EENTRO =         0.00849018
  eigenvalues    EBANDS =      1240.03684141
  atomic energy  EATOM  =     12697.67401269
  ---------------------------------------------------
  free energy    TOTEN  =      -329.54386400 eV

  energy without entropy =     -329.55235417  energy(sigma->0) =     -329.54669405


--------------------------------------------------------------------------------------------------------




--------------------------------------- Iteration      1(  12)  ---------------------------------------


    POTLOK:  cpu time    0.3935: real time    0.3936
    SETDIJ:  cpu time    0.4583: real time    0.4582
    TRIAL :  cpu time   27.2739: real time   27.4065
    CORREC:  cpu time    7.3588: real time    8.4042
    CHARGE:  cpu time    2.2106: real time    2.2105
    --------------------------------------------
      LOOP:  cpu time   37.7139: real time   38.8936

 eigenvalue-minimisations  :     0
 total energy-change (2. order) :-0.1126094E+02  (-0.1155716E+02)
 number of electron     269.9999993 magnetization      -6.6414335
 augmentation part       86.8460609 magnetization      -4.6513437

 Free energy of the ion-electron system (eV)
  ---------------------------------------------------
  alpha Z        PSCENC =       798.38614055
  Ewald energy   TEWEN  =    -12901.57693327
  -Hartree energ DENC   =     -2548.12033361
  -exchange      EXHF   =         0.00000000
  -V(xc)+E(xc)   XCENC  =      -997.10524564
  PAW double counting   =     21801.32507679   -20612.97668786
  entropy T*S    EENTRO =        -0.01036596
  eigenvalues    EBANDS =      1421.58067190
  atomic energy  EATOM  =     12697.67401269
  ---------------------------------------------------
  free energy    TOTEN  =      -340.80480826 eV

  energy without entropy =     -340.79444230  energy(sigma->0) =     -340.80135294


--------------------------------------------------------------------------------------------------------




--------------------------------------- Iteration      1(  13)  ---------------------------------------


    POTLOK:  cpu time    0.3936: real time    0.3938
    SETDIJ:  cpu time    0.4694: real time    0.4698
    TRIAL :  cpu time   27.1788: real time   28.1365
    CORREC:  cpu time    7.4039: real time    7.4128
    CHARGE:  cpu time    2.2069: real time    2.2333
    --------------------------------------------
      LOOP:  cpu time   37.7057: real time   38.7004

 eigenvalue-minimisations  :     0
 total energy-change (2. order) :-0.1136435E+02  (-0.9805598E+00)
 number of electron     269.9999993 magnetization      -6.7502958
 augmentation part       86.1090602 magnetization      -4.6348495

 Free energy of the ion-electron system (eV)
  ---------------------------------------------------
  alpha Z        PSCENC =       798.38614055
  Ewald energy   TEWEN  =    -12901.57693327
  -Hartree energ DENC   =     -2523.35176489
  -exchange      EXHF   =         0.00000000
  -V(xc)+E(xc)   XCENC  =      -998.80503712
  PAW double counting   =     21287.46579609   -20050.32964059
  entropy T*S    EENTRO =        -0.01594499
  eigenvalues    EBANDS =      1338.37863140
  atomic energy  EATOM  =     12697.67401269
  ---------------------------------------------------
  free energy    TOTEN  =      -352.16916111 eV

  energy without entropy =     -352.15321611  energy(sigma->0) =     -352.16384611


--------------------------------------------------------------------------------------------------------




--------------------------------------- Iteration      1(  14)  ---------------------------------------


    POTLOK:  cpu time    0.3939: real time    0.3940
    SETDIJ:  cpu time    0.4507: real time    0.4507
    TRIAL :  cpu time   26.3961: real time   28.0536
    CORREC:  cpu time    7.4412: real time    7.4698
    CHARGE:  cpu time    2.2109: real time    2.2108
    --------------------------------------------
      LOOP:  cpu time   36.8967: real time   38.5832

 eigenvalue-minimisations  :     0
 total energy-change (2. order) :-0.9754172E+00  (-0.1139473E+01)
 number of electron     269.9999993 magnetization      -6.6658629
 augmentation part       85.8532217 magnetization      -4.5549985

 Free energy of the ion-electron system (eV)
  ---------------------------------------------------
  alpha Z        PSCENC =       798.38614055
  Ewald energy   TEWEN  =    -12901.57693327
  -Hartree energ DENC   =     -2482.40777827
  -exchange      EXHF   =         0.00000000
  -V(xc)+E(xc)   XCENC  =     -1000.34108582
  PAW double counting   =     20838.82800881   -19589.89351287
  entropy T*S    EENTRO =        -0.01614209
  eigenvalues    EBANDS =      1286.20251482
  atomic energy  EATOM  =     12697.67401269
  ---------------------------------------------------
  free energy    TOTEN  =      -353.14457835 eV

  energy without entropy =     -353.12843625  energy(sigma->0) =     -353.13919765


--------------------------------------------------------------------------------------------------------




--------------------------------------- Iteration      1(  15)  ---------------------------------------


    POTLOK:  cpu time    0.3941: real time    0.3941
    SETDIJ:  cpu time    0.5168: real time    0.5168
    TRIAL :  cpu time   27.1268: real time   27.3071
    CORREC:  cpu time    7.4086: real time    7.4187
    CHARGE:  cpu time    2.2246: real time    2.3103
    --------------------------------------------
      LOOP:  cpu time   37.6762: real time   37.9539

 eigenvalue-minimisations  :     0
 total energy-change (2. order) :-0.1136008E+01  (-0.7201681E+00)
 number of electron     269.9999992 magnetization      -6.6978191
 augmentation part       86.7617207 magnetization      -4.5714912

 Free energy of the ion-electron system (eV)
  ---------------------------------------------------
  alpha Z        PSCENC =       798.38614055
  Ewald energy   TEWEN  =    -12901.57693327
  -Hartree energ DENC   =     -2456.75184087
  -exchange      EXHF   =         0.00000000
  -V(xc)+E(xc)   XCENC  =     -1001.33979226
  PAW double counting   =     20101.08073056   -18844.17268539
  entropy T*S    EENTRO =        -0.02001975
  eigenvalues    EBANDS =      1252.43592376
  atomic energy  EATOM  =     12697.67401269
  ---------------------------------------------------
  free energy    TOTEN  =      -354.28058632 eV

  energy without entropy =     -354.26056658  energy(sigma->0) =     -354.27391307


--------------------------------------------------------------------------------------------------------




--------------------------------------- Iteration      1(  16)  ---------------------------------------


    POTLOK:  cpu time    0.3880: real time    0.3990
    SETDIJ:  cpu time    1.1881: real time    1.2337
    TRIAL :  cpu time   26.5095: real time   27.4302
    CORREC:  cpu time    8.0348: real time    8.0468
    CHARGE:  cpu time    2.2062: real time    2.2063
    --------------------------------------------
      LOOP:  cpu time   38.3383: real time   39.3281

 eigenvalue-minimisations  :     0
 total energy-change (2. order) :-0.7226336E+00  (-0.2158662E+00)
 number of electron     269.9999992 magnetization      -6.7632015
 augmentation part       87.1711956 magnetization      -4.6203915

 Free energy of the ion-electron system (eV)
  ---------------------------------------------------
  alpha Z        PSCENC =       798.38614055
  Ewald energy   TEWEN  =    -12901.57693327
  -Hartree energ DENC   =     -2492.73354767
  -exchange      EXHF   =         0.00000000
  -V(xc)+E(xc)   XCENC  =      -999.98334639
  PAW double counting   =     19688.61519717   -18438.82501993
  entropy T*S    EENTRO =        -0.02134699
  eigenvalues    EBANDS =      1293.46029667
  atomic energy  EATOM  =     12697.67401269
  ---------------------------------------------------
  free energy    TOTEN  =      -355.00321992 eV

  energy without entropy =     -354.98187293  energy(sigma->0) =     -354.99610426


--------------------------------------------------------------------------------------------------------




--------------------------------------- Iteration      1(  17)  ---------------------------------------


    POTLOK:  cpu time    0.3924: real time    0.3925
    SETDIJ:  cpu time    0.4554: real time    0.4553
    TRIAL :  cpu time   27.1547: real time   28.1810
    CORREC:  cpu time    7.4002: real time    7.4852
    CHARGE:  cpu time    2.2148: real time    2.2352
    --------------------------------------------
      LOOP:  cpu time   37.6286: real time   38.7608

 eigenvalue-minimisations  :     0
 total energy-change (2. order) :-0.2164745E+00  (-0.3192243E+00)
 number of electron     269.9999992 magnetization      -6.7759630
 augmentation part       87.2815609 magnetization      -4.7083721

 Free energy of the ion-electron system (eV)
  ---------------------------------------------------
  alpha Z        PSCENC =       798.38614055
  Ewald energy   TEWEN  =    -12901.57693327
  -Hartree energ DENC   =     -2510.51347824
  -exchange      EXHF   =         0.00000000
  -V(xc)+E(xc)   XCENC  =      -999.21376633
  PAW double counting   =     19598.41075373   -18352.63479829
  entropy T*S    EENTRO =        -0.02258853
  eigenvalues    EBANDS =      1314.26972171
  atomic energy  EATOM  =     12697.67401269
  ---------------------------------------------------
  free energy    TOTEN  =      -355.21969444 eV

  energy without entropy =     -355.19710591  energy(sigma->0) =     -355.21216493


--------------------------------------------------------------------------------------------------------




--------------------------------------- Iteration      1(  18)  ---------------------------------------


    POTLOK:  cpu time    0.3922: real time    0.3922
    SETDIJ:  cpu time    0.4518: real time    0.4518
    TRIAL :  cpu time   27.2289: real time   27.4426
    CORREC:  cpu time    7.4218: real time    7.4235
    CHARGE:  cpu time    2.2135: real time    2.2133
    --------------------------------------------
      LOOP:  cpu time   37.7155: real time   37.9309

 eigenvalue-minimisations  :     0
 total energy-change (2. order) :-0.3192393E+00  (-0.1181456E+00)
 number of electron     269.9999992 magnetization      -6.7909587
 augmentation part       87.0724716 magnetization      -4.7338635

 Free energy of the ion-electron system (eV)
  ---------------------------------------------------
  alpha Z        PSCENC =       798.38614055
  Ewald energy   TEWEN  =    -12901.57693327
  -Hartree energ DENC   =     -2511.71792676
  -exchange      EXHF   =         0.00000000
  -V(xc)+E(xc)   XCENC  =      -998.79965738
  PAW double counting   =     19492.49349030   -18247.79097925
  entropy T*S    EENTRO =        -0.02387044
  eigenvalues    EBANDS =      1315.81550794
  atomic energy  EATOM  =     12697.67401269
  ---------------------------------------------------
  free energy    TOTEN  =      -355.53893371 eV

  energy without entropy =     -355.51506327  energy(sigma->0) =     -355.53097690


--------------------------------------------------------------------------------------------------------




--------------------------------------- Iteration      1(  19)  ---------------------------------------


    POTLOK:  cpu time    0.3945: real time    0.3946
    SETDIJ:  cpu time    0.4546: real time    0.4545
    TRIAL :  cpu time   27.1603: real time   28.1616
    CORREC:  cpu time    7.3730: real time    7.4385
    CHARGE:  cpu time    2.8129: real time    2.8388
    --------------------------------------------
      LOOP:  cpu time   38.2090: real time   39.3028

 eigenvalue-minimisations  :     0
 total energy-change (2. order) :-0.1177175E+00  (-0.6662872E-01)
 number of electron     269.9999992 magnetization      -6.8177797
 augmentation part       86.8401637 magnetization      -4.7508452

 Free energy of the ion-electron system (eV)
  ---------------------------------------------------
  alpha Z        PSCENC =       798.38614055
  Ewald energy   TEWEN  =    -12901.57693327
  -Hartree energ DENC   =     -2499.94851420
  -exchange      EXHF   =         0.00000000
  -V(xc)+E(xc)   XCENC  =      -999.05791650
  PAW double counting   =     19453.97966821   -18207.08086644
  entropy T*S    EENTRO =        -0.02416783
  eigenvalues    EBANDS =      1301.99162819
  atomic energy  EATOM  =     12697.67401269
  ---------------------------------------------------
  free energy    TOTEN  =      -355.65665122 eV

  energy without entropy =     -355.63248339  energy(sigma->0) =     -355.64859527


--------------------------------------------------------------------------------------------------------




--------------------------------------- Iteration      1(  20)  ---------------------------------------


    POTLOK:  cpu time    0.3941: real time    0.3940
    SETDIJ:  cpu time    0.4731: real time    0.4730
    TRIAL :  cpu time   26.4260: real time   27.9839
    CORREC:  cpu time    7.4471: real time    7.4977
    CHARGE:  cpu time    2.2156: real time    2.2155
    --------------------------------------------
      LOOP:  cpu time   36.9575: real time   38.5667

 eigenvalue-minimisations  :     0
 total energy-change (2. order) :-0.6655999E-01  (-0.8169237E-01)
 number of electron     269.9999992 magnetization      -6.7974239
 augmentation part       86.7070751 magnetization      -4.7519050

 Free energy of the ion-electron system (eV)
  ---------------------------------------------------
  alpha Z        PSCENC =       798.38614055
  Ewald energy   TEWEN  =    -12901.57693327
  -Hartree energ DENC   =     -2489.16434229
  -exchange      EXHF   =         0.00000000
  -V(xc)+E(xc)   XCENC  =      -999.35761308
  PAW double counting   =     19435.25433844   -18186.02507338
  entropy T*S    EENTRO =        -0.02490164
[...]
   45        0.024   0.017   2.405   2.447
   46       -0.022  -0.029  -2.385  -2.437
   47        0.015   0.018   2.295   2.328
   48       -0.011  -0.006  -2.319  -2.336
   49       -0.012  -0.017  -2.320  -2.350
   50        0.016   0.014   2.306   2.336
   51       -0.009  -0.010  -2.306  -2.325
   52       -0.016  -0.010  -2.367  -2.393
   53        0.014   0.022   2.279   2.315
   54       -0.028  -0.033  -2.225  -2.287
--------------------------------------------------
tot          0.020   0.042  -7.148  -7.086
 
    FORLOC:  cpu time    0.0578: real time    0.0578
    FORNL :  cpu time   40.1717: real time   40.4533
    STRESS:  cpu time   53.4349: real time   53.6822
    FORCOR:  cpu time    0.4416: real time    0.4541
    OFIELD:  cpu time    0.0024: real time    0.0024

  FORCE on cell =-STRESS in cart. coord.  units (eV):
  Direction    XX          YY          ZZ          XY          YZ          ZX
  --------------------------------------------------------------------------------------
  Alpha Z   798.38614   798.38614   798.38614
  Ewald   -4053.61603 -4053.61603 -4794.40593    -0.00000    -0.00000    -0.00000
  Hartree  1085.21540  1083.20797   332.42424     0.03786    -0.28913    -0.07144
  E(xc)   -1141.57749 -1141.24707 -1139.72748    -0.02110     0.05486     0.01643
  Local     366.29851   370.63636  1905.40817    -0.12714     0.89074     0.22835
  n-local  -169.66377  -168.74509  -176.13985    -0.06260     0.10159     0.05792
  augment   785.16677   783.75794   767.76028     0.05201    -0.26302    -0.07117
  Kinetic  2337.03346  2334.06648  2308.33613     0.18704    -0.72176    -0.19201
  Fock        0.00000     0.00000     0.00000     0.00000     0.00000     0.00000
  -------------------------------------------------------------------------------------
  Total       7.24298     6.44671     2.04171     0.06608    -0.22672    -0.03193
  in kB      16.34647    14.54938     4.60788     0.14913    -0.51169    -0.07205
  external pressure =       11.83 kB  Pullay stress =        0.00 kB


 VOLUME and BASIS-vectors are now :
 -----------------------------------------------------------------------------
  energy-cutoff  :      404.80
  volume of cell :      709.91
      direct lattice vectors                 reciprocal lattice vectors
     8.250148166  0.000000000  0.000000000     0.121209944  0.000000000  0.000000000
     0.000000000  8.250148166  0.000000000     0.000000000  0.121209944  0.000000000
     0.000000000  0.000000000 10.429911392     0.000000000  0.000000000  0.095878092

  length of vectors
     8.250148166  8.250148166 10.429911392     0.121209944  0.121209944  0.095878092


 FORCES acting on ions:
    Electron-Ion                     Ewald-Force                    Non-Local-Force
 -----------------------------------------------------------------------------------------------
   -.247E+00 0.144E-01 0.765E-02   -.239E-08 -.239E-08 -.210E-08   -.416E-02 -.689E-02 -.182E-01
   -.112E+00 -.112E+00 0.711E-01   -.239E-08 -.239E-08 0.171E-08   0.108E+00 0.943E-01 -.106E-01
   -.127E+00 0.127E+00 -.706E-01   -.239E-08 -.239E-08 0.861E-08   0.755E-01 -.978E-01 0.182E-01
   0.254E-01 0.416E-02 -.224E-01   -.239E-08 -.802E-09 -.210E-08   -.369E-01 0.287E-01 -.697E-01
   -.115E+00 0.786E-01 0.110E+00   -.239E-08 -.802E-09 0.171E-08   0.867E-01 -.829E-01 -.445E-01
   0.235E-01 -.891E-02 -.808E-02   -.239E-08 -.802E-09 0.861E-08   -.744E-02 -.195E-02 0.442E-01
   -.311E-01 -.190E-01 0.483E-01   -.239E-08 0.631E-08 -.210E-08   -.401E-01 -.239E-01 0.848E-02
   0.152E-01 0.787E-02 0.302E-01   -.239E-08 0.631E-08 0.171E-08   -.191E-02 0.656E-02 -.196E-01
   -.150E+00 -.744E-01 -.143E+00   -.239E-08 0.631E-08 0.861E-08   0.729E-01 0.735E-01 0.462E-01
   0.177E+00 -.801E-01 -.189E-01   -.802E-09 -.239E-08 -.210E-08   -.151E-01 0.275E-01 0.413E-01
   0.811E-01 -.107E+00 0.179E-01   -.802E-09 -.239E-08 0.171E-08   -.860E-01 0.933E-01 0.335E-02
   -.364E-01 0.734E-01 -.155E-01   -.803E-09 -.239E-08 0.861E-08   -.993E-04 -.169E+00 -.249E-01
   -.202E-02 -.820E-02 -.372E-01   -.802E-09 -.802E-09 -.210E-08   0.297E-01 0.159E-01 -.384E-01
   0.104E+00 0.771E-01 0.151E+00   -.802E-09 -.802E-09 0.171E-08   -.853E-01 -.844E-01 -.429E-01
   -.302E-03 -.147E-02 0.925E-02   -.803E-09 -.802E-09 0.861E-08   -.861E-02 -.212E-02 -.602E-02
   -.243E-01 0.947E-01 0.433E-01   -.802E-09 0.631E-08 -.210E-08   0.941E-02 -.601E-01 0.583E-01
   -.215E-01 -.818E-03 -.609E-01   -.802E-09 0.631E-08 0.171E-08   0.591E-02 0.437E-02 0.214E-01
   0.193E-01 -.687E-01 -.685E-01   -.803E-09 0.631E-08 0.861E-08   -.903E-02 0.172E+00 -.110E-01
   0.501E-01 0.516E-01 0.566E-01   0.631E-08 -.239E-08 -.210E-08   0.257E-01 0.151E-01 0.260E-02
   0.114E-01 0.135E-01 0.254E-02   0.631E-08 -.239E-08 0.171E-08   -.771E-02 -.936E-02 -.116E-02
   0.147E+00 0.101E+00 -.126E+00   0.631E-08 -.239E-08 0.861E-08   -.731E-01 -.881E-01 0.410E-01
   -.101E-01 -.223E-01 0.216E-01   0.631E-08 -.802E-09 -.210E-08   -.719E-02 0.205E-02 -.450E-01
   0.905E-02 -.272E-01 0.625E-01   0.631E-08 -.802E-09 0.171E-08   -.605E-02 0.123E-01 -.527E-01
   -.242E-01 0.444E-02 -.843E-01   0.631E-08 -.802E-09 0.861E-08   0.175E-01 -.243E-02 0.817E-01
   0.672E-01 -.379E-01 0.374E-01   0.631E-08 0.631E-08 -.210E-08   0.339E-01 -.177E-01 0.272E-01
   0.117E-01 0.596E-02 0.457E-01   0.631E-08 0.631E-08 0.171E-08   -.925E-02 0.819E-02 -.530E-01
   0.140E+00 -.102E+00 -.101E+00   0.631E-08 0.631E-08 0.861E-08   -.698E-01 0.820E-01 0.498E-01
   0.677E-01 0.639E-01 0.288E+00   -.169E-07 -.169E-07 -.180E-07   -.107E+00 -.337E-01 -.336E+00
   0.354E-01 0.362E-01 -.319E+00   -.169E-07 -.169E-07 -.170E-08   0.173E-03 0.360E-02 0.414E+00
   -.279E-01 0.326E+00 -.228E+00   -.169E-07 -.169E-07 0.115E-07   -.361E-02 -.129E+00 0.313E+00
   0.826E-02 0.359E+00 -.128E+00   -.169E-07 0.802E-09 -.180E-07   -.187E-01 -.189E+00 0.152E+00
   0.336E-01 0.520E-02 0.344E-01   -.169E-07 0.802E-09 -.170E-08   -.642E-03 -.399E-02 -.294E-01
   -.390E-01 -.332E+00 0.168E+00   -.169E-07 0.802E-09 0.115E-07   0.192E-01 0.101E+00 -.222E+00
   0.965E-01 -.343E+00 0.143E+00   -.169E-07 0.130E-07 -.180E-07   -.294E-01 0.179E+00 -.144E+00
   0.431E-02 -.381E-01 0.295E+00   -.169E-07 0.130E-07 -.170E-08   -.353E-01 -.130E-02 -.380E+00
   0.550E+00 -.994E-01 -.290E+00   -.169E-07 0.130E-07 0.115E-07   -.220E+00 0.980E-01 0.326E+00
   0.323E+00 -.194E-01 -.951E-01   0.802E-09 -.169E-07 -.180E-07   -.142E+00 -.359E-02 0.133E+00
   0.424E-02 0.291E-01 -.835E-02   0.802E-09 -.169E-07 -.170E-08   -.795E-02 -.104E-01 0.286E-01
   -.100E-01 0.263E+00 0.169E+00   0.802E-09 -.169E-07 0.115E-07   -.174E-01 -.601E-01 -.233E+00
   -.126E+00 -.617E-01 -.489E-01   0.802E-09 0.802E-09 -.180E-07   0.144E+00 0.982E-01 0.124E+00
   -.460E-01 -.553E-01 -.125E+00   0.802E-09 0.802E-09 -.170E-08   -.546E-03 0.265E-03 0.110E+00
   0.130E-01 -.296E+00 0.460E-01   0.802E-09 0.802E-09 0.115E-07   0.253E-01 0.159E+00 -.794E-01
   -.178E+00 0.906E-01 0.139E+00   0.802E-09 0.130E-07 -.180E-07   0.126E+00 -.125E+00 -.109E+00
   -.219E-01 0.306E-01 0.207E+00   0.802E-09 0.130E-07 -.170E-08   0.372E-01 -.322E-02 -.336E+00
   -.579E+00 0.884E-01 -.208E+00   0.802E-09 0.130E-07 0.115E-07   0.295E+00 -.113E+00 0.165E+00
   -.337E+00 -.496E-01 0.711E-03   0.130E-07 -.169E-07 -.180E-07   0.207E+00 0.833E-01 0.240E-01
   -.358E-01 -.646E-01 0.146E+00   0.130E-07 -.169E-07 -.170E-08   -.483E-02 0.266E-01 -.135E+00
   0.491E-01 -.196E+00 0.806E-01   0.130E-07 -.169E-07 0.115E-07   0.746E-02 0.219E+00 -.192E+00
   0.118E+00 -.374E-01 0.152E-01   0.130E-07 0.802E-09 -.180E-07   -.124E+00 -.481E-02 0.765E-01
   0.151E-01 0.403E-01 0.244E-01   0.130E-07 0.802E-09 -.170E-08   -.431E-02 -.194E-01 -.317E-01
   0.138E-01 0.184E+00 0.456E-02   0.130E-07 0.802E-09 0.115E-07   -.333E-01 -.159E+00 -.789E-01
   0.924E-01 0.899E-01 -.982E-01   0.130E-07 0.130E-07 -.180E-07   -.107E+00 -.107E+00 0.166E+00
   0.174E-01 0.255E-01 -.281E+00   0.130E-07 0.130E-07 -.170E-08   0.445E-02 -.775E-02 0.339E+00
   -.137E-01 0.249E-02 0.103E+00   0.130E-07 0.130E-07 0.115E-07   -.160E-01 -.130E-01 -.626E-01
 -----------------------------------------------------------------------------------------------
   0.959E-02 0.283E-01 -.698E-02   -.614E-13 -.142E-13 0.128E-13   -.959E-02 -.283E-01 0.696E-02
 
 
 POSITION                                       TOTAL-FORCE (eV/Angst)
 -----------------------------------------------------------------------------------
      0.00000      0.00000      0.00000        -0.250828      0.008032     -0.009041
      0.00000      0.00000      3.47664        -0.012726     -0.025261      0.060713
      0.00000      0.00000      6.95327        -0.057809      0.037638     -0.052824
      0.00000      2.75005      0.00000        -0.007398      0.029737     -0.085358
      0.00000      2.75005      3.47664        -0.035185      0.002545      0.068103
      0.00000      2.75005      6.95327         0.017159     -0.010670      0.033057
      0.00000      5.50010      0.00000        -0.067070     -0.040170      0.055209
      0.00000      5.50010      3.47664         0.013872      0.013909      0.012166
      0.00000      5.50010      6.95327        -0.083778     -0.006625     -0.100039
      2.75005      0.00000      0.00000         0.162656     -0.055132      0.018505
      2.75005      0.00000      3.47664         0.002225     -0.021798      0.019508
      2.75005      0.00000      6.95327        -0.036823     -0.081792     -0.036736
      2.75005      2.75005      0.00000         0.024636      0.005633     -0.071769
      2.75005      2.75005      3.47664         0.026028     -0.000553      0.112072
      2.75005      2.75005      6.95327        -0.008184     -0.003375      0.004782
      2.75005      5.50010      0.00000        -0.016010      0.040561      0.095648
      2.75005      5.50010      3.47664        -0.016529      0.003125     -0.042460
      2.75005      5.50010      6.95327         0.010887      0.089254     -0.077633
      5.50010      0.00000      0.00000         0.073260      0.065403      0.058191
      5.50010      0.00000      3.47664         0.004371      0.005401      0.001183
      5.50010      0.00000      6.95327         0.080799      0.020039     -0.087770
      5.50010      2.75005      0.00000        -0.017005     -0.020882     -0.019647
      5.50010      2.75005      3.47664         0.003423     -0.016471      0.014123
      5.50010      2.75005      6.95327        -0.008567      0.002111     -0.009872
      5.50010      5.50010      0.00000         0.098050     -0.053837      0.061244
      5.50010      5.50010      3.47664         0.003282      0.013605     -0.002491
      5.50010      5.50010      6.95327         0.076802     -0.026985     -0.053837
      1.37502      1.37502      1.73832        -0.036872      0.032669     -0.043395
      1.37502      1.37502      5.21496         0.035942      0.039181      0.086736
      1.37502      1.37502      8.69159        -0.032422      0.197254      0.080242
      1.37502      4.12507      1.73832        -0.010433      0.171995      0.017646
      1.37502      4.12507      5.21496         0.033415      0.000918      0.006444
      1.37502      4.12507      8.69159        -0.020520     -0.232604     -0.046710
      1.37502      6.87512      1.73832         0.066574     -0.165833      0.001253
      1.37502      6.87512      5.21496        -0.029331     -0.038551     -0.075104
      1.37502      6.87512      8.69159         0.337605     -0.005484      0.029541
      4.12507      1.37502      1.73832         0.187146     -0.020492      0.033296
      4.12507      1.37502      5.21496        -0.004383      0.018615      0.020755
      4.12507      1.37502      8.69159        -0.024780      0.206320     -0.057422
      4.12507      4.12507      1.73832         0.015760      0.032261      0.066817
      4.12507      4.12507      5.21496        -0.046908     -0.054772     -0.017398
      4.12507      4.12507      8.69159         0.038624     -0.139612     -0.028918
      4.12507      6.87512      1.73832        -0.054007     -0.032643      0.030974
      4.12507      6.87512      5.21496         0.013032      0.027783     -0.121517
      4.12507      6.87512      8.69159        -0.295206     -0.021806     -0.046565
      6.87512      1.37502      1.73832        -0.135675      0.033277      0.021272
      6.87512      1.37502      5.21496        -0.039850     -0.038512      0.015583
      6.87512      1.37502      8.69159         0.055148      0.020326     -0.101668
      6.87512      4.12507      1.73832        -0.003465     -0.043238      0.084322
      6.87512      4.12507      5.21496         0.010793      0.021299     -0.005503
      6.87512      4.12507      8.69159        -0.018882      0.027044     -0.067393
      6.87512      6.87512      1.73832        -0.012390     -0.015856      0.060173
      6.87512      6.87512      5.21496         0.021971      0.017971      0.049590
      6.87512      6.87512      8.69159        -0.030425     -0.010956      0.041922
 -----------------------------------------------------------------------------------
    total drift:                                0.000004     -0.000010     -0.000014


--------------------------------------------------------------------------------------------------------



  FREE ENERGIE OF THE ION-ELECTRON SYSTEM (eV)
  ---------------------------------------------------
  free  energy   TOTEN  =      -356.04920816 eV

  energy  without entropy=     -356.02333503  energy(sigma->0) =     -356.04058379
 


--------------------------------------------------------------------------------------------------------


    POTLOK:  cpu time    0.9316: real time    0.9380


--------------------------------------------------------------------------------------------------------


     LOOP+:  cpu time 3437.0949: real time 3504.8273
    4ORBIT:  cpu time    0.0000: real time    0.0000
 


 total charge     
 
# of ion       s       p       d       tot
------------------------------------------
    1        0.405   0.430   0.000   0.836
    2        0.405   0.428   0.000   0.833
    3        0.405   0.428   0.000   0.833
    4        0.404   0.428   0.000   0.832
    5        0.405   0.429   0.000   0.834
    6        0.405   0.426   0.000   0.831
    7        0.405   0.428   0.000   0.833
    8        0.405   0.426   0.000   0.832
    9        0.405   0.428   0.000   0.833
   10        0.405   0.431   0.000   0.836
   11        0.406   0.428   0.000   0.833
   12        0.405   0.428   0.000   0.834
   13        0.405   0.427   0.000   0.832
   14        0.405   0.428   0.000   0.834
   15        0.405   0.426   0.000   0.831
   16        0.405   0.428   0.000   0.833
   17        0.405   0.426   0.000   0.832
   18        0.405   0.429   0.000   0.834
   19        0.405   0.428   0.000   0.833
   20        0.405   0.426   0.000   0.832
   21        0.405   0.428   0.000   0.833
   22        0.404   0.427   0.000   0.831
   23        0.405   0.427   0.000   0.832
   24        0.405   0.426   0.000   0.831
   25        0.404   0.429   0.000   0.833
   26        0.405   0.426   0.000   0.832
   27        0.405   0.429   0.000   0.834
   28        0.334   0.353   5.137   5.824
   29        0.334   0.349   5.138   5.821
   30        0.332   0.356   5.131   5.818
   31        0.335   0.355   5.127   5.816
   32        0.333   0.353   5.132   5.819
   33        0.334   0.353   5.131   5.818
   34        0.332   0.356   5.129   5.817
   35        0.334   0.351   5.135   5.820
   36        0.335   0.355   5.126   5.815
   37        0.334   0.355   5.126   5.815
   38        0.333   0.353   5.132   5.819
   39        0.333   0.354   5.131   5.818
   40        0.333   0.351   5.138   5.822
   41        0.334   0.351   5.135   5.820
   42        0.334   0.355   5.130   5.819
   43        0.331   0.354   5.136   5.821
   44        0.335   0.349   5.138   5.822
   45        0.335   0.354   5.128   5.818
   46        0.335   0.356   5.125   5.816
   47        0.334   0.351   5.135   5.820
   48        0.331   0.352   5.140   5.823
   49        0.333   0.352   5.138   5.823
   50        0.335   0.349   5.137   5.821
   51        0.332   0.353   5.139   5.823
   52        0.333   0.350   5.140   5.822
   53        0.334   0.353   5.132   5.819
   54        0.332   0.358   5.130   5.821
--------------------------------------------------
tot         19.941  21.079 138.598 179.618
 


 magnetization (x)
 
# of ion       s       p       d       tot
------------------------------------------
    1        0.012   0.021   0.000   0.033
    2       -0.004  -0.008   0.000  -0.012
    3       -0.005  -0.010   0.000  -0.015
    4        0.017   0.028   0.000   0.045
    5       -0.004  -0.008   0.000  -0.013
    6       -0.000  -0.003   0.000  -0.003
    7        0.016   0.027   0.000   0.043
    8       -0.001  -0.002   0.000  -0.003
    9       -0.005  -0.008   0.000  -0.014
   10        0.008   0.013   0.000   0.021
   11       -0.004  -0.010   0.000  -0.014
   12       -0.009  -0.020   0.000  -0.029
   13        0.016   0.026   0.000   0.042
   14       -0.005  -0.007   0.000  -0.012
   15       -0.002  -0.005   0.000  -0.007
   16        0.011   0.018   0.000   0.029
   17       -0.001  -0.003   0.000  -0.004
   18       -0.010  -0.018   0.000  -0.028
   19        0.016   0.028   0.000   0.043
   20       -0.001  -0.001   0.000  -0.002
   21       -0.005  -0.009   0.000  -0.014
   22        0.021   0.035   0.000   0.056
   23       -0.001  -0.002   0.000  -0.003
   24       -0.000  -0.001   0.000  -0.001
   25        0.017   0.029   0.000   0.046
   26        0.001  -0.001   0.000  -0.000
   27       -0.005  -0.010   0.000  -0.015
   28        0.029   0.026   2.230   2.285
   29        0.019   0.016   2.364   2.399
   30       -0.015  -0.022  -2.257  -2.294
   31       -0.025  -0.025  -2.416  -2.466
   32        0.013   0.022   2.279   2.315
   33       -0.022  -0.018  -2.411  -2.451
   34       -0.019  -0.026  -2.289  -2.335
   35        0.018   0.020   2.342   2.380
   36        0.023   0.021   2.403   2.447
   37       -0.025  -0.025  -2.406  -2.456
   38        0.013   0.022   2.272   2.307
   39       -0.022  -0.018  -2.385  -2.425
   40       -0.014  -0.014  -2.335  -2.362
   41        0.015   0.018   2.298   2.331
   42       -0.020  -0.021  -2.360  -2.401
   43       -0.010  -0.015  -2.202  -2.226
   44        0.019   0.016   2.360   2.395
   45        0.024   0.017   2.405   2.447
   46       -0.022  -0.029  -2.385  -2.437
   47        0.015   0.018   2.295   2.328
   48       -0.011  -0.006  -2.319  -2.336
   49       -0.012  -0.017  -2.320  -2.350
   50        0.016   0.014   2.306   2.336
   51       -0.009  -0.010  -2.306  -2.325
   52       -0.016  -0.010  -2.367  -2.393
   53        0.014   0.022   2.279   2.315
   54       -0.028  -0.033  -2.225  -2.287
--------------------------------------------------
tot          0.020   0.042  -7.148  -7.086
 

 total amount of memory used by VASP MPI-rank0  1502622. kBytes
=======================================================================

   base      :      30000. kBytes
   nonl-proj :      51477. kBytes
   fftplans  :      31580. kBytes
   grid      :      21385. kBytes
   one-center:        435. kBytes
   wavefun   :    1367745. kBytes
 
  
  
 General timing and accounting informations for this job:
 ========================================================
  
                  Total CPU time used (sec):     3491.199
                            User time (sec):     3451.993
                          System time (sec):       39.205
                         Elapsed time (sec):     3562.147
  
                   Maximum memory used (kb):     1700304.
                   Average memory used (kb):           0.
  
                          Minor page faults:      1043996
                          Major page faults:           16
                 Voluntary context switches:         4115
