 vasp.5.4.4.18Apr17-6-g9f103f2a35 (build Dec 20 2018 12:05:58) complex          
  
 executed on             LinuxIFC date 2019.06.20  23:41:06
 running on   32 total cores
 distrk:  each k-point on    8 cores,    4 groups
 distr:  one band on NCORES_PER_BAND=   4 cores,    2 groups


--------------------------------------------------------------------------------------------------------


 INCAR:
 POTCAR:    PAW_PBE Al 04Jan2001                  
 POTCAR:    PAW_PBE Mn 06Sep2000                  

 ----------------------------------------------------------------------------- 
|                                                                             |
|           W    W    AA    RRRRR   N    N  II  N    N   GGGG   !!!           |
|           W    W   A  A   R    R  NN   N  II  NN   N  G    G  !!!           |
|           W    W  A    A  R    R  N N  N  II  N N  N  G       !!!           |
|           W WW W  AAAAAA  RRRRR   N  N N  II  N  N N  G  GGG   !            |
|           WW  WW  A    A  R   R   N   NN  II  N   NN  G    G                |
|           W    W  A    A  R    R  N    N  II  N    N   GGGG   !!!           |
|                                                                             |
|      You have enabled k-point parallelism (KPAR>1).                         |
|      This developmental code was originally  written by Paul Kent at ORNL,  |
|      and carefully double checked in Vienna.                                |
|      GW as well as linear response parallelism added by Martijn Marsman     |
|      and Georg Kresse.                                                      |
|      Carefully verify results versus KPAR=1.                                |
|      Report problems to Paul Kent and Vienna.                               |
|                                                                             |
 ----------------------------------------------------------------------------- 

 POTCAR:    PAW_PBE Al 04Jan2001                  
   VRHFIN =Al: s2p1                                                             
   LEXCH  = PE                                                                  
   EATOM  =    53.5387 eV,    3.9350 Ry                                         
                                                                                
   TITEL  = PAW_PBE Al 04Jan2001                                                
   LULTRA =        F    use ultrasoft PP ?                                      
   IUNSCR =        1    unscreen: 0-lin 1-nonlin 2-no                           
   RPACOR =    1.500    partial core radius                                     
   POMASS =   26.981; ZVAL   =    3.000    mass and valenz                      
   RCORE  =    1.900    outmost cutoff radius                                   
   RWIGS  =    2.650; RWIGS  =    1.402    wigner-seitz radius (au A)           
   ENMAX  =  240.300; ENMIN  =  180.225 eV                                      
   ICORE  =        2    local potential                                         
   LCOR   =        T    correct aug charges                                     
   LPAW   =        T    paw PP                                                  
   EAUG   =  291.052                                                            
   DEXC   =    0.000                                                            
   RMAX   =    1.939    core radius for proj-oper                               
   RAUG   =    1.300    factor for augmentation sphere                          
   RDEP   =    1.966    radius for radial grids                                 
   RDEPT  =    1.856    core radius for aug-charge                              
                                                                                
   Atomic configuration                                                         
    6 entries                                                                   
     n  l   j            E        occ.                                          
     1  0  0.50     -1511.1048   2.0000                                         
     2  0  0.50      -108.1629   2.0000                                         
     2  1  1.50       -69.6402   6.0000                                         
     3  0  0.50        -7.7528   2.0000                                         
     3  1  1.50        -2.7121   1.0000                                         
     3  2  2.50        -2.7212   0.0000                                         
   Description                                                                  
     l       E           TYP  RCUT    TYP  RCUT                                 
     0     -7.7528455     23  1.900                                             
     0     -3.3096929     23  1.900                                             
     1     -2.7120682     23  1.900                                             
     1     13.6058260     23  1.900                                             
     2     -2.7211652      7  1.900                                             
  local pseudopotential read in
  partial core-charges read in
  partial kinetic energy density read in
  atomic valenz-charges read in
  non local Contribution for L=           0  read in
    real space projection operators read in
  non local Contribution for L=           0  read in
    real space projection operators read in
  non local Contribution for L=           1  read in
    real space projection operators read in
  non local Contribution for L=           1  read in
    real space projection operators read in
    PAW grid and wavefunctions read in
 
   number of l-projection  operators is LMAX  =           4
   number of lm-projection operators is LMMAX =           8
 
 POTCAR:    PAW_PBE Mn 06Sep2000                  
   VRHFIN =Mn: d6 s1                                                            
   LEXCH  = PE                                                                  
   EATOM  =   416.7541 eV,   30.6306 Ry                                         
                                                                                
   TITEL  = PAW_PBE Mn 06Sep2000                                                
   LULTRA =        F    use ultrasoft PP ?                                      
   IUNSCR =        1    unscreen: 0-lin 1-nonlin 2-no                           
   RPACOR =    2.000    partial core radius                                     
   POMASS =   54.938; ZVAL   =    7.000    mass and valenz                      
   RCORE  =    2.300    outmost cutoff radius                                   
   RWIGS  =    2.500; RWIGS  =    1.323    wigner-seitz radius (au A)           
   ENMAX  =  269.864; ENMIN  =  202.398 eV                                      
   RCLOC  =    1.725    cutoff for local pot                                    
   LCOR   =        T    correct aug charges                                     
   LPAW   =        T    paw PP                                                  
   EAUG   =  500.711                                                            
   DEXC   =    0.000                                                            
   RMAX   =    2.343    core radius for proj-oper                               
   RAUG   =    1.300    factor for augmentation sphere                          
   RDEP   =    2.338    radius for radial grids                                 
   RDEPT  =    1.911    core radius for aug-charge                              
                                                                                
   Atomic configuration                                                         
    9 entries                                                                   
     n  l   j            E        occ.                                          
     1  0  0.50     -6424.8288   2.0000                                         
     2  0  0.50      -739.1154   2.0000                                         
     2  1  1.50      -625.3949   6.0000                                         
     3  0  0.50       -81.6100   2.0000                                         
     3  1  1.50       -50.4667   6.0000                                         
     3  2  2.50        -3.3745   6.0000                                         
     4  0  0.50        -4.1331   1.0000                                         
     4  1  0.50        -4.0817   0.0000                                         
     4  3  2.50        -1.3606   0.0000                                         
   Description                                                                  
     l       E           TYP  RCUT    TYP  RCUT                                 
     2     -3.3744664     23  2.300                                             
     2     -4.7350490     23  2.300                                             
     0     -4.1331408     23  2.300                                             
     0      7.6656614     23  2.300                                             
     1     -2.7211652     23  2.300                                             
     1     20.4087390     23  2.300                                             
  local pseudopotential read in
  partial core-charges read in
  partial kinetic energy density read in
  atomic valenz-charges read in
  non local Contribution for L=           2  read in
    real space projection operators read in
  non local Contribution for L=           2  read in
    real space projection operators read in
  non local Contribution for L=           0  read in
    real space projection operators read in
  non local Contribution for L=           0  read in
    real space projection operators read in
  non local Contribution for L=           1  read in
    real space projection operators read in
  non local Contribution for L=           1  read in
    real space projection operators read in
    PAW grid and wavefunctions read in
 
   number of l-projection  operators is LMAX  =           6
   number of lm-projection operators is LMMAX =          18
 

 ----------------------------------------------------------------------------- 
|                                                                             |
|  ADVICE TO THIS USER RUNNING 'VASP/VAMP'   (HEAR YOUR MASTER'S VOICE ...):  |
|                                                                             |
|      You have a (more or less) 'large supercell' and for larger cells       |
|      it might be more efficient to use real space projection opertators     |
|      So try LREAL= Auto  in the INCAR   file.                               |
|      Mind:          For very  accurate calculation you might also keep the  |
|      reciprocal projection scheme          (i.e. LREAL=.FALSE.)             |
|                                                                             |
 ----------------------------------------------------------------------------- 

  PAW_PBE Al 04Jan2001                  :
 energy of atom  1       EATOM=  -53.5387
 kinetic energy error for atom=    0.0005 (will be added to EATOM!!)
  PAW_PBE Mn 06Sep2000                  :
 energy of atom  2       EATOM= -416.7541
 kinetic energy error for atom=    0.0080 (will be added to EATOM!!)
 
 
 POSCAR: NewRef: 27, @ ['Mn', array([1.37502469, 
  positions in cartesian coordinates
  velocities in cartesian coordinates
  No initial velocities read in
 exchange correlation table for  LEXCH =        8
   RHO(1)=    0.500       N(1)  =     2000
   RHO(2)=  100.500       N(2)  =     4000
 


--------------------------------------------------------------------------------------------------------


 ion  position               nearest neighbor table
   1  0.000  0.000  0.000-  28 2.61  30 2.61  34 2.61  36 2.61  46 2.61  48 2.61  52 2.61  54 2.61
                             4 2.75  10 2.75   7 2.75  19 2.75
   2  0.000  0.000  0.333-  28 2.61  34 2.61  46 2.61  52 2.61  29 2.61  47 2.61  35 2.61  53 2.61
                             5 2.75  11 2.75   8 2.75  20 2.75
   3  0.000  0.000  0.667-  29 2.61  35 2.61  47 2.61  53 2.61  30 2.61  48 2.61  36 2.61  54 2.61
                             6 2.75  12 2.75   9 2.75  21 2.75
   4  0.000  0.333  0.000-  28 2.61  30 2.61  46 2.61  48 2.61  31 2.61  33 2.61  49 2.61  51 2.61
                            13 2.75   1 2.75   7 2.75  22 2.75
   5  0.000  0.333  0.333-  28 2.61  46 2.61  31 2.61  49 2.61  47 2.61  29 2.61  32 2.61  50 2.61
                            14 2.75   2 2.75   8 2.75  23 2.75
   6  0.000  0.333  0.667-  29 2.61  47 2.61  32 2.61  50 2.61  48 2.61  30 2.61  33 2.61  51 2.61
                            15 2.75   3 2.75   9 2.75  24 2.75
   7  0.000  0.667  0.000-  31 2.61  33 2.61  49 2.61  51 2.61  34 2.61  36 2.61  52 2.61  54 2.61
                             4 2.75  16 2.75   1 2.75  25 2.75
   8  0.000  0.667  0.333-  31 2.61  49 2.61  34 2.61  52 2.61  50 2.61  32 2.61  35 2.61  53 2.61
                             5 2.75  17 2.75   2 2.75  26 2.75
   9  0.000  0.667  0.667-  32 2.61  50 2.61  35 2.61  53 2.61  51 2.61  33 2.61  36 2.61  54 2.61
                             6 2.75  18 2.75   3 2.75  27 2.75
  10  0.333  0.000  0.000-  28 2.61  30 2.61  34 2.61  36 2.61  37 2.61  39 2.61  43 2.61  45 2.61
                            19 2.75   1 2.75  13 2.75  16 2.75
  11  0.333  0.000  0.333-  28 2.61  34 2.61  37 2.61  43 2.61  29 2.61  35 2.61  38 2.61  44 2.61
                            20 2.75   2 2.75  14 2.75  17 2.75
  12  0.333  0.000  0.667-  29 2.61  35 2.61  38 2.61  44 2.61  30 2.61  36 2.61  39 2.61  45 2.61
                            21 2.75   3 2.75  15 2.75  18 2.75
  13  0.333  0.333  0.000-  28 2.61  30 2.61  31 2.61  33 2.61  37 2.61  39 2.61  40 2.61  42 2.61
                             4 2.75  10 2.75  16 2.75  22 2.75
  14  0.333  0.333  0.333-  28 2.61  31 2.61  37 2.61  29 2.61  40 2.61  38 2.61  32 2.61  41 2.61
                             5 2.75  11 2.75  17 2.75  23 2.75
  15  0.333  0.333  0.667-  29 2.61  32 2.61  38 2.61  30 2.61  41 2.61  39 2.61  33 2.61  42 2.61
                             6 2.75  12 2.75  18 2.75  24 2.75
  16  0.333  0.667  0.000-  31 2.61  33 2.61  34 2.61  36 2.61  40 2.61  42 2.61  43 2.61  45 2.61
                            25 2.75   7 2.75  13 2.75  10 2.75
  17  0.333  0.667  0.333-  31 2.61  34 2.61  40 2.61  32 2.61  43 2.61  41 2.61  35 2.61  44 2.61
                            26 2.75   8 2.75  14 2.75  11 2.75
  18  0.333  0.667  0.667-  32 2.61  35 2.61  41 2.61  33 2.61  44 2.61  42 2.61  36 2.61  45 2.61
                            27 2.75   9 2.75  15 2.75  12 2.75
  19  0.667  0.000  0.000-  37 2.61  39 2.61  43 2.61  45 2.61  46 2.61  48 2.61  52 2.61  54 2.61
                            10 2.75  22 2.75   1 2.75  25 2.75
  20  0.667  0.000  0.333-  37 2.61  43 2.61  46 2.61  52 2.61  38 2.61  44 2.61  47 2.61  53 2.61
                            11 2.75  23 2.75   2 2.75  26 2.75
  21  0.667  0.000  0.667-  38 2.61  44 2.61  47 2.61  53 2.61  39 2.61  45 2.61  48 2.61  54 2.61
                            12 2.75  24 2.75   3 2.75  27 2.75
  22  0.667  0.333  0.000-  37 2.61  39 2.61  40 2.61  42 2.61  46 2.61  48 2.61  49 2.61  51 2.61
                            25 2.75  13 2.75  19 2.75   4 2.75
  23  0.667  0.333  0.333-  37 2.61  40 2.61  46 2.61  38 2.61  49 2.61  47 2.61  41 2.61  50 2.61
                            26 2.75  14 2.75  20 2.75   5 2.75
  24  0.667  0.333  0.667-  38 2.61  41 2.61  47 2.61  39 2.61  50 2.61  48 2.61  42 2.61  51 2.61
                            27 2.75  15 2.75  21 2.75   6 2.75
  25  0.667  0.667  0.000-  40 2.61  42 2.61  43 2.61  45 2.61  49 2.61  51 2.61  52 2.61  54 2.61
                            16 2.75  22 2.75  19 2.75   7 2.75
  26  0.667  0.667  0.333-  40 2.61  43 2.61  49 2.61  41 2.61  52 2.61  50 2.61  44 2.61  53 2.61
                            17 2.75  23 2.75  20 2.75   8 2.75
  27  0.667  0.667  0.667-  41 2.61  44 2.61  50 2.61  42 2.61  53 2.61  51 2.61  45 2.61  54 2.61
                            18 2.75  24 2.75  21 2.75   9 2.75
  28  0.167  0.167  0.167-  14 2.61  11 2.61   5 2.61  13 2.61   2 2.61  10 2.61   4 2.61   1 2.61
                            31 2.75  37 2.75  34 2.75  46 2.75
  29  0.167  0.167  0.500-  15 2.61  12 2.61   6 2.61  14 2.61   3 2.61  11 2.61   5 2.61   2 2.61
                            32 2.75  38 2.75  35 2.75  47 2.75
  30  0.167  0.167  0.833-  13 2.61  15 2.61  10 2.61  12 2.61   4 2.61   6 2.61   1 2.61   3 2.61
                            33 2.75  39 2.75  36 2.75  48 2.75
  31  0.167  0.500  0.167-  17 2.61  14 2.61   8 2.61  16 2.61   5 2.61  13 2.61   7 2.61   4 2.61
                            28 2.75  34 2.75  40 2.75  49 2.75
  32  0.167  0.500  0.500-  18 2.61  15 2.61   9 2.61  17 2.61   6 2.61  14 2.61   8 2.61   5 2.61
                            29 2.75  35 2.75  41 2.75  50 2.75
  33  0.167  0.500  0.833-  16 2.61  18 2.61  13 2.61  15 2.61   7 2.61   9 2.61   4 2.61   6 2.61
                            30 2.75  36 2.75  42 2.75  51 2.75
  34  0.167  0.833  0.167-  11 2.61  17 2.61   2 2.61   8 2.61  16 2.61  10 2.61   7 2.61   1 2.61
                            31 2.75  43 2.75  28 2.75  52 2.75
  35  0.167  0.833  0.500-  12 2.61  18 2.61   3 2.61   9 2.61  17 2.61  11 2.61   8 2.61   2 2.61
                            32 2.75  44 2.75  29 2.75  53 2.75
  36  0.167  0.833  0.833-  10 2.61  12 2.61  16 2.61  18 2.61   1 2.61   3 2.61   7 2.61   9 2.61
                            33 2.75  45 2.75  30 2.75  54 2.75
  37  0.500  0.167  0.167-  23 2.61  20 2.61  14 2.61  22 2.61  11 2.61  19 2.61  13 2.61  10 2.61
                            28 2.75  40 2.75  46 2.75  43 2.75
  38  0.500  0.167  0.500-  24 2.61  21 2.61  15 2.61  23 2.61  12 2.61  20 2.61  14 2.61  11 2.61
                            29 2.75  41 2.75  47 2.75  44 2.75
  39  0.500  0.167  0.833-  22 2.61  24 2.61  19 2.61  21 2.61  13 2.61  15 2.61  10 2.61  12 2.61
                            30 2.75  42 2.75  48 2.75  45 2.75
  40  0.500  0.500  0.167-  26 2.61  23 2.61  17 2.61  25 2.61  14 2.61  22 2.61  16 2.61  13 2.61
                            31 2.75  37 2.75  43 2.75  49 2.75
  41  0.500  0.500  0.500-  27 2.61  24 2.61  18 2.61  26 2.61  15 2.61  23 2.61  17 2.61  14 2.61
                            32 2.75  38 2.75  44 2.75  50 2.75
  42  0.500  0.500  0.833-  25 2.61  27 2.61  22 2.61  24 2.61  16 2.61  18 2.61  13 2.61  15 2.61
                            33 2.75  39 2.75  45 2.75  51 2.75
  43  0.500  0.833  0.167-  20 2.61  26 2.61  11 2.61  17 2.61  25 2.61  19 2.61  16 2.61  10 2.61
                            34 2.75  40 2.75  52 2.75  37 2.75
  44  0.500  0.833  0.500-  21 2.61  27 2.61  12 2.61  18 2.61  26 2.61  20 2.61  17 2.61  11 2.61
                            35 2.75  41 2.75  53 2.75  38 2.75
  45  0.500  0.833  0.833-  19 2.61  21 2.61  25 2.61  27 2.61  10 2.61  12 2.61  16 2.61  18 2.61
                            36 2.75  42 2.75  54 2.75  39 2.75
  46  0.833  0.167  0.167-   5 2.61  23 2.61  20 2.61   2 2.61  22 2.61   4 2.61  19 2.61   1 2.61
                            37 2.75  49 2.75  28 2.75  52 2.75
  47  0.833  0.167  0.500-   6 2.61  24 2.61  21 2.61   3 2.61  23 2.61   5 2.61  20 2.61   2 2.61
                            38 2.75  50 2.75  29 2.75  53 2.75
  48  0.833  0.167  0.833-   4 2.61   6 2.61  22 2.61  24 2.61  19 2.61  21 2.61   1 2.61   3 2.61
                            39 2.75  51 2.75  30 2.75  54 2.75
  49  0.833  0.500  0.167-   8 2.61  26 2.61  23 2.61   5 2.61  25 2.61   7 2.61  22 2.61   4 2.61
                            40 2.75  46 2.75  52 2.75  31 2.75
  50  0.833  0.500  0.500-   9 2.61  27 2.61  24 2.61   6 2.61  26 2.61   8 2.61  23 2.61   5 2.61
                            41 2.75  47 2.75  53 2.75  32 2.75
  51  0.833  0.500  0.833-   7 2.61   9 2.61  25 2.61  27 2.61  22 2.61  24 2.61   4 2.61   6 2.61
                            42 2.75  48 2.75  54 2.75  33 2.75
  52  0.833  0.833  0.167-   2 2.61   8 2.61  20 2.61  26 2.61  19 2.61   7 2.61  25 2.61   1 2.61
                            43 2.75  49 2.75  46 2.75  34 2.75
  53  0.833  0.833  0.500-   3 2.61   9 2.61  21 2.61  27 2.61  20 2.61   8 2.61  26 2.61   2 2.61
                            44 2.75  50 2.75  47 2.75  35 2.75
  54  0.833  0.833  0.833-   1 2.61   3 2.61   7 2.61   9 2.61  19 2.61  21 2.61  25 2.61  27 2.61
                            45 2.75  51 2.75  48 2.75  36 2.75
 
  LATTYP: Found a simple tetragonal cell.
 ALAT       =     8.2501481662
 C/A-ratio  =     1.2642089792
  
  Lattice vectors:
  
 A1 = (   8.2501481662,   0.0000000000,   0.0000000000)
 A2 = (   0.0000000000,   8.2501481662,   0.0000000000)
 A3 = (   0.0000000000,   0.0000000000,  10.4299113916)


Analysis of symmetry for initial positions (statically):
=====================================================================
 Subroutine PRICEL returns following result:
 
  LATTYP: Found a simple tetragonal cell.
 ALAT       =     2.7500493888
 C/A-ratio  =     1.2642089792
  
  Lattice vectors:
  
 A1 = (   2.7500493888,   0.0000000000,   0.0000000000)
 A2 = (   0.0000000000,   2.7500493888,   0.0000000000)
 A3 = (   0.0000000000,   0.0000000000,   3.4766371306)
 
  27 primitive cells build up your supercell.
 

 Routine SETGRP: Setting up the symmetry group for a 
 simple tetragonal supercell.


 Subroutine GETGRP returns: Found 16 space group operations
 (whereof 16 operations were pure point group operations)
 out of a pool of 16 trial point group operations.


The static configuration has the point symmetry D_4h.


Analysis of symmetry for dynamics (positions and initial velocities):
=====================================================================
 Subroutine PRICEL returns following result:
 
  LATTYP: Found a simple tetragonal cell.
 ALAT       =     2.7500493888
 C/A-ratio  =     1.2642089792
  
  Lattice vectors:
  
 A1 = (   2.7500493888,   0.0000000000,   0.0000000000)
 A2 = (   0.0000000000,   2.7500493888,   0.0000000000)
 A3 = (   0.0000000000,   0.0000000000,   3.4766371306)
 
  27 primitive cells build up your supercell.
 

 Routine SETGRP: Setting up the symmetry group for a 
 simple tetragonal supercell.


 Subroutine GETGRP returns: Found 16 space group operations
 (whereof 16 operations were pure point group operations)
 out of a pool of 16 trial point group operations.


The dynamic configuration has the point symmetry D_4h.


Analysis of structural, dynamic, and magnetic symmetry:
=====================================================================
 Subroutine PRICEL returns:
 Original cell was already a primitive cell.
 

 Routine SETGRP: Setting up the symmetry group for a 
 simple tetragonal supercell.


 Subroutine GETGRP returns: Found  8 space group operations
 (whereof  2 operations were pure point group operations)
 out of a pool of 16 trial point group operations.


The magnetic configuration has the point symmetry C_1h.
 The point group associated with its full space group is C_4v.


 Subroutine INISYM returns: Found  8 space group operations
 (whereof  2 operations are pure point group operations),
 and found     1 'primitive' translations

 
 
 KPOINTS: automatic KPOINTS                       

Automatic generation of k-mesh.
 generate k-points for:    5    5    4
Space group operators:
 irot       det(A)        alpha          n_x          n_y          n_z        tau_x        tau_y        tau_z
    1     1.000000     0.000001     1.000000     0.000000     0.000000     0.000000     0.000000     0.000000
    2    -1.000000   180.000000     0.707107    -0.707107     0.000000     0.000000     0.000000     0.000000
    3     1.000000    90.000000     0.000000     0.000000    -1.000000     0.666667     0.000000     0.000000
    4     1.000000   180.000000     0.000000     0.000000     1.000000     0.666667     0.666667     0.000000
    5     1.000000    90.000000     0.000000     0.000000     1.000000     0.000000     0.666667     0.000000
    6    -1.000000   180.000000     0.000000     1.000000     0.000000     0.000000     0.666667     0.000000
    7    -1.000000   180.000000     0.707107     0.707107     0.000000     0.666667     0.666667     0.000000
    8    -1.000000   180.000000     1.000000     0.000000     0.000000     0.666667     0.000000     0.000000
 
 Subroutine IBZKPT returns following result:
 ===========================================
 
 Found     18 irreducible k-points:
 
 Following reciprocal coordinates:
            Coordinates               Weight
  0.000000  0.000000  0.000000      1.000000
  0.200000  0.000000  0.000000      4.000000
  0.400000  0.000000  0.000000      4.000000
  0.200000  0.200000  0.000000      4.000000
  0.400000  0.200000  0.000000      8.000000
  0.400000  0.400000  0.000000      4.000000
  0.000000  0.000000  0.250000      2.000000
  0.200000  0.000000  0.250000      8.000000
  0.400000  0.000000  0.250000      8.000000
  0.200000  0.200000  0.250000      8.000000
  0.400000  0.200000  0.250000     16.000000
  0.400000  0.400000  0.250000      8.000000
  0.000000  0.000000  0.500000      1.000000
  0.200000  0.000000  0.500000      4.000000
  0.400000  0.000000  0.500000      4.000000
  0.200000  0.200000  0.500000      4.000000
  0.400000  0.200000  0.500000      8.000000
  0.400000  0.400000  0.500000      4.000000
 
 Following cartesian coordinates:
            Coordinates               Weight
  0.000000  0.000000  0.000000      1.000000
  0.024242  0.000000  0.000000      4.000000
  0.048484  0.000000  0.000000      4.000000
  0.024242  0.024242  0.000000      4.000000
  0.048484  0.024242  0.000000      8.000000
  0.048484  0.048484  0.000000      4.000000
  0.000000  0.000000  0.023970      2.000000
  0.024242  0.000000  0.023970      8.000000
  0.048484  0.000000  0.023970      8.000000
  0.024242  0.024242  0.023970      8.000000
  0.048484  0.024242  0.023970     16.000000
  0.048484  0.048484  0.023970      8.000000
  0.000000  0.000000  0.047939      1.000000
  0.024242  0.000000  0.047939      4.000000
  0.048484  0.000000  0.047939      4.000000
  0.024242  0.024242  0.047939      4.000000
  0.048484  0.024242  0.047939      8.000000
  0.048484  0.048484  0.047939      4.000000
 


--------------------------------------------------------------------------------------------------------




 Dimension of arrays:
   k-points           NKPTS =     18   k-points in BZ     NKDIM =     18   number of bands    NBANDS=    174
   number of dos      NEDOS =    301   number of ions     NIONS =     54
   non local maximal  LDIM  =      6   non local SUM 2l+1 LMDIM =     18
   total plane-waves  NPLWV = 204120
   max r-space proj   IRMAX =      1   max aug-charges    IRDMAX=  89713
   dimension x,y,z NGX =    54 NGY =   54 NGZ =   70
   dimension x,y,z NGXF=   108 NGYF=  108 NGZF=  140
   support grid    NGXF=   216 NGYF=  216 NGZF=  280
   ions per type =              27  27
   NGX,Y,Z   is equivalent  to a cutoff of  10.88, 10.88, 11.16 a.u.
   NGXF,Y,Z  is equivalent  to a cutoff of  21.76, 21.76, 22.32 a.u.

 SYSTEM =  AlMn_pv                                 
 POSCAR =  NewRef: 27, @ ['Mn', array([1.37502469, 

 Startparameter for this run:
   NWRITE =      2    write-flag & timer
   PREC   = accura    normal or accurate (medium, high low for compatibility)
   ISTART =      0    job   : 0-new  1-cont  2-samecut
   ICHARG =      2    charge: 1-file 2-atom 10-const
   ISPIN  =      2    spin polarized calculation?
   LNONCOLLINEAR =      F non collinear calculations
   LSORBIT =      F    spin-orbit coupling
   INIWAV =      1    electr: 0-lowe 1-rand  2-diag
   LASPH  =      F    aspherical Exc in radial PAW
   METAGGA=      F    non-selfconsistent MetaGGA calc.

 Electronic Relaxation 1
   ENCUT  =  404.8 eV  29.75 Ry    5.45 a.u.  13.53 13.53 17.11*2*pi/ulx,y,z
   ENINI  =  404.8     initial cutoff
   ENAUG  =  500.7 eV  augmentation charge cutoff
   NELM   =    100;   NELMIN=  4; NELMDL= -8     # of ELM steps 
   EDIFF  = 0.1E-06   stopping-criterion for ELM
   LREAL  =      F    real-space projection
   NLSPLINE    = F    spline interpolate recip. space projectors
   LCOMPAT=      F    compatible to vasp.4.4
   GGA_COMPAT  = T    GGA compatible to vasp.4.4-vasp.4.6
   LMAXPAW     = -100 max onsite density
   LMAXMIX     =    2 max onsite mixed and CHGCAR
   VOSKOWN=      0    Vosko Wilk Nusair interpolation
   ROPT   =    0.00000   0.00000
 Ionic relaxation
   EDIFFG = 0.1E-05   stopping-criterion for IOM
   NSW    =      0    number of steps for IOM
   NBLOCK =      1;   KBLOCK =      1    inner block; outer block 
   IBRION =     -1    ionic relax: 0-MD 1-quasi-New 2-CG
   NFREE  =      0    steps in history (QN), initial steepest desc. (CG)
   ISIF   =      2    stress and relaxation
   IWAVPR =     10    prediction:  0-non 1-charg 2-wave 3-comb
   ISYM   =      2    0-nonsym 1-usesym 2-fastsym
   LCORR  =      T    Harris-Foulkes like correction to forces

   POTIM  = 0.2000    time-step for ionic-motion
   TEIN   =    0.0    initial temperature
   TEBEG  =    0.0;   TEEND  =   0.0 temperature during run
   SMASS  =  -3.00    Nose mass-parameter (am)
   estimated Nose-frequenzy (Omega)   =  0.10E-29 period in steps =****** mass=  -0.156E-26a.u.
   SCALEE = 1.0000    scale energy and forces
   NPACO  =    256;   APACO  = 16.0  distance and # of slots for P.C.
   PSTRESS=    0.0 pullay stress

  Mass of Ions in am
   POMASS =  26.98 54.94
  Ionic Valenz
   ZVAL   =   3.00  7.00
  Atomic Wigner-Seitz radii
   RWIGS  =  -1.00 -1.00
  virtual crystal weights 
   VCA    =   1.00  1.00
   NELECT =     270.0000    total number of electrons
   NUPDOWN=      -1.0000    fix difference up-down

 DOS related values:
   EMIN   =  10.00;   EMAX   =-10.00  energy-range for DOS
   EFERMI =   0.00
   ISMEAR =     1;   SIGMA  =   0.20  broadening in eV -4-tet -1-fermi 0-gaus

 Electronic relaxation 2 (details)
   IALGO  =     58    algorithm
   LDIAG  =      T    sub-space diagonalisation (order eigenvalues)
   LSUBROT=      F    optimize rotation matrix (better conditioning)
   TURBO    =      0    0=normal 1=particle mesh
   IRESTART =      0    0=no restart 2=restart with 2 vectors
   NREBOOT  =      0    no. of reboots
   NMIN     =      0    reboot dimension
   EREF     =   0.00    reference energy to select bands
   IMIX   =      4    mixing-type and parameters
     AMIX     =   0.40;   BMIX     =  1.00
     AMIX_MAG =   1.60;   BMIX_MAG =  1.00
     AMIN     =   0.10
     WC   =   100.;   INIMIX=   1;  MIXPRE=   1;  MAXMIX= -45

 Intra band minimization:
   WEIMIN = 0.0000     energy-eigenvalue tresh-hold
   EBREAK =  0.14E-09  absolut break condition
   DEPER  =   0.30     relativ break condition  

   TIME   =   0.40     timestep for ELM

  volume/ion in A,a.u.               =      13.15        88.72
  Fermi-wavevector in a.u.,A,eV,Ry     =   1.186118  2.241439 19.141722  1.406877
  Thomas-Fermi vector in A             =   2.322298
 
 Write flags
   LWAVE        =      F    write WAVECAR
   LDOWNSAMPLE  =      F    k-point downsampling of WAVECAR
   LCHARG       =      F    write CHGCAR
   LVTOT        =      F    write LOCPOT, total local potential
   LVHAR        =      F    write LOCPOT, Hartree potential only
   LELF         =      F    write electronic localiz. function (ELF)
   LORBIT       =     10    0 simple, 1 ext, 2 COOP (PROOUT), +10 PAW based schemes


 Dipole corrections
   LMONO  =      F    monopole corrections only (constant potential shift)
   LDIPOL =      F    correct potential (dipole corrections)
   IDIPOL =      0    1-x, 2-y, 3-z, 4-all directions 
   EPSILON=  1.0000000 bulk dielectric constant

 Exchange correlation treatment:
   GGA     =    --    GGA type
   LEXCH   =     8    internal setting for exchange type
   VOSKOWN=      0    Vosko Wilk Nusair interpolation
   LHFCALC =     F    Hartree Fock is set to
   LHFONE  =     F    Hartree Fock one center treatment
   AEXX    =    0.0000 exact exchange contribution

 Linear response parameters
   LEPSILON=     F    determine dielectric tensor
   LRPA    =     F    only Hartree local field effects (RPA)
   LNABLA  =     F    use nabla operator in PAW spheres
   LVEL    =     F    velocity operator in full k-point grid
   LINTERFAST=   F  fast interpolation
   KINTER  =     0    interpolate to denser k-point grid
   CSHIFT  =0.1000    complex shift for real part using Kramers Kronig
   OMEGAMAX=  -1.0    maximum frequency
   DEG_THRESHOLD= 0.2000000E-02 threshold for treating states as degnerate
   RTIME   =   -0.100 relaxation time in fs
  (WPLASMAI=    0.000 imaginary part of plasma frequency in eV, 0.658/RTIME)
   DFIELD  = 0.0000000 0.0000000 0.0000000 field for delta impulse in time
 
 Orbital magnetization related:
   ORBITALMAG=     F  switch on orbital magnetization
   LCHIMAG   =     F  perturbation theory with respect to B field
   DQ        =  0.001000  dq finite difference perturbation B field
   LLRAUG    =     F  two centre corrections for induced B field



--------------------------------------------------------------------------------------------------------


 Static calculation
 charge density and potential will be updated during run
 spin polarized calculation
 Conjugate gradient for all bands (Freysoldt, et al. PRB 79, 241103 (2009))
 preconditioned conjugated gradient                                        
 perform sub-space diagonalisation
    before iterative eigenvector-optimisation
 modified Broyden-mixing scheme, WC =      100.0
 initial mixing is a Kerker type mixing with AMIX =  0.4000 and BMIX =      1.0000
 Hartree-type preconditioning will be used
 using additional bands           39
 reciprocal scheme for non local part
 use partial core corrections
 no Harris-corrections to forces 
 use gradient corrections 
 use of overlap-Matrix (Vanderbilt PP)
 Methfessel and Paxton  Order N= 1 SIGMA  =   0.20


--------------------------------------------------------------------------------------------------------


  energy-cutoff  :      404.80
  volume of cell :      709.91
      direct lattice vectors                 reciprocal lattice vectors
     8.250148166  0.000000000  0.000000000     0.121209944  0.000000000  0.000000000
     0.000000000  8.250148166  0.000000000     0.000000000  0.121209944  0.000000000
     0.000000000  0.000000000 10.429911392     0.000000000  0.000000000  0.095878092

  length of vectors
     8.250148166  8.250148166 10.429911392     0.121209944  0.121209944  0.095878092


 
 k-points in units of 2pi/SCALE and weight: automatic KPOINTS                       
   0.00000000  0.00000000  0.00000000       0.010
   0.02424199  0.00000000  0.00000000       0.040
   0.04848398  0.00000000  0.00000000       0.040
   0.02424199  0.02424199  0.00000000       0.040
   0.04848398  0.02424199  0.00000000       0.080
   0.04848398  0.04848398  0.00000000       0.040
   0.00000000  0.00000000  0.02396952       0.020
   0.02424199  0.00000000  0.02396952       0.080
   0.04848398  0.00000000  0.02396952       0.080
   0.02424199  0.02424199  0.02396952       0.080
   0.04848398  0.02424199  0.02396952       0.160
   0.04848398  0.04848398  0.02396952       0.080
   0.00000000  0.00000000  0.04793905       0.010
   0.02424199  0.00000000  0.04793905       0.040
   0.04848398  0.00000000  0.04793905       0.040
   0.02424199  0.02424199  0.04793905       0.040
   0.04848398  0.02424199  0.04793905       0.080
   0.04848398  0.04848398  0.04793905       0.040
 
 k-points in reciprocal lattice and weights: automatic KPOINTS                       
   0.00000000  0.00000000  0.00000000       0.010
   0.20000000  0.00000000  0.00000000       0.040
   0.40000000  0.00000000  0.00000000       0.040
   0.20000000  0.20000000  0.00000000       0.040
   0.40000000  0.20000000  0.00000000       0.080
   0.40000000  0.40000000  0.00000000       0.040
   0.00000000  0.00000000  0.25000000       0.020
   0.20000000  0.00000000  0.25000000       0.080
   0.40000000  0.00000000  0.25000000       0.080
   0.20000000  0.20000000  0.25000000       0.080
   0.40000000  0.20000000  0.25000000       0.160
   0.40000000  0.40000000  0.25000000       0.080
   0.00000000  0.00000000  0.50000000       0.010
   0.20000000  0.00000000  0.50000000       0.040
   0.40000000  0.00000000  0.50000000       0.040
   0.20000000  0.20000000  0.50000000       0.040
   0.40000000  0.20000000  0.50000000       0.080
   0.40000000  0.40000000  0.50000000       0.040
 
 position of ions in fractional coordinates (direct lattice) 
   0.00000000  0.00000000  0.00000000
   0.00000000  0.00000000  0.33333333
   0.00000000  0.00000000  0.66666667
   0.00000000  0.33333333  0.00000000
   0.00000000  0.33333333  0.33333333
   0.00000000  0.33333333  0.66666667
   0.00000000  0.66666667  0.00000000
   0.00000000  0.66666667  0.33333333
   0.00000000  0.66666667  0.66666667
   0.33333333  0.00000000  0.00000000
   0.33333333  0.00000000  0.33333333
   0.33333333  0.00000000  0.66666667
   0.33333333  0.33333333  0.00000000
   0.33333333  0.33333333  0.33333333
   0.33333333  0.33333333  0.66666667
   0.33333333  0.66666667  0.00000000
   0.33333333  0.66666667  0.33333333
   0.33333333  0.66666667  0.66666667
   0.66666667  0.00000000  0.00000000
   0.66666667  0.00000000  0.33333333
   0.66666667  0.00000000  0.66666667
   0.66666667  0.33333333  0.00000000
   0.66666667  0.33333333  0.33333333
   0.66666667  0.33333333  0.66666667
   0.66666667  0.66666667  0.00000000
   0.66666667  0.66666667  0.33333333
   0.66666667  0.66666667  0.66666667
   0.16666667  0.16666667  0.16666667
   0.16666667  0.16666667  0.50000000
   0.16666667  0.16666667  0.83333333
   0.16666667  0.50000000  0.16666667
   0.16666667  0.50000000  0.50000000
   0.16666667  0.50000000  0.83333333
   0.16666667  0.83333333  0.16666667
   0.16666667  0.83333333  0.50000000
   0.16666667  0.83333333  0.83333333
   0.50000000  0.16666667  0.16666667
   0.50000000  0.16666667  0.50000000
   0.50000000  0.16666667  0.83333333
   0.50000000  0.50000000  0.16666667
   0.50000000  0.50000000  0.50000000
   0.50000000  0.50000000  0.83333333
   0.50000000  0.83333333  0.16666667
   0.50000000  0.83333333  0.50000000
   0.50000000  0.83333333  0.83333333
   0.83333333  0.16666667  0.16666667
   0.83333333  0.16666667  0.50000000
   0.83333333  0.16666667  0.83333333
   0.83333333  0.50000000  0.16666667
   0.83333333  0.50000000  0.50000000
   0.83333333  0.50000000  0.83333333
   0.83333333  0.83333333  0.16666667
   0.83333333  0.83333333  0.50000000
   0.83333333  0.83333333  0.83333333
 
 position of ions in cartesian coordinates  (Angst):
   0.00000000  0.00000000  0.00000000
   0.00000000  0.00000000  3.47663713
   0.00000000  0.00000000  6.95327426
   0.00000000  2.75004939  0.00000000
   0.00000000  2.75004939  3.47663713
   0.00000000  2.75004939  6.95327426
   0.00000000  5.50009878  0.00000000
   0.00000000  5.50009878  3.47663713
   0.00000000  5.50009878  6.95327426
   2.75004939  0.00000000  0.00000000
   2.75004939  0.00000000  3.47663713
   2.75004939  0.00000000  6.95327426
   2.75004939  2.75004939  0.00000000
   2.75004939  2.75004939  3.47663713
   2.75004939  2.75004939  6.95327426
   2.75004939  5.50009878  0.00000000
   2.75004939  5.50009878  3.47663713
   2.75004939  5.50009878  6.95327426
   5.50009878  0.00000000  0.00000000
   5.50009878  0.00000000  3.47663713
   5.50009878  0.00000000  6.95327426
   5.50009878  2.75004939  0.00000000
   5.50009878  2.75004939  3.47663713
   5.50009878  2.75004939  6.95327426
   5.50009878  5.50009878  0.00000000
   5.50009878  5.50009878  3.47663713
   5.50009878  5.50009878  6.95327426
   1.37502469  1.37502469  1.73831857
   1.37502469  1.37502469  5.21495570
   1.37502469  1.37502469  8.69159283
   1.37502469  4.12507408  1.73831857
   1.37502469  4.12507408  5.21495570
   1.37502469  4.12507408  8.69159283
   1.37502469  6.87512347  1.73831857
   1.37502469  6.87512347  5.21495570
   1.37502469  6.87512347  8.69159283
   4.12507408  1.37502469  1.73831857
   4.12507408  1.37502469  5.21495570
   4.12507408  1.37502469  8.69159283
   4.12507408  4.12507408  1.73831857
   4.12507408  4.12507408  5.21495570
   4.12507408  4.12507408  8.69159283
   4.12507408  6.87512347  1.73831857
   4.12507408  6.87512347  5.21495570
   4.12507408  6.87512347  8.69159283
   6.87512347  1.37502469  1.73831857
   6.87512347  1.37502469  5.21495570
   6.87512347  1.37502469  8.69159283
   6.87512347  4.12507408  1.73831857
   6.87512347  4.12507408  5.21495570
   6.87512347  4.12507408  8.69159283
   6.87512347  6.87512347  1.73831857
   6.87512347  6.87512347  5.21495570
   6.87512347  6.87512347  8.69159283
 


--------------------------------------------------------------------------------------------------------


 k-point  1 :   0.0000 0.0000 0.0000  plane waves:   13099
 k-point  2 :   0.2000 0.0000 0.0000  plane waves:   13101
 k-point  3 :   0.4000 0.0000 0.0000  plane waves:   13111
 k-point  4 :   0.2000 0.2000 0.0000  plane waves:   13137
 k-point  5 :   0.4000 0.2000 0.0000  plane waves:   13119
 k-point  6 :   0.4000 0.4000 0.0000  plane waves:   13129
 k-point  7 :   0.0000 0.0000 0.2500  plane waves:   13134
 k-point  8 :   0.2000 0.0000 0.2500  plane waves:   13149
 k-point  9 :   0.4000 0.0000 0.2500  plane waves:   13119
 k-point 10 :   0.2000 0.2000 0.2500  plane waves:   13145
 k-point 11 :   0.4000 0.2000 0.2500  plane waves:   13134
 k-point 12 :   0.4000 0.4000 0.2500  plane waves:   13108
 k-point 13 :   0.0000 0.0000 0.5000  plane waves:   13186
 k-point 14 :   0.2000 0.0000 0.5000  plane waves:   13124
 k-point 15 :   0.4000 0.0000 0.5000  plane waves:   13152
 k-point 16 :   0.2000 0.2000 0.5000  plane waves:   13136
 k-point 17 :   0.4000 0.2000 0.5000  plane waves:   13128
 k-point 18 :   0.4000 0.4000 0.5000  plane waves:   13112

 maximum and minimum number of plane-waves per node :      3304     3246

 maximum number of plane-waves:     13186
 maximum index in each direction: 
   IXMAX=   13   IYMAX=   13   IZMAX=   17
   IXMIN=  -13   IYMIN=  -13   IZMIN=  -17


 parallel 3D FFT for wavefunctions:
    minimum data exchange during FFTs selected (reduces bandwidth)
 parallel 3D FFT for charge:
    minimum data exchange during FFTs selected (reduces bandwidth)


 total amount of memory used by VASP MPI-rank0   626513. kBytes
=======================================================================

   base      :      30000. kBytes
   nonl-proj :      19946. kBytes
   fftplans  :      31580. kBytes
   grid      :      21385. kBytes
   one-center:        435. kBytes
   wavefun   :     523167. kBytes
 
     INWAV:  cpu time    0.0000: real time    0.0000
 Broyden mixing: mesh for mixing (old mesh)
   NGX = 27   NGY = 27   NGZ = 35
  (NGX  =108   NGY  =108   NGZ  =140)
  gives a total of  25515 points

 initial charge density was supplied:
 charge density of overlapping atoms calculated
 number of electron     270.0000000 magnetization      21.0000000
 keeping initial charge density in first step


--------------------------------------------------------------------------------------------------------


 Maximum index for augmentation-charges        10967 (set IRDMAX)


--------------------------------------------------------------------------------------------------------


 First call to EWALD:  gamma=   0.199
 Maximum number of real-space cells 3x 3x 2
 Maximum number of reciprocal cells 3x 3x 3

    FEWALD:  cpu time    0.5264: real time    0.5610


--------------------------------------- Iteration      1(   1)  ---------------------------------------


    POTLOK:  cpu time    0.4093: real time    0.4417
    SETDIJ:  cpu time    0.4924: real time    0.4927
    TRIAL :  cpu time   21.7813: real time   21.9859
    CORREC:  cpu time    0.0038: real time    0.0047
    --------------------------------------------
      LOOP:  cpu time   22.8654: real time   23.1113

 eigenvalue-minimisations  : 12528
 total energy-change (2. order) : 0.2034074E+04  (-0.8848412E+04)
 number of electron     270.0000000 magnetization      21.0000000
 augmentation part      270.0000000 magnetization      21.0000000

 Free energy of the ion-electron system (eV)
  ---------------------------------------------------
  alpha Z        PSCENC =       798.38614055
  Ewald energy   TEWEN  =    -12901.57693327
  -Hartree energ DENC   =     -2855.60785864
  -exchange      EXHF   =         0.00000000
  -V(xc)+E(xc)   XCENC  =      -995.96582446
  PAW double counting   =     12741.82587617   -11476.22345381
  entropy T*S    EENTRO =        -0.00235074
  eigenvalues    EBANDS =      4025.56452491
  atomic energy  EATOM  =     12697.67401269
  ---------------------------------------------------
  free energy    TOTEN  =      2034.07413339 eV

  energy without entropy =     2034.07648413  energy(sigma->0) =     2034.07491697


--------------------------------------------------------------------------------------------------------




--------------------------------------- Iteration      1(   2)  ---------------------------------------


    TRIAL :  cpu time   21.8484: real time   22.0327
    CORREC:  cpu time    0.0048: real time    0.0049
    --------------------------------------------
      LOOP:  cpu time   21.8543: real time   22.0411

 eigenvalue-minimisations  : 12528
 total energy-change (2. order) :-0.2130718E+04  (-0.2072571E+04)
 number of electron     270.0000000 magnetization      21.0000000
 augmentation part      270.0000000 magnetization      21.0000000

 Free energy of the ion-electron system (eV)
  ---------------------------------------------------
  alpha Z        PSCENC =       798.38614055
  Ewald energy   TEWEN  =    -12901.57693327
  -Hartree energ DENC   =     -2855.60785864
  -exchange      EXHF   =         0.00000000
  -V(xc)+E(xc)   XCENC  =      -995.96582446
  PAW double counting   =     12741.82587617   -11476.22345381
  entropy T*S    EENTRO =        -0.00347601
  eigenvalues    EBANDS =      1894.84740032
  atomic energy  EATOM  =     12697.67401269
  ---------------------------------------------------
  free energy    TOTEN  =       -96.64411647 eV

  energy without entropy =      -96.64064046  energy(sigma->0) =      -96.64295780


--------------------------------------------------------------------------------------------------------




--------------------------------------- Iteration      1(   3)  ---------------------------------------


    TRIAL :  cpu time   30.9149: real time   31.2678
    CORREC:  cpu time    0.0055: real time    0.0060
    --------------------------------------------
      LOOP:  cpu time   30.9213: real time   31.2773

 eigenvalue-minimisations  : 18816
 total energy-change (2. order) :-0.2604439E+03  (-0.2294165E+03)
 number of electron     270.0000000 magnetization      21.0000000
 augmentation part      270.0000000 magnetization      21.0000000

 Free energy of the ion-electron system (eV)
  ---------------------------------------------------
  alpha Z        PSCENC =       798.38614055
  Ewald energy   TEWEN  =    -12901.57693327
  -Hartree energ DENC   =     -2855.60785864
  -exchange      EXHF   =         0.00000000
  -V(xc)+E(xc)   XCENC  =      -995.96582446
  PAW double counting   =     12741.82587617   -11476.22345381
  entropy T*S    EENTRO =         0.02098301
  eigenvalues    EBANDS =      1634.37904348
  atomic energy  EATOM  =     12697.67401269
  ---------------------------------------------------
  free energy    TOTEN  =      -357.08801430 eV

  energy without entropy =     -357.10899730  energy(sigma->0) =     -357.09500863


--------------------------------------------------------------------------------------------------------




--------------------------------------- Iteration      1(   4)  ---------------------------------------


    TRIAL :  cpu time   32.0385: real time   32.2455
    CORREC:  cpu time    0.0059: real time    0.0067
    --------------------------------------------
      LOOP:  cpu time   32.0453: real time   32.2564

 eigenvalue-minimisations  : 20336
 total energy-change (2. order) :-0.4245023E+02  (-0.3723418E+02)
 number of electron     270.0000000 magnetization      21.0000000
 augmentation part      270.0000000 magnetization      21.0000000

 Free energy of the ion-electron system (eV)
  ---------------------------------------------------
  alpha Z        PSCENC =       798.38614055
  Ewald energy   TEWEN  =    -12901.57693327
  -Hartree energ DENC   =     -2855.60785864
  -exchange      EXHF   =         0.00000000
  -V(xc)+E(xc)   XCENC  =      -995.96582446
  PAW double counting   =     12741.82587617   -11476.22345381
  entropy T*S    EENTRO =         0.02327304
  eigenvalues    EBANDS =      1591.92652198
  atomic energy  EATOM  =     12697.67401269
  ---------------------------------------------------
  free energy    TOTEN  =      -399.53824576 eV

  energy without entropy =     -399.56151880  energy(sigma->0) =     -399.54600344


--------------------------------------------------------------------------------------------------------




--------------------------------------- Iteration      1(   5)  ---------------------------------------


    TRIAL :  cpu time   32.6974: real time   33.3421
    CORREC:  cpu time    0.0059: real time    0.0060
    --------------------------------------------
      LOOP:  cpu time   32.7060: real time   33.3512

 eigenvalue-minimisations  : 20640
 total energy-change (2. order) :-0.4354209E+01  (-0.4173201E+01)
 number of electron     270.0000000 magnetization      21.0000000
 augmentation part      270.0000000 magnetization      21.0000000

 Free energy of the ion-electron system (eV)
  ---------------------------------------------------
  alpha Z        PSCENC =       798.38614055
  Ewald energy   TEWEN  =    -12901.57693327
  -Hartree energ DENC   =     -2855.60785864
  -exchange      EXHF   =         0.00000000
  -V(xc)+E(xc)   XCENC  =      -995.96582446
  PAW double counting   =     12741.82587617   -11476.22345381
  entropy T*S    EENTRO =         0.02663745
  eigenvalues    EBANDS =      1587.56894880
  atomic energy  EATOM  =     12697.67401269
  ---------------------------------------------------
  free energy    TOTEN  =      -403.89245453 eV

  energy without entropy =     -403.91909198  energy(sigma->0) =     -403.90133368


--------------------------------------------------------------------------------------------------------




--------------------------------------- Iteration      1(   6)  ---------------------------------------


    TRIAL :  cpu time   32.2241: real time   32.5450
    CORREC:  cpu time    0.0060: real time    0.0068
    --------------------------------------------
      LOOP:  cpu time   32.2311: real time   32.5555

 eigenvalue-minimisations  : 20584
 total energy-change (2. order) :-0.3667104E+00  (-0.3598052E+00)
 number of electron     270.0000000 magnetization      21.0000000
 augmentation part      270.0000000 magnetization      21.0000000

 Free energy of the ion-electron system (eV)
  ---------------------------------------------------
  alpha Z        PSCENC =       798.38614055
  Ewald energy   TEWEN  =    -12901.57693327
  -Hartree energ DENC   =     -2855.60785864
  -exchange      EXHF   =         0.00000000
  -V(xc)+E(xc)   XCENC  =      -995.96582446
  PAW double counting   =     12741.82587617   -11476.22345381
  entropy T*S    EENTRO =         0.02797440
  eigenvalues    EBANDS =      1587.20090150
  atomic energy  EATOM  =     12697.67401269
  ---------------------------------------------------
  free energy    TOTEN  =      -404.25916488 eV

  energy without entropy =     -404.28713929  energy(sigma->0) =     -404.26848969


--------------------------------------------------------------------------------------------------------




--------------------------------------- Iteration      1(   7)  ---------------------------------------


    TRIAL :  cpu time   33.6935: real time   34.0003
    CORREC:  cpu time    0.0060: real time    0.0068
    --------------------------------------------
      LOOP:  cpu time   33.7005: real time   34.0105

 eigenvalue-minimisations  : 20992
 total energy-change (2. order) :-0.4194671E-01  (-0.4156898E-01)
 number of electron     270.0000000 magnetization      21.0000000
 augmentation part      270.0000000 magnetization      21.0000000

 Free energy of the ion-electron system (eV)
  ---------------------------------------------------
  alpha Z        PSCENC =       798.38614055
  Ewald energy   TEWEN  =    -12901.57693327
  -Hartree energ DENC   =     -2855.60785864
  -exchange      EXHF   =         0.00000000
  -V(xc)+E(xc)   XCENC  =      -995.96582446
  PAW double counting   =     12741.82587617   -11476.22345381
  entropy T*S    EENTRO =         0.02835900
  eigenvalues    EBANDS =      1587.15857019
  atomic energy  EATOM  =     12697.67401269
  ---------------------------------------------------
  free energy    TOTEN  =      -404.30111160 eV

  energy without entropy =     -404.32947060  energy(sigma->0) =     -404.31056460


--------------------------------------------------------------------------------------------------------




--------------------------------------- Iteration      1(   8)  ---------------------------------------


    TRIAL :  cpu time   32.8268: real time   33.1547
    CORREC:  cpu time    0.0060: real time    0.0060
    CHARGE:  cpu time    1.2513: real time    1.2616
    --------------------------------------------
      LOOP:  cpu time   34.0856: real time   34.4272

 eigenvalue-minimisations  : 20200
 total energy-change (2. order) :-0.3491096E-02  (-0.3470770E-02)
 number of electron     269.9999995 magnetization      14.5119862
 augmentation part       64.2494728 magnetization       8.4041576

 Free energy of the ion-electron system (eV)
  ---------------------------------------------------
  alpha Z        PSCENC =       798.38614055
  Ewald energy   TEWEN  =    -12901.57693327
  -Hartree energ DENC   =     -2855.60785864
  -exchange      EXHF   =         0.00000000
  -V(xc)+E(xc)   XCENC  =      -995.96582446
  PAW double counting   =     12741.82587617   -11476.22345381
  entropy T*S    EENTRO =         0.02843129
  eigenvalues    EBANDS =      1587.15500680
  atomic energy  EATOM  =     12697.67401269
  ---------------------------------------------------
  free energy    TOTEN  =      -404.30460269 eV

  energy without entropy =     -404.33303398  energy(sigma->0) =     -404.31407979


--------------------------------------------------------------------------------------------------------




--------------------------------------- Iteration      1(   9)  ---------------------------------------


    POTLOK:  cpu time    0.3958: real time    0.3958
    SETDIJ:  cpu time    0.5020: real time    0.5428
    TRIAL :  cpu time   11.1273: real time   11.1926
    CORREC:  cpu time    4.0097: real time    4.0705
    CHARGE:  cpu time    1.2490: real time    1.2511
    --------------------------------------------
      LOOP:  cpu time   17.3045: real time   17.4753

 eigenvalue-minimisations  :     0
 total energy-change (2. order) : 0.2985139E+03  (-0.2173191E+03)
 number of electron     269.9999993 magnetization      15.4918944
 augmentation part       82.6689547 magnetization      10.2879383

 Free energy of the ion-electron system (eV)
  ---------------------------------------------------
  alpha Z        PSCENC =       798.38614055
  Ewald energy   TEWEN  =    -12901.57693327
  -Hartree energ DENC   =     -1274.59660463
  -exchange      EXHF   =         0.00000000
  -V(xc)+E(xc)   XCENC  =     -1041.52092597
  PAW double counting   =     19174.49256368   -17755.06575487
  entropy T*S    EENTRO =         0.01921950
  eigenvalues    EBANDS =       196.38833238
  atomic energy  EATOM  =     12697.67401269
  ---------------------------------------------------
  free energy    TOTEN  =      -105.79073816 eV

  energy without entropy =     -105.80995766  energy(sigma->0) =     -105.79714466


--------------------------------------------------------------------------------------------------------




--------------------------------------- Iteration      1(  10)  ---------------------------------------


    POTLOK:  cpu time    0.3915: real time    0.3915
    SETDIJ:  cpu time    0.4922: real time    0.4922
    TRIAL :  cpu time   11.1367: real time   11.1883
    CORREC:  cpu time    3.9765: real time    4.0335
    CHARGE:  cpu time    1.2594: real time    1.2705
    --------------------------------------------
      LOOP:  cpu time   17.2624: real time   17.3833

 eigenvalue-minimisations  :     0
 total energy-change (2. order) :-0.2131839E+03  (-0.1186018E+02)
 number of electron     269.9999993 magnetization      15.7464509
 augmentation part       86.3435848 magnetization      10.5799295

 Free energy of the ion-electron system (eV)
  ---------------------------------------------------
  alpha Z        PSCENC =       798.38614055
  Ewald energy   TEWEN  =    -12901.57693327
  -Hartree energ DENC   =     -2116.90829988
  -exchange      EXHF   =         0.00000000
  -V(xc)+E(xc)   XCENC  =     -1012.03191446
  PAW double counting   =     20688.14423730   -19451.38661057
  entropy T*S    EENTRO =         0.00823053
  eigenvalues    EBANDS =       978.70555415
  atomic energy  EATOM  =     12697.67401269
  ---------------------------------------------------
  free energy    TOTEN  =      -318.97459398 eV

  energy without entropy =     -318.98282451  energy(sigma->0) =     -318.97733749


--------------------------------------------------------------------------------------------------------




--------------------------------------- Iteration      1(  11)  ---------------------------------------


    POTLOK:  cpu time    0.3928: real time    0.4028
    SETDIJ:  cpu time    0.4782: real time    0.4782
    TRIAL :  cpu time   11.2144: real time   11.2773
    CORREC:  cpu time    4.0408: real time    4.0600
    CHARGE:  cpu time    1.2346: real time    1.2600
    --------------------------------------------
      LOOP:  cpu time   17.3723: real time   17.4906

 eigenvalue-minimisations  :     0
 total energy-change (2. order) :-0.1121351E+02  (-0.1112774E+02)
 number of electron     269.9999993 magnetization      15.9539438
 augmentation part       88.9977025 magnetization      11.0445319

 Free energy of the ion-electron system (eV)
  ---------------------------------------------------
  alpha Z        PSCENC =       798.38614055
  Ewald energy   TEWEN  =    -12901.57693327
  -Hartree energ DENC   =     -2335.94838001
  -exchange      EXHF   =         0.00000000
  -V(xc)+E(xc)   XCENC  =     -1003.91036206
  PAW double counting   =     21534.13960223   -20333.60210643
  entropy T*S    EENTRO =         0.00191722
  eigenvalues    EBANDS =      1214.64169475
  atomic energy  EATOM  =     12697.67401269
  ---------------------------------------------------
  free energy    TOTEN  =      -330.18810103 eV

  energy without entropy =     -330.19001825  energy(sigma->0) =     -330.18874010


--------------------------------------------------------------------------------------------------------




--------------------------------------- Iteration      1(  12)  ---------------------------------------


    POTLOK:  cpu time    0.3895: real time    0.3905
    SETDIJ:  cpu time    0.4230: real time    0.4991
    TRIAL :  cpu time   12.8115: real time   12.9196
    CORREC:  cpu time    4.0005: real time    4.0214
    CHARGE:  cpu time    1.2612: real time    1.2612
    --------------------------------------------
      LOOP:  cpu time   18.8930: real time   19.1008

 eigenvalue-minimisations  :     0
 total energy-change (2. order) :-0.1133614E+02  (-0.1198724E+02)
 number of electron     269.9999993 magnetization      16.3157853
 augmentation part       86.7872195 magnetization      11.3021156

 Free energy of the ion-electron system (eV)
  ---------------------------------------------------
  alpha Z        PSCENC =       798.38614055
  Ewald energy   TEWEN  =    -12901.57693327
  -Hartree energ DENC   =     -2546.63202493
  -exchange      EXHF   =         0.00000000
  -V(xc)+E(xc)   XCENC  =      -996.75238510
  PAW double counting   =     21847.24444836   -20660.61570491
  entropy T*S    EENTRO =        -0.02619505
  eigenvalues    EBANDS =      1420.74628455
  atomic energy  EATOM  =     12697.67401269
  ---------------------------------------------------
  free energy    TOTEN  =      -341.52424484 eV

  energy without entropy =     -341.49804979  energy(sigma->0) =     -341.51551315


--------------------------------------------------------------------------------------------------------




--------------------------------------- Iteration      1(  13)  ---------------------------------------


    POTLOK:  cpu time    0.3938: real time    0.4100
    SETDIJ:  cpu time    0.4475: real time    0.4475
    TRIAL :  cpu time   11.1557: real time   11.2486
    CORREC:  cpu time    3.9804: real time    3.9897
    CHARGE:  cpu time    1.2509: real time    1.2510
    --------------------------------------------
      LOOP:  cpu time   17.2470: real time   17.3665

 eigenvalue-minimisations  :     0
 total energy-change (2. order) :-0.1192446E+02  (-0.8718576E+00)
 number of electron     269.9999993 magnetization      16.6191839
 augmentation part       86.2670937 magnetization      11.3239801

 Free energy of the ion-electron system (eV)
  ---------------------------------------------------
  alpha Z        PSCENC =       798.38614055
  Ewald energy   TEWEN  =    -12901.57693327
  -Hartree energ DENC   =     -2519.55853896
  -exchange      EXHF   =         0.00000000
  -V(xc)+E(xc)   XCENC  =      -998.63061803
  PAW double counting   =     21227.66060573   -19989.58948470
  entropy T*S    EENTRO =        -0.02846017
  eigenvalues    EBANDS =      1332.21230439
  atomic energy  EATOM  =     12697.67401269
  ---------------------------------------------------
  free energy    TOTEN  =      -353.44870666 eV

  energy without entropy =     -353.42024649  energy(sigma->0) =     -353.43921993


--------------------------------------------------------------------------------------------------------




--------------------------------------- Iteration      1(  14)  ---------------------------------------


    POTLOK:  cpu time    0.3907: real time    0.3907
    SETDIJ:  cpu time    0.4727: real time    0.4795
    TRIAL :  cpu time   11.0919: real time   11.2142
    CORREC:  cpu time    4.0773: real time    4.1089
    CHARGE:  cpu time    1.2498: real time    1.2721
    --------------------------------------------
      LOOP:  cpu time   17.2867: real time   17.4707

 eigenvalue-minimisations  :     0
 total energy-change (2. order) :-0.8665771E+00  (-0.1254742E+01)
 number of electron     269.9999993 magnetization      16.5937049
 augmentation part       85.9898434 magnetization      11.2545244

 Free energy of the ion-electron system (eV)
  ---------------------------------------------------
  alpha Z        PSCENC =       798.38614055
  Ewald energy   TEWEN  =    -12901.57693327
  -Hartree energ DENC   =     -2491.62740922
  -exchange      EXHF   =         0.00000000
  -V(xc)+E(xc)   XCENC  =      -999.66087052
  PAW double counting   =     20897.31261894   -19650.31559535
  entropy T*S    EENTRO =        -0.02983186
  eigenvalues    EBANDS =      1295.52121257
  atomic energy  EATOM  =     12697.67401269
  ---------------------------------------------------
  free energy    TOTEN  =      -354.31528379 eV

  energy without entropy =     -354.28545193  energy(sigma->0) =     -354.30533983


--------------------------------------------------------------------------------------------------------




--------------------------------------- Iteration      1(  15)  ---------------------------------------


    POTLOK:  cpu time    0.3904: real time    0.3904
    SETDIJ:  cpu time    0.4612: real time    0.4652
    TRIAL :  cpu time   12.1683: real time   12.2985
    CORREC:  cpu time    4.0021: real time    4.0707
    CHARGE:  cpu time    1.5966: real time    1.6048
    --------------------------------------------
      LOOP:  cpu time   18.6201: real time   18.8316

 eigenvalue-minimisations  :     0
 total energy-change (2. order) :-0.1253510E+01  (-0.5210852E+00)
 number of electron     269.9999992 magnetization      16.6129514
 augmentation part       86.6090805 magnetization      11.2997950

 Free energy of the ion-electron system (eV)
  ---------------------------------------------------
  alpha Z        PSCENC =       798.38614055
  Ewald energy   TEWEN  =    -12901.57693327
  -Hartree energ DENC   =     -2462.39156924
  -exchange      EXHF   =         0.00000000
  -V(xc)+E(xc)   XCENC  =     -1000.67636076
  PAW double counting   =     20057.89568029   -18801.88237971
  entropy T*S    EENTRO =        -0.03286855
  eigenvalues    EBANDS =      1257.03244703
  atomic energy  EATOM  =     12697.67401269
  ---------------------------------------------------
  free energy    TOTEN  =      -355.56879428 eV

  energy without entropy =     -355.53592573  energy(sigma->0) =     -355.55783810


--------------------------------------------------------------------------------------------------------




--------------------------------------- Iteration      1(  16)  ---------------------------------------


    POTLOK:  cpu time    0.3900: real time    0.3900
    SETDIJ:  cpu time    0.4616: real time    0.4616
    TRIAL :  cpu time   11.0744: real time   11.1790
    CORREC:  cpu time    4.0065: real time    4.0286
    CHARGE:  cpu time    1.2279: real time    1.2505
    --------------------------------------------
      LOOP:  cpu time   17.8941: real time   18.0448

 eigenvalue-minimisations  :     0
 total energy-change (2. order) :-0.5199967E+00  (-0.2386540E+00)
 number of electron     269.9999992 magnetization      16.7368816
 augmentation part       87.1290654 magnetization      11.3990178

 Free energy of the ion-electron system (eV)
  ---------------------------------------------------
  alpha Z        PSCENC =       798.38614055
  Ewald energy   TEWEN  =    -12901.57693327
  -Hartree energ DENC   =     -2486.28046523
  -exchange      EXHF   =         0.00000000
  -V(xc)+E(xc)   XCENC  =      -999.68470315
  PAW double counting   =     19756.19863558   -18504.81214912
  entropy T*S    EENTRO =        -0.03210726
  eigenvalues    EBANDS =      1284.03953955
  atomic energy  EATOM  =     12697.67401269
  ---------------------------------------------------
  free energy    TOTEN  =      -356.08879095 eV

  energy without entropy =     -356.05668369  energy(sigma->0) =     -356.07808853


--------------------------------------------------------------------------------------------------------




--------------------------------------- Iteration      1(  17)  ---------------------------------------


    POTLOK:  cpu time    0.3907: real time    0.3907
    SETDIJ:  cpu time    0.4820: real time    0.4845
    TRIAL :  cpu time   11.1231: real time   11.2356
    CORREC:  cpu time    4.0210: real time    4.0366
    CHARGE:  cpu time    1.2860: real time    1.2896
    --------------------------------------------
      LOOP:  cpu time   17.3150: real time   17.4495

 eigenvalue-minimisations  :     0
 total energy-change (2. order) :-0.2405267E+00  (-0.2537066E+00)
 number of electron     269.9999992 magnetization      16.7976931
 augmentation part       87.2778378 magnetization      11.5510504

 Free energy of the ion-electron system (eV)
  ---------------------------------------------------
  alpha Z        PSCENC =       798.38614055
  Ewald energy   TEWEN  =    -12901.57693327
  -Hartree energ DENC   =     -2509.38620396
  -exchange      EXHF   =         0.00000000
  -V(xc)+E(xc)   XCENC  =      -998.72269113
  PAW double counting   =     19646.87934365   -18400.40397937
  entropy T*S    EENTRO =        -0.03209373
  eigenvalues    EBANDS =      1310.85310046
  atomic energy  EATOM  =     12697.67401269
  ---------------------------------------------------
  free energy    TOTEN  =      -356.32931764 eV

  energy without entropy =     -356.29722391  energy(sigma->0) =     -356.31861973


--------------------------------------------------------------------------------------------------------




--------------------------------------- Iteration      1(  18)  ---------------------------------------


    POTLOK:  cpu time    0.3911: real time    0.3911
    SETDIJ:  cpu time    0.5184: real time    0.5184
    TRIAL :  cpu time   11.1905: real time   11.2929
    CORREC:  cpu time    4.9142: real time    5.0204
    CHARGE:  cpu time    1.2605: real time    1.2703
    --------------------------------------------
      LOOP:  cpu time   18.2787: real time   18.4986

 eigenvalue-minimisations  :     0
 total energy-change (2. order) :-0.2537542E+00  (-0.1411247E+00)
 number of electron     269.9999992 magnetization      16.8405944
 augmentation part       87.0726192 magnetization      11.6392428

 Free energy of the ion-electron system (eV)
  ---------------------------------------------------
  alpha Z        PSCENC =       798.38614055
  Ewald energy   TEWEN  =    -12901.57693327
  -Hartree energ DENC   =     -2513.69015859
  -exchange      EXHF   =         0.00000000
  -V(xc)+E(xc)   XCENC  =      -998.19964731
  PAW double counting   =     19551.70667540   -18306.59586623
  entropy T*S    EENTRO =        -0.03252643
  eigenvalues    EBANDS =      1315.74479865
  atomic energy  EATOM  =     12697.67401269
  ---------------------------------------------------
  free energy    TOTEN  =      -356.58307185 eV

  energy without entropy =     -356.55054542  energy(sigma->0) =     -356.57222970


--------------------------------------------------------------------------------------------------------




--------------------------------------- Iteration      1(  19)  ---------------------------------------


    POTLOK:  cpu time    0.3897: real time    0.3898
    SETDIJ:  cpu time    0.4666: real time    0.4684
    TRIAL :  cpu time   11.1789: real time   11.2498
    CORREC:  cpu time    3.9264: real time    4.0220
    CHARGE:  cpu time    1.2499: real time    1.2499
    --------------------------------------------
      LOOP:  cpu time   17.2130: real time   17.3832

 eigenvalue-minimisations  :     0
 total energy-change (2. order) :-0.1407285E+00  (-0.6231824E-01)
 number of electron     269.9999992 magnetization      16.8975962
 augmentation part       86.8427298 magnetization      11.6870001

 Free energy of the ion-electron system (eV)
  ---------------------------------------------------
  alpha Z        PSCENC =       798.38614055
  Ewald energy   TEWEN  =    -12901.57693327
  -Hartree energ DENC   =     -2501.84698225
  -exchange      EXHF   =         0.00000000
  -V(xc)+E(xc)   XCENC  =      -998.37860123
  PAW double counting   =     19501.11191138   -18253.75611549
  entropy T*S    EENTRO =        -0.03261383
  eigenvalues    EBANDS =      1301.69529367
  atomic energy  EATOM  =     12697.67401269
  ---------------------------------------------------
  free energy    TOTEN  =      -356.72380039 eV

  energy without entropy =     -356.69118656  energy(sigma->0) =     -356.71292912


--------------------------------------------------------------------------------------------------------




--------------------------------------- Iteration      1(  20)  ---------------------------------------


    POTLOK:  cpu time    0.3908: real time    0.3908
    SETDIJ:  cpu time    0.4672: real time    0.4705
    TRIAL :  cpu time   11.1967: real time   11.2346
    CORREC:  cpu time    3.9826: real time    4.0455
    CHARGE:  cpu time    1.2677: real time    1.2676
    --------------------------------------------
      LOOP:  cpu time   17.3227: real time   17.4271

 eigenvalue-minimisations  :     0
 total energy-change (2. order) :-0.6232381E-01  (-0.5976221E-01)
 number of electron     269.9999992 magnetization      16.9484714
 augmentation part       86.8065749 magnetization      11.7552257

 Free energy of the ion-electron system (eV)
  ---------------------------------------------------
  alpha Z        PSCENC =       798.38614055
  Ewald energy   TEWEN  =    -12901.57693327
  -Hartree energ DENC   =     -2491.57876876
  -exchange      EXHF   =         0.00000000
  -V(xc)+E(xc)   XCENC  =      -998.61696552
  PAW double counting   =     19481.18529859   -18231.63696108
  entropy T*S    EENTRO =        -0.03280161
  eigenvalues    EBANDS =      1289.41066643
  atomic energy  EATOM  =     12697.67401269
  ---------------------------------------------------
  free energy    TOTEN  =      -356.78612420 eV

  energy without entropy =     -356.75332259  energy(sigma->0) =     -356.77519033


--------------------------------------------------------------------------------------------------------




--------------------------------------- Iteration      1(  21)  ---------------------------------------


    POTLOK:  cpu time    0.3913: real time    0.3913
    SETDIJ:  cpu time    0.4882: real time    0.4990
    TRIAL :  cpu time   11.1615: real time   11.2673
    CORREC:  cpu time    4.0581: real time    4.0742
    CHARGE:  cpu time    1.2409: real time    1.2626
    --------------------------------------------
      LOOP:  cpu time   17.3425: real time   17.4987

 eigenvalue-minimisations  :     0
 total energy-change (2. order) :-0.5967712E-01  (-0.3252194E-01)
 number of electron     269.9999992 magnetization      17.0019019
 augmentation part       86.9264790 magnetization      11.8170964

 Free energy of the ion-electron system (eV)
  ---------------------------------------------------
  alpha Z        PSCENC =       798.38614055
  Ewald energy   TEWEN  =    -12901.57693327
  -Hartree energ DENC   =     -2492.38729023
  -exchange      EXHF   =         0.00000000
  -V(xc)+E(xc)   XCENC  =      -998.43898661
  PAW double counting   =     19486.93245410   -18237.53498445
  entropy T*S    EENTRO =        -0.03247814
  eigenvalues    EBANDS =      1290.13258750
  atomic energy  EATOM  =     12697.67401269
  ---------------------------------------------------
  free energy    TOTEN  =      -356.84580132 eV

  energy without entropy =     -356.81332317  energy(sigma->0) =     -356.83497527


--------------------------------------------------------------------------------------------------------




--------------------------------------- Iteration      1(  22)  ---------------------------------------


    POTLOK:  cpu time    0.3913: real time    0.3913
    SETDIJ:  cpu time    0.4545: real time    0.4626
    TRIAL :  cpu time   12.0165: real time   12.2043
    CORREC:  cpu time    4.5122: real time    4.5349
    CHARGE:  cpu time    1.2636: real time    1.2692
    --------------------------------------------
      LOOP:  cpu time   18.6401: real time   18.8646

 eigenvalue-minimisations  :     0
 total energy-change (2. order) :-0.3258295E-01  (-0.1113519E-01)
 number of electron     269.9999992 magnetization      17.0351622
 augmentation part       86.9832839 magnetization      11.8464316

 Free energy of the ion-electron system (eV)
  ---------------------------------------------------
  alpha Z        PSCENC =       798.38614055
  Ewald energy   TEWEN  =    -12901.57693327
  -Hartree energ DENC   =     -2500.37364321
  -exchange      EXHF   =         0.00000000
  -V(xc)+E(xc)   XCENC  =      -998.07040710
  PAW double counting   =     19504.35580783   -18256.61389632
  entropy T*S    EENTRO =        -0.03251937
  eigenvalues    EBANDS =      1299.37301271
  atomic energy  EATOM  =     12697.67401269
  ---------------------------------------------------
  free energy    TOTEN  =      -356.87838427 eV

  energy without entropy =     -356.84586490  energy(sigma->0) =     -356.86754448


--------------------------------------------------------------------------------------------------------




--------------------------------------- Iteration      1(  23)  ---------------------------------------


    POTLOK:  cpu time    0.3899: real time    0.3907
    SETDIJ:  cpu time    0.4774: real time    0.4778
    TRIAL :  cpu time   11.1211: real time   11.2338
    CORREC:  cpu time    4.0610: real time    4.0769
    CHARGE:  cpu time    1.2454: real time    1.2476
    --------------------------------------------
      LOOP:  cpu time   17.2978: real time   17.4305

 eigenvalue-minimisations  :     0
 total energy-change (2. order) :-0.1114918E-01  (-0.1425773E-01)
 number of electron     269.9999992 magnetization      17.1064715
 augmentation part       86.9921711 magnetization      11.8985106

 Free energy of the ion-electron system (eV)
  ---------------------------------------------------
  alpha Z        PSCENC =       798.38614055
  Ewald energy   TEWEN  =    -12901.57693327
  -Hartree energ DENC   =     -2503.79708615
  -exchange      EXHF   =         0.00000000
  -V(xc)+E(xc)   XCENC  =      -997.90602377
  PAW double counting   =     19510.39468543   -18263.38180474
  entropy T*S    EENTRO =        -0.03224414
  eigenvalues    EBANDS =      1303.34999518
  atomic energy  EATOM  =     12697.67401269
  ---------------------------------------------------
  free energy    TOTEN  =      -356.88953345 eV

  energy without entropy =     -356.85728931  energy(sigma->0) =     -356.87878540


--------------------------------------------------------------------------------------------------------




--------------------------------------- Iteration      1(  24)  ---------------------------------------


    POTLOK:  cpu time    0.3908: real time    0.3908
    SETDIJ:  cpu time    0.4637: real time    0.4637
    TRIAL :  cpu time   11.0907: real time   11.2145
    CORREC:  cpu time    4.0043: real time    4.0529
    CHARGE:  cpu time    1.2492: real time    1.2494
    --------------------------------------------
      LOOP:  cpu time   17.2132: real time   17.3876

 eigenvalue-minimisations  :     0
 total energy-change (2. order) :-0.1425040E-01  (-0.1412131E-01)
 number of electron     269.9999992 magnetization      17.1736854
 augmentation part       86.9421494 magnetization      11.9501578

 Free energy of the ion-electron system (eV)
  ---------------------------------------------------
  alpha Z        PSCENC =       798.38614055
  Ewald energy   TEWEN  =    -12901.57693327
  -Hartree energ DENC   =     -2504.34211252
  -exchange      EXHF   =         0.00000000
  -V(xc)+E(xc)   XCENC  =      -997.81276949
  PAW double counting   =     19508.31610970   -18261.41061953
  entropy T*S    EENTRO =        -0.03180187
  eigenvalues    EBANDS =      1303.89463216
  atomic energy  EATOM  =     12697.67401269
  ---------------------------------------------------
  free energy    TOTEN  =      -356.90378385 eV

  energy without entropy =     -356.87198198  energy(sigma->0) =     -356.89318323


--------------------------------------------------------------------------------------------------------




--------------------------------------- Iteration      1(  25)  ---------------------------------------


    POTLOK:  cpu time    0.3902: real time    0.3902
    SETDIJ:  cpu time    0.4863: real time    0.4863
    TRIAL :  cpu time   12.0859: real time   12.2328
    CORREC:  cpu time    4.0195: real time    4.0485
    CHARGE:  cpu time    1.2277: real time    1.2535
    --------------------------------------------
      LOOP:  cpu time   18.2116: real time   18.4156

 eigenvalue-minimisations  :     0
 total energy-change (2. order) :-0.1413211E-01  (-0.1086793E-01)
 number of electron     269.9999992 magnetization      17.2506405
 augmentation part       86.9274368 magnetization      12.0105164

 Free energy of the ion-electron system (eV)
  ---------------------------------------------------
  alpha Z        PSCENC =       798.38614055
  Ewald energy   TEWEN  =    -12901.57693327
[...]
   45        0.025   0.026   2.388   2.440
   46        0.020   0.018   2.387   2.425
   47       -0.014  -0.019  -2.284  -2.317
   48        0.024   0.027   2.413   2.464
   49        0.019   0.018   2.377   2.414
   50       -0.013  -0.019  -2.270  -2.303
   51        0.024   0.027   2.414   2.465
   52        0.012   0.022   2.202   2.236
   53       -0.020  -0.014  -2.386  -2.420
   54       -0.029  -0.024  -2.252  -2.306
--------------------------------------------------
tot         -0.016  -0.083  17.300  17.201
 
    FORLOC:  cpu time    0.0585: real time    0.0586
    FORNL :  cpu time   17.7115: real time   17.8383
    STRESS:  cpu time   26.4301: real time   26.6889
    FORCOR:  cpu time    0.4405: real time    0.4404
    OFIELD:  cpu time    0.0019: real time    0.0019

  FORCE on cell =-STRESS in cart. coord.  units (eV):
  Direction    XX          YY          ZZ          XY          YZ          ZX
  --------------------------------------------------------------------------------------
  Alpha Z   798.38614   798.38614   798.38614
  Ewald   -4053.61603 -4053.61603 -4794.40593    -0.00000    -0.00000    -0.00000
  Hartree  1084.81215  1084.81215   331.99151    -0.00000    -0.00000    -0.00000
  E(xc)   -1141.91393 -1141.91393 -1139.81642    -0.00000    -0.00000    -0.00000
  Local     367.85342   367.85342  1907.22198     0.00000    -0.00000    -0.00000
  n-local  -172.16098  -169.66847  -175.50544     0.27431    -0.16709    -0.28671
  augment   785.11664   785.11664   766.94355     0.00000     0.00001     0.00001
  Kinetic  2328.50023  2344.02464  2307.42097    -2.39368    -1.69018    -1.74411
  Fock        0.00000     0.00000     0.00000     0.00000     0.00000     0.00000
  -------------------------------------------------------------------------------------
  Total       5.98611     5.98611     2.23636     0.00000     0.00000     0.00000
  in kB      13.50988    13.50988     5.04716     0.00000     0.00000     0.00000
  external pressure =       10.69 kB  Pullay stress =        0.00 kB


 VOLUME and BASIS-vectors are now :
 -----------------------------------------------------------------------------
  energy-cutoff  :      404.80
  volume of cell :      709.91
      direct lattice vectors                 reciprocal lattice vectors
     8.250148166  0.000000000  0.000000000     0.121209944  0.000000000  0.000000000
     0.000000000  8.250148166  0.000000000     0.000000000  0.121209944  0.000000000
     0.000000000  0.000000000 10.429911392     0.000000000  0.000000000  0.095878092

  length of vectors
     8.250148166  8.250148166 10.429911392     0.121209944  0.121209944  0.095878092


 FORCES acting on ions:
    Electron-Ion                     Ewald-Force                    Non-Local-Force
 -----------------------------------------------------------------------------------------------
   0.469E-02 0.469E-02 0.253E-01   -.239E-08 -.239E-08 -.210E-08   0.180E-01 0.180E-01 0.197E-01
   0.576E-02 0.576E-02 0.401E-01   -.239E-08 -.239E-08 0.171E-08   -.972E-02 -.972E-02 -.175E-01
   0.106E+00 0.106E+00 -.124E+00   -.239E-08 -.239E-08 0.861E-08   -.879E-01 -.879E-01 0.422E-01
   -.285E-01 0.373E-09 -.167E-01   -.239E-08 -.802E-09 -.210E-08   0.106E-02 0.271E-19 -.127E-01
   0.957E-02 0.373E-09 0.142E+00   -.239E-08 -.802E-09 0.171E-08   -.440E-02 0.542E-19 -.602E-01
   -.162E-01 0.373E-09 -.728E-01   -.239E-08 -.802E-09 0.861E-08   0.736E-02 0.000E+00 0.380E-01
   0.469E-02 -.469E-02 0.253E-01   -.239E-08 0.631E-08 -.210E-08   0.180E-01 -.180E-01 0.197E-01
   0.576E-02 -.576E-02 0.401E-01   -.239E-08 0.631E-08 0.171E-08   -.972E-02 0.972E-02 -.175E-01
   0.106E+00 -.106E+00 -.124E+00   -.239E-08 0.631E-08 0.861E-08   -.879E-01 0.879E-01 0.422E-01
   0.373E-09 -.285E-01 -.167E-01   -.802E-09 -.239E-08 -.210E-08   -.108E-18 0.106E-02 -.127E-01
   0.373E-09 0.957E-02 0.142E+00   -.802E-09 -.239E-08 0.171E-08   -.356E-19 -.440E-02 -.602E-01
   0.373E-09 -.162E-01 -.728E-01   -.803E-09 -.239E-08 0.861E-08   0.542E-19 0.736E-02 0.380E-01
   0.373E-09 0.373E-09 0.158E-01   -.802E-09 -.802E-09 -.210E-08   0.000E+00 0.915E-19 -.394E-01
   0.373E-09 0.373E-09 0.949E-01   -.802E-09 -.802E-09 0.171E-08   0.000E+00 -.474E-19 -.628E-01
   0.373E-09 0.373E-09 -.111E+00   -.803E-09 -.802E-09 0.861E-08   0.000E+00 0.000E+00 0.835E-01
   0.373E-09 0.285E-01 -.167E-01   -.802E-09 0.631E-08 -.210E-08   0.108E-18 -.106E-02 -.127E-01
   0.373E-09 -.957E-02 0.142E+00   -.802E-09 0.631E-08 0.171E-08   -.542E-19 0.440E-02 -.602E-01
   0.373E-09 0.162E-01 -.728E-01   -.803E-09 0.631E-08 0.861E-08   0.542E-19 -.736E-02 0.380E-01
   -.469E-02 0.469E-02 0.253E-01   0.631E-08 -.239E-08 -.210E-08   -.180E-01 0.180E-01 0.197E-01
   -.576E-02 0.576E-02 0.401E-01   0.631E-08 -.239E-08 0.171E-08   0.972E-02 -.972E-02 -.175E-01
   -.106E+00 0.106E+00 -.124E+00   0.631E-08 -.239E-08 0.861E-08   0.879E-01 -.879E-01 0.422E-01
   0.285E-01 0.373E-09 -.167E-01   0.631E-08 -.802E-09 -.210E-08   -.106E-02 -.119E-19 -.127E-01
   -.957E-02 0.373E-09 0.142E+00   0.631E-08 -.802E-09 0.171E-08   0.440E-02 0.108E-18 -.602E-01
   0.162E-01 0.373E-09 -.728E-01   0.631E-08 -.802E-09 0.861E-08   -.736E-02 0.000E+00 0.380E-01
   -.469E-02 -.469E-02 0.253E-01   0.631E-08 0.631E-08 -.210E-08   -.180E-01 -.180E-01 0.197E-01
   -.576E-02 -.576E-02 0.401E-01   0.631E-08 0.631E-08 0.171E-08   0.972E-02 0.972E-02 -.175E-01
   -.106E+00 -.106E+00 -.124E+00   0.631E-08 0.631E-08 0.861E-08   0.879E-01 0.879E-01 0.422E-01
   -.295E-01 -.295E-01 0.568E-01   -.169E-07 -.169E-07 -.180E-07   0.607E-01 0.607E-01 -.337E-03
   -.174E-01 -.174E-01 0.127E-01   -.169E-07 -.169E-07 -.170E-08   -.447E-02 -.447E-02 -.266E-02
   -.110E+00 -.110E+00 -.416E-01   -.169E-07 -.169E-07 0.115E-07   0.118E+00 0.118E+00 -.266E-01
   -.295E-01 0.295E-01 0.568E-01   -.169E-07 0.802E-09 -.180E-07   0.607E-01 -.607E-01 -.337E-03
   -.174E-01 0.174E-01 0.127E-01   -.169E-07 0.802E-09 -.170E-08   -.447E-02 0.447E-02 -.266E-02
   -.110E+00 0.110E+00 -.416E-01   -.169E-07 0.802E-09 0.115E-07   0.118E+00 -.118E+00 -.266E-01
   -.595E-01 -.605E-08 -.478E-01   -.169E-07 0.130E-07 -.180E-07   0.768E-02 -.108E-18 0.116E+00
   0.534E-01 -.605E-08 -.144E+00   -.169E-07 0.130E-07 -.170E-08   -.115E-01 0.000E+00 0.140E+00
   0.309E+00 -.605E-08 0.566E-01   -.169E-07 0.130E-07 0.115E-07   -.157E+00 -.976E-18 -.698E-01
   0.295E-01 -.295E-01 0.568E-01   0.802E-09 -.169E-07 -.180E-07   -.607E-01 0.607E-01 -.337E-03
   0.174E-01 -.174E-01 0.127E-01   0.802E-09 -.169E-07 -.170E-08   0.447E-02 -.447E-02 -.266E-02
   0.110E+00 -.110E+00 -.416E-01   0.802E-09 -.169E-07 0.115E-07   -.118E+00 0.118E+00 -.266E-01
   0.295E-01 0.295E-01 0.568E-01   0.802E-09 0.802E-09 -.180E-07   -.607E-01 -.607E-01 -.337E-03
   0.174E-01 0.174E-01 0.127E-01   0.802E-09 0.802E-09 -.170E-08   0.447E-02 0.447E-02 -.266E-02
   0.110E+00 0.110E+00 -.416E-01   0.802E-09 0.802E-09 0.115E-07   -.118E+00 -.118E+00 -.266E-01
   0.595E-01 -.605E-08 -.478E-01   0.802E-09 0.130E-07 -.180E-07   -.768E-02 0.434E-18 0.116E+00
   -.534E-01 -.605E-08 -.144E+00   0.802E-09 0.130E-07 -.170E-08   0.115E-01 0.108E-18 0.140E+00
   -.309E+00 -.605E-08 0.566E-01   0.802E-09 0.130E-07 0.115E-07   0.157E+00 0.434E-18 -.698E-01
   -.605E-08 -.595E-01 -.478E-01   0.130E-07 -.169E-07 -.180E-07   0.000E+00 0.768E-02 0.116E+00
   -.605E-08 0.534E-01 -.144E+00   0.130E-07 -.169E-07 -.170E-08   -.217E-18 -.115E-01 0.140E+00
   -.605E-08 0.309E+00 0.566E-01   0.130E-07 -.169E-07 0.115E-07   0.000E+00 -.157E+00 -.698E-01
   -.605E-08 0.595E-01 -.478E-01   0.130E-07 0.802E-09 -.180E-07   0.217E-18 -.768E-02 0.116E+00
   -.605E-08 -.534E-01 -.144E+00   0.130E-07 0.802E-09 -.170E-08   0.434E-18 0.115E-01 0.140E+00
   -.605E-08 -.309E+00 0.566E-01   0.130E-07 0.802E-09 0.115E-07   -.325E-18 0.157E+00 -.698E-01
   -.605E-08 -.605E-08 0.259E+00   0.130E-07 0.130E-07 -.180E-07   0.867E-18 0.130E-17 -.256E+00
   -.605E-08 -.605E-08 0.265E+00   0.130E-07 0.130E-07 -.170E-08   0.000E+00 0.610E-19 -.411E+00
   -.605E-08 -.605E-08 -.281E+00   0.130E-07 0.130E-07 0.115E-07   0.000E+00 -.173E-17 0.247E+00
 -----------------------------------------------------------------------------------------------
   -.361E-07 -.361E-07 -.226E+00   -.614E-13 -.142E-13 0.128E-13   0.287E-16 0.829E-16 0.226E+00
 
 
 POSITION                                       TOTAL-FORCE (eV/Angst)
 -----------------------------------------------------------------------------------
      0.00000      0.00000      0.00000         0.020593      0.020593      0.042055
      0.00000      0.00000      3.47664        -0.003162     -0.003162      0.023887
      0.00000      0.00000      6.95327         0.025651      0.025651     -0.084425
      0.00000      2.75005      0.00000        -0.028057      0.000000     -0.028768
      0.00000      2.75005      3.47664         0.005483      0.000000      0.087651
      0.00000      2.75005      6.95327        -0.009891      0.000000     -0.037902
      0.00000      5.50010      0.00000         0.020593     -0.020593      0.042055
      0.00000      5.50010      3.47664        -0.003162      0.003162      0.023887
      0.00000      5.50010      6.95327         0.025651     -0.025651     -0.084425
      2.75005      0.00000      0.00000        -0.000000     -0.028057     -0.028768
      2.75005      0.00000      3.47664        -0.000000      0.005483      0.087651
      2.75005      0.00000      6.95327        -0.000000     -0.009891     -0.037902
      2.75005      2.75005      0.00000        -0.000000      0.000000     -0.020274
      2.75005      2.75005      3.47664        -0.000000      0.000000      0.037422
      2.75005      2.75005      6.95327        -0.000000      0.000000     -0.035479
      2.75005      5.50010      0.00000        -0.000000      0.028057     -0.028768
      2.75005      5.50010      3.47664        -0.000000     -0.005483      0.087651
      2.75005      5.50010      6.95327        -0.000000      0.009891     -0.037902
      5.50010      0.00000      0.00000        -0.020593      0.020593      0.042055
      5.50010      0.00000      3.47664         0.003162     -0.003162      0.023887
      5.50010      0.00000      6.95327        -0.025651      0.025651     -0.084425
      5.50010      2.75005      0.00000         0.028057      0.000000     -0.028768
      5.50010      2.75005      3.47664        -0.005483      0.000000      0.087651
      5.50010      2.75005      6.95327         0.009891      0.000000     -0.037902
      5.50010      5.50010      0.00000        -0.020593     -0.020593      0.042055
      5.50010      5.50010      3.47664         0.003162      0.003162      0.023887
      5.50010      5.50010      6.95327        -0.025651     -0.025651     -0.084425
      1.37502      1.37502      1.73832         0.030616      0.030616      0.048910
      1.37502      1.37502      5.21496        -0.022033     -0.022033      0.011599
      1.37502      1.37502      8.69159         0.005684      0.005684     -0.060498
      1.37502      4.12507      1.73832         0.030616     -0.030616      0.048910
      1.37502      4.12507      5.21496        -0.022033      0.022033      0.011599
      1.37502      4.12507      8.69159         0.005684     -0.005684     -0.060498
      1.37502      6.87512      1.73832        -0.049736      0.000000      0.059230
      1.37502      6.87512      5.21496         0.041061      0.000000     -0.006682
      1.37502      6.87512      8.69159         0.156170      0.000000     -0.007877
      4.12507      1.37502      1.73832        -0.030616      0.030616      0.048910
      4.12507      1.37502      5.21496         0.022033     -0.022033      0.011599
      4.12507      1.37502      8.69159        -0.005684      0.005684     -0.060498
      4.12507      4.12507      1.73832        -0.030616     -0.030616      0.048910
      4.12507      4.12507      5.21496         0.022033      0.022033      0.011599
      4.12507      4.12507      8.69159        -0.005684     -0.005684     -0.060498
      4.12507      6.87512      1.73832         0.049736      0.000000      0.059230
      4.12507      6.87512      5.21496        -0.041061      0.000000     -0.006682
      4.12507      6.87512      8.69159        -0.156170      0.000000     -0.007877
      6.87512      1.37502      1.73832        -0.000000     -0.049736      0.059230
      6.87512      1.37502      5.21496        -0.000000      0.041061     -0.006682
      6.87512      1.37502      8.69159        -0.000000      0.156170     -0.007877
      6.87512      4.12507      1.73832        -0.000000      0.049736      0.059230
      6.87512      4.12507      5.21496        -0.000000     -0.041061     -0.006682
      6.87512      4.12507      8.69159        -0.000000     -0.156170     -0.007877
      6.87512      6.87512      1.73832        -0.000000      0.000000      0.007086
      6.87512      6.87512      5.21496        -0.000000      0.000000     -0.136949
      6.87512      6.87512      8.69159        -0.000000      0.000000     -0.040531
 -----------------------------------------------------------------------------------
    total drift:                               -0.000000     -0.000000      0.000019


--------------------------------------------------------------------------------------------------------



  FREE ENERGIE OF THE ION-ELECTRON SYSTEM (eV)
  ---------------------------------------------------
  free  energy   TOTEN  =      -356.94601758 eV

  energy  without entropy=     -356.91497902  energy(sigma->0) =     -356.93567139
 


--------------------------------------------------------------------------------------------------------


    POTLOK:  cpu time    0.9524: real time    0.9719


--------------------------------------------------------------------------------------------------------


     LOOP+:  cpu time 1418.1972: real time 1431.5569
    4ORBIT:  cpu time    0.0000: real time    0.0000
 


 total charge     
 
# of ion       s       p       d       tot
------------------------------------------
    1        0.404   0.430   0.000   0.834
    2        0.405   0.427   0.000   0.832
    3        0.405   0.429   0.000   0.834
    4        0.404   0.429   0.000   0.833
    5        0.405   0.427   0.000   0.832
    6        0.405   0.427   0.000   0.832
    7        0.404   0.430   0.000   0.834
    8        0.405   0.427   0.000   0.832
    9        0.405   0.428   0.000   0.834
   10        0.404   0.429   0.000   0.833
   11        0.405   0.427   0.000   0.833
   12        0.405   0.426   0.000   0.832
   13        0.404   0.429   0.000   0.833
   14        0.405   0.428   0.000   0.833
   15        0.405   0.427   0.000   0.832
   16        0.404   0.429   0.000   0.833
   17        0.405   0.427   0.000   0.833
   18        0.405   0.426   0.000   0.832
   19        0.404   0.430   0.000   0.834
   20        0.405   0.427   0.000   0.832
   21        0.406   0.428   0.000   0.834
   22        0.404   0.429   0.000   0.833
   23        0.405   0.427   0.000   0.832
   24        0.405   0.427   0.000   0.832
   25        0.404   0.429   0.000   0.834
   26        0.405   0.427   0.000   0.832
   27        0.406   0.428   0.000   0.834
   28        0.333   0.351   5.133   5.818
   29        0.335   0.350   5.132   5.816
   30        0.332   0.352   5.141   5.825
   31        0.334   0.352   5.137   5.822
   32        0.334   0.351   5.135   5.820
   33        0.332   0.352   5.135   5.819
   34        0.333   0.350   5.133   5.816
   35        0.334   0.353   5.129   5.816
   36        0.334   0.354   5.156   5.844
   37        0.333   0.352   5.133   5.818
   38        0.335   0.350   5.138   5.823
   39        0.332   0.352   5.133   5.817
   40        0.333   0.351   5.139   5.823
   41        0.335   0.350   5.139   5.824
   42        0.332   0.352   5.141   5.825
   43        0.333   0.350   5.147   5.829
   44        0.334   0.352   5.142   5.829
   45        0.334   0.354   5.154   5.842
   46        0.333   0.351   5.132   5.816
   47        0.334   0.352   5.127   5.813
   48        0.333   0.358   5.098   5.789
   49        0.333   0.350   5.138   5.821
   50        0.334   0.352   5.135   5.820
   51        0.333   0.358   5.099   5.790
   52        0.331   0.353   5.136   5.820
   53        0.335   0.348   5.138   5.821
   54        0.333   0.352   5.139   5.825
--------------------------------------------------
tot         19.933  21.056 138.640 179.628
 


 magnetization (x)
 
# of ion       s       p       d       tot
------------------------------------------
    1       -0.017  -0.029   0.000  -0.046
    2        0.000   0.001   0.000   0.001
    3        0.004   0.009   0.000   0.013
    4       -0.021  -0.036   0.000  -0.057
    5        0.000  -0.000   0.000  -0.000
    6        0.001   0.003   0.000   0.004
    7       -0.017  -0.030   0.000  -0.047
    8       -0.000   0.002   0.000   0.002
    9        0.004   0.009   0.000   0.014
   10       -0.022  -0.037   0.000  -0.058
   11        0.000  -0.001   0.000  -0.001
   12        0.001   0.002   0.000   0.003
   13       -0.023  -0.039   0.000  -0.061
   14       -0.000   0.002   0.000   0.002
   15       -0.000   0.001   0.000   0.001
   16       -0.022  -0.037   0.000  -0.059
   17       -0.000  -0.000   0.000  -0.000
   18        0.001   0.002   0.000   0.002
   19       -0.017  -0.030   0.000  -0.047
   20       -0.000   0.002   0.000   0.002
   21        0.004   0.009   0.000   0.014
   22       -0.021  -0.036   0.000  -0.057
   23       -0.000  -0.000   0.000  -0.000
   24        0.001   0.003   0.000   0.004
   25       -0.017  -0.030   0.000  -0.047
   26       -0.000   0.001   0.000   0.001
   27        0.004   0.010   0.000   0.014
   28        0.017   0.022   2.378   2.416
   29       -0.016  -0.016  -2.303  -2.335
   30        0.014   0.015   2.352   2.381
   31        0.017   0.021   2.372   2.410
   32       -0.016  -0.016  -2.294  -2.326
   33        0.014   0.015   2.351   2.380
   34        0.019   0.017   2.393   2.429
   35       -0.014  -0.020  -2.288  -2.322
   36        0.025   0.027   2.386   2.438
   37        0.017   0.021   2.375   2.413
   38       -0.016  -0.016  -2.295  -2.326
   39        0.014   0.014   2.353   2.381
   40        0.017   0.021   2.369   2.407
   41       -0.016  -0.016  -2.294  -2.325
   42        0.014   0.015   2.352   2.381
   43        0.019   0.018   2.375   2.411
   44       -0.014  -0.020  -2.270  -2.304
   45        0.025   0.026   2.388   2.440
   46        0.020   0.018   2.387   2.425
   47       -0.014  -0.019  -2.284  -2.317
   48        0.024   0.027   2.413   2.464
   49        0.019   0.018   2.377   2.414
   50       -0.013  -0.019  -2.270  -2.303
   51        0.024   0.027   2.414   2.465
   52        0.012   0.022   2.202   2.236
   53       -0.020  -0.014  -2.386  -2.420
   54       -0.029  -0.024  -2.252  -2.306
--------------------------------------------------
tot         -0.016  -0.083  17.300  17.201
 

 total amount of memory used by VASP MPI-rank0   626513. kBytes
=======================================================================

   base      :      30000. kBytes
   nonl-proj :      19946. kBytes
   fftplans  :      31580. kBytes
   grid      :      21385. kBytes
   one-center:        435. kBytes
   wavefun   :     523167. kBytes
 
  
  
 General timing and accounting informations for this job:
 ========================================================
  
                  Total CPU time used (sec):     1441.800
                            User time (sec):     1420.337
                          System time (sec):       21.463
                         Elapsed time (sec):     1457.501
  
                   Maximum memory used (kb):      791760.
                   Average memory used (kb):           0.
  
                          Minor page faults:       492799
                          Major page faults:           19
                 Voluntary context switches:         2815
