 vasp.5.4.4.18Apr17-6-g9f103f2a35 (build Dec 20 2018 12:05:58) complex          
  
 executed on             LinuxIFC date 2019.06.20  20:44:20
 running on   32 total cores
 distrk:  each k-point on    8 cores,    4 groups
 distr:  one band on NCORES_PER_BAND=   4 cores,    2 groups


--------------------------------------------------------------------------------------------------------


 INCAR:
 POTCAR:    PAW_PBE Al 04Jan2001                  
 POTCAR:    PAW_PBE Mn 06Sep2000                  

 ----------------------------------------------------------------------------- 
|                                                                             |
|           W    W    AA    RRRRR   N    N  II  N    N   GGGG   !!!           |
|           W    W   A  A   R    R  NN   N  II  NN   N  G    G  !!!           |
|           W    W  A    A  R    R  N N  N  II  N N  N  G       !!!           |
|           W WW W  AAAAAA  RRRRR   N  N N  II  N  N N  G  GGG   !            |
|           WW  WW  A    A  R   R   N   NN  II  N   NN  G    G                |
|           W    W  A    A  R    R  N    N  II  N    N   GGGG   !!!           |
|                                                                             |
|      You have enabled k-point parallelism (KPAR>1).                         |
|      This developmental code was originally  written by Paul Kent at ORNL,  |
|      and carefully double checked in Vienna.                                |
|      GW as well as linear response parallelism added by Martijn Marsman     |
|      and Georg Kresse.                                                      |
|      Carefully verify results versus KPAR=1.                                |
|      Report problems to Paul Kent and Vienna.                               |
|                                                                             |
 ----------------------------------------------------------------------------- 

 POTCAR:    PAW_PBE Al 04Jan2001                  
   VRHFIN =Al: s2p1                                                             
   LEXCH  = PE                                                                  
   EATOM  =    53.5387 eV,    3.9350 Ry                                         
                                                                                
   TITEL  = PAW_PBE Al 04Jan2001                                                
   LULTRA =        F    use ultrasoft PP ?                                      
   IUNSCR =        1    unscreen: 0-lin 1-nonlin 2-no                           
   RPACOR =    1.500    partial core radius                                     
   POMASS =   26.981; ZVAL   =    3.000    mass and valenz                      
   RCORE  =    1.900    outmost cutoff radius                                   
   RWIGS  =    2.650; RWIGS  =    1.402    wigner-seitz radius (au A)           
   ENMAX  =  240.300; ENMIN  =  180.225 eV                                      
   ICORE  =        2    local potential                                         
   LCOR   =        T    correct aug charges                                     
   LPAW   =        T    paw PP                                                  
   EAUG   =  291.052                                                            
   DEXC   =    0.000                                                            
   RMAX   =    1.939    core radius for proj-oper                               
   RAUG   =    1.300    factor for augmentation sphere                          
   RDEP   =    1.966    radius for radial grids                                 
   RDEPT  =    1.856    core radius for aug-charge                              
                                                                                
   Atomic configuration                                                         
    6 entries                                                                   
     n  l   j            E        occ.                                          
     1  0  0.50     -1511.1048   2.0000                                         
     2  0  0.50      -108.1629   2.0000                                         
     2  1  1.50       -69.6402   6.0000                                         
     3  0  0.50        -7.7528   2.0000                                         
     3  1  1.50        -2.7121   1.0000                                         
     3  2  2.50        -2.7212   0.0000                                         
   Description                                                                  
     l       E           TYP  RCUT    TYP  RCUT                                 
     0     -7.7528455     23  1.900                                             
     0     -3.3096929     23  1.900                                             
     1     -2.7120682     23  1.900                                             
     1     13.6058260     23  1.900                                             
     2     -2.7211652      7  1.900                                             
  local pseudopotential read in
  partial core-charges read in
  partial kinetic energy density read in
  atomic valenz-charges read in
  non local Contribution for L=           0  read in
    real space projection operators read in
  non local Contribution for L=           0  read in
    real space projection operators read in
  non local Contribution for L=           1  read in
    real space projection operators read in
  non local Contribution for L=           1  read in
    real space projection operators read in
    PAW grid and wavefunctions read in
 
   number of l-projection  operators is LMAX  =           4
   number of lm-projection operators is LMMAX =           8
 
 POTCAR:    PAW_PBE Mn 06Sep2000                  
   VRHFIN =Mn: d6 s1                                                            
   LEXCH  = PE                                                                  
   EATOM  =   416.7541 eV,   30.6306 Ry                                         
                                                                                
   TITEL  = PAW_PBE Mn 06Sep2000                                                
   LULTRA =        F    use ultrasoft PP ?                                      
   IUNSCR =        1    unscreen: 0-lin 1-nonlin 2-no                           
   RPACOR =    2.000    partial core radius                                     
   POMASS =   54.938; ZVAL   =    7.000    mass and valenz                      
   RCORE  =    2.300    outmost cutoff radius                                   
   RWIGS  =    2.500; RWIGS  =    1.323    wigner-seitz radius (au A)           
   ENMAX  =  269.864; ENMIN  =  202.398 eV                                      
   RCLOC  =    1.725    cutoff for local pot                                    
   LCOR   =        T    correct aug charges                                     
   LPAW   =        T    paw PP                                                  
   EAUG   =  500.711                                                            
   DEXC   =    0.000                                                            
   RMAX   =    2.343    core radius for proj-oper                               
   RAUG   =    1.300    factor for augmentation sphere                          
   RDEP   =    2.338    radius for radial grids                                 
   RDEPT  =    1.911    core radius for aug-charge                              
                                                                                
   Atomic configuration                                                         
    9 entries                                                                   
     n  l   j            E        occ.                                          
     1  0  0.50     -6424.8288   2.0000                                         
     2  0  0.50      -739.1154   2.0000                                         
     2  1  1.50      -625.3949   6.0000                                         
     3  0  0.50       -81.6100   2.0000                                         
     3  1  1.50       -50.4667   6.0000                                         
     3  2  2.50        -3.3745   6.0000                                         
     4  0  0.50        -4.1331   1.0000                                         
     4  1  0.50        -4.0817   0.0000                                         
     4  3  2.50        -1.3606   0.0000                                         
   Description                                                                  
     l       E           TYP  RCUT    TYP  RCUT                                 
     2     -3.3744664     23  2.300                                             
     2     -4.7350490     23  2.300                                             
     0     -4.1331408     23  2.300                                             
     0      7.6656614     23  2.300                                             
     1     -2.7211652     23  2.300                                             
     1     20.4087390     23  2.300                                             
  local pseudopotential read in
  partial core-charges read in
  partial kinetic energy density read in
  atomic valenz-charges read in
  non local Contribution for L=           2  read in
    real space projection operators read in
  non local Contribution for L=           2  read in
    real space projection operators read in
  non local Contribution for L=           0  read in
    real space projection operators read in
  non local Contribution for L=           0  read in
    real space projection operators read in
  non local Contribution for L=           1  read in
    real space projection operators read in
  non local Contribution for L=           1  read in
    real space projection operators read in
    PAW grid and wavefunctions read in
 
   number of l-projection  operators is LMAX  =           6
   number of lm-projection operators is LMMAX =          18
 

 ----------------------------------------------------------------------------- 
|                                                                             |
|  ADVICE TO THIS USER RUNNING 'VASP/VAMP'   (HEAR YOUR MASTER'S VOICE ...):  |
|                                                                             |
|      You have a (more or less) 'large supercell' and for larger cells       |
|      it might be more efficient to use real space projection opertators     |
|      So try LREAL= Auto  in the INCAR   file.                               |
|      Mind:          For very  accurate calculation you might also keep the  |
|      reciprocal projection scheme          (i.e. LREAL=.FALSE.)             |
|                                                                             |
 ----------------------------------------------------------------------------- 

  PAW_PBE Al 04Jan2001                  :
 energy of atom  1       EATOM=  -53.5387
 kinetic energy error for atom=    0.0005 (will be added to EATOM!!)
  PAW_PBE Mn 06Sep2000                  :
 energy of atom  2       EATOM= -416.7541
 kinetic energy error for atom=    0.0080 (will be added to EATOM!!)
 
 
 POSCAR: NewRef: 27, @ ['Mn', array([1.37502469, 
  positions in cartesian coordinates
  velocities in cartesian coordinates
  No initial velocities read in
 exchange correlation table for  LEXCH =        8
   RHO(1)=    0.500       N(1)  =     2000
   RHO(2)=  100.500       N(2)  =     4000
 


--------------------------------------------------------------------------------------------------------


 ion  position               nearest neighbor table
   1  0.000  0.000  0.000-  28 2.61  30 2.61  34 2.61  36 2.61  46 2.61  48 2.61  52 2.61  54 2.61
                             4 2.75  10 2.75   7 2.75  19 2.75
   2  0.000  0.000  0.333-  28 2.61  34 2.61  46 2.61  52 2.61  29 2.61  47 2.61  35 2.61  53 2.61
                             5 2.75  11 2.75   8 2.75  20 2.75
   3  0.000  0.000  0.667-  29 2.61  35 2.61  47 2.61  53 2.61  30 2.61  48 2.61  36 2.61  54 2.61
                             6 2.75  12 2.75   9 2.75  21 2.75
   4  0.000  0.333  0.000-  28 2.61  30 2.61  46 2.61  48 2.61  31 2.61  33 2.61  49 2.61  51 2.61
                            13 2.75   1 2.75   7 2.75  22 2.75
   5  0.000  0.333  0.333-  28 2.61  46 2.61  31 2.61  49 2.61  47 2.61  29 2.61  32 2.61  50 2.61
                            14 2.75   2 2.75   8 2.75  23 2.75
   6  0.000  0.333  0.667-  29 2.61  47 2.61  32 2.61  50 2.61  48 2.61  30 2.61  33 2.61  51 2.61
                            15 2.75   3 2.75   9 2.75  24 2.75
   7  0.000  0.667  0.000-  31 2.61  33 2.61  49 2.61  51 2.61  34 2.61  36 2.61  52 2.61  54 2.61
                             4 2.75  16 2.75   1 2.75  25 2.75
   8  0.000  0.667  0.333-  31 2.61  49 2.61  34 2.61  52 2.61  50 2.61  32 2.61  35 2.61  53 2.61
                             5 2.75  17 2.75   2 2.75  26 2.75
   9  0.000  0.667  0.667-  32 2.61  50 2.61  35 2.61  53 2.61  51 2.61  33 2.61  36 2.61  54 2.61
                             6 2.75  18 2.75   3 2.75  27 2.75
  10  0.333  0.000  0.000-  28 2.61  30 2.61  34 2.61  36 2.61  37 2.61  39 2.61  43 2.61  45 2.61
                            19 2.75   1 2.75  13 2.75  16 2.75
  11  0.333  0.000  0.333-  28 2.61  34 2.61  37 2.61  43 2.61  29 2.61  35 2.61  38 2.61  44 2.61
                            20 2.75   2 2.75  14 2.75  17 2.75
  12  0.333  0.000  0.667-  29 2.61  35 2.61  38 2.61  44 2.61  30 2.61  36 2.61  39 2.61  45 2.61
                            21 2.75   3 2.75  15 2.75  18 2.75
  13  0.333  0.333  0.000-  28 2.61  30 2.61  31 2.61  33 2.61  37 2.61  39 2.61  40 2.61  42 2.61
                             4 2.75  10 2.75  16 2.75  22 2.75
  14  0.333  0.333  0.333-  28 2.61  31 2.61  37 2.61  29 2.61  40 2.61  38 2.61  32 2.61  41 2.61
                             5 2.75  11 2.75  17 2.75  23 2.75
  15  0.333  0.333  0.667-  29 2.61  32 2.61  38 2.61  30 2.61  41 2.61  39 2.61  33 2.61  42 2.61
                             6 2.75  12 2.75  18 2.75  24 2.75
  16  0.333  0.667  0.000-  31 2.61  33 2.61  34 2.61  36 2.61  40 2.61  42 2.61  43 2.61  45 2.61
                            25 2.75   7 2.75  13 2.75  10 2.75
  17  0.333  0.667  0.333-  31 2.61  34 2.61  40 2.61  32 2.61  43 2.61  41 2.61  35 2.61  44 2.61
                            26 2.75   8 2.75  14 2.75  11 2.75
  18  0.333  0.667  0.667-  32 2.61  35 2.61  41 2.61  33 2.61  44 2.61  42 2.61  36 2.61  45 2.61
                            27 2.75   9 2.75  15 2.75  12 2.75
  19  0.667  0.000  0.000-  37 2.61  39 2.61  43 2.61  45 2.61  46 2.61  48 2.61  52 2.61  54 2.61
                            10 2.75  22 2.75   1 2.75  25 2.75
  20  0.667  0.000  0.333-  37 2.61  43 2.61  46 2.61  52 2.61  38 2.61  44 2.61  47 2.61  53 2.61
                            11 2.75  23 2.75   2 2.75  26 2.75
  21  0.667  0.000  0.667-  38 2.61  44 2.61  47 2.61  53 2.61  39 2.61  45 2.61  48 2.61  54 2.61
                            12 2.75  24 2.75   3 2.75  27 2.75
  22  0.667  0.333  0.000-  37 2.61  39 2.61  40 2.61  42 2.61  46 2.61  48 2.61  49 2.61  51 2.61
                            25 2.75  13 2.75  19 2.75   4 2.75
  23  0.667  0.333  0.333-  37 2.61  40 2.61  46 2.61  38 2.61  49 2.61  47 2.61  41 2.61  50 2.61
                            26 2.75  14 2.75  20 2.75   5 2.75
  24  0.667  0.333  0.667-  38 2.61  41 2.61  47 2.61  39 2.61  50 2.61  48 2.61  42 2.61  51 2.61
                            27 2.75  15 2.75  21 2.75   6 2.75
  25  0.667  0.667  0.000-  40 2.61  42 2.61  43 2.61  45 2.61  49 2.61  51 2.61  52 2.61  54 2.61
                            16 2.75  22 2.75  19 2.75   7 2.75
  26  0.667  0.667  0.333-  40 2.61  43 2.61  49 2.61  41 2.61  52 2.61  50 2.61  44 2.61  53 2.61
                            17 2.75  23 2.75  20 2.75   8 2.75
  27  0.667  0.667  0.667-  41 2.61  44 2.61  50 2.61  42 2.61  53 2.61  51 2.61  45 2.61  54 2.61
                            18 2.75  24 2.75  21 2.75   9 2.75
  28  0.167  0.167  0.167-  14 2.61  11 2.61   5 2.61  13 2.61   2 2.61  10 2.61   4 2.61   1 2.61
                            31 2.75  37 2.75  34 2.75  46 2.75
  29  0.167  0.167  0.500-  15 2.61  12 2.61   6 2.61  14 2.61   3 2.61  11 2.61   5 2.61   2 2.61
                            32 2.75  38 2.75  35 2.75  47 2.75
  30  0.167  0.167  0.833-  13 2.61  15 2.61  10 2.61  12 2.61   4 2.61   6 2.61   1 2.61   3 2.61
                            33 2.75  39 2.75  36 2.75  48 2.75
  31  0.167  0.500  0.167-  17 2.61  14 2.61   8 2.61  16 2.61   5 2.61  13 2.61   7 2.61   4 2.61
                            28 2.75  34 2.75  40 2.75  49 2.75
  32  0.167  0.500  0.500-  18 2.61  15 2.61   9 2.61  17 2.61   6 2.61  14 2.61   8 2.61   5 2.61
                            29 2.75  35 2.75  41 2.75  50 2.75
  33  0.167  0.500  0.833-  16 2.61  18 2.61  13 2.61  15 2.61   7 2.61   9 2.61   4 2.61   6 2.61
                            30 2.75  36 2.75  42 2.75  51 2.75
  34  0.167  0.833  0.167-  11 2.61  17 2.61   2 2.61   8 2.61  16 2.61  10 2.61   7 2.61   1 2.61
                            31 2.75  43 2.75  28 2.75  52 2.75
  35  0.167  0.833  0.500-  12 2.61  18 2.61   3 2.61   9 2.61  17 2.61  11 2.61   8 2.61   2 2.61
                            32 2.75  44 2.75  29 2.75  53 2.75
  36  0.167  0.833  0.833-  10 2.61  12 2.61  16 2.61  18 2.61   1 2.61   3 2.61   7 2.61   9 2.61
                            33 2.75  45 2.75  30 2.75  54 2.75
  37  0.500  0.167  0.167-  23 2.61  20 2.61  14 2.61  22 2.61  11 2.61  19 2.61  13 2.61  10 2.61
                            28 2.75  40 2.75  46 2.75  43 2.75
  38  0.500  0.167  0.500-  24 2.61  21 2.61  15 2.61  23 2.61  12 2.61  20 2.61  14 2.61  11 2.61
                            29 2.75  41 2.75  47 2.75  44 2.75
  39  0.500  0.167  0.833-  22 2.61  24 2.61  19 2.61  21 2.61  13 2.61  15 2.61  10 2.61  12 2.61
                            30 2.75  42 2.75  48 2.75  45 2.75
  40  0.500  0.500  0.167-  26 2.61  23 2.61  17 2.61  25 2.61  14 2.61  22 2.61  16 2.61  13 2.61
                            31 2.75  37 2.75  43 2.75  49 2.75
  41  0.500  0.500  0.500-  27 2.61  24 2.61  18 2.61  26 2.61  15 2.61  23 2.61  17 2.61  14 2.61
                            32 2.75  38 2.75  44 2.75  50 2.75
  42  0.500  0.500  0.833-  25 2.61  27 2.61  22 2.61  24 2.61  16 2.61  18 2.61  13 2.61  15 2.61
                            33 2.75  39 2.75  45 2.75  51 2.75
  43  0.500  0.833  0.167-  20 2.61  26 2.61  11 2.61  17 2.61  25 2.61  19 2.61  16 2.61  10 2.61
                            34 2.75  40 2.75  52 2.75  37 2.75
  44  0.500  0.833  0.500-  21 2.61  27 2.61  12 2.61  18 2.61  26 2.61  20 2.61  17 2.61  11 2.61
                            35 2.75  41 2.75  53 2.75  38 2.75
  45  0.500  0.833  0.833-  19 2.61  21 2.61  25 2.61  27 2.61  10 2.61  12 2.61  16 2.61  18 2.61
                            36 2.75  42 2.75  54 2.75  39 2.75
  46  0.833  0.167  0.167-   5 2.61  23 2.61  20 2.61   2 2.61  22 2.61   4 2.61  19 2.61   1 2.61
                            37 2.75  49 2.75  28 2.75  52 2.75
  47  0.833  0.167  0.500-   6 2.61  24 2.61  21 2.61   3 2.61  23 2.61   5 2.61  20 2.61   2 2.61
                            38 2.75  50 2.75  29 2.75  53 2.75
  48  0.833  0.167  0.833-   4 2.61   6 2.61  22 2.61  24 2.61  19 2.61  21 2.61   1 2.61   3 2.61
                            39 2.75  51 2.75  30 2.75  54 2.75
  49  0.833  0.500  0.167-   8 2.61  26 2.61  23 2.61   5 2.61  25 2.61   7 2.61  22 2.61   4 2.61
                            40 2.75  46 2.75  52 2.75  31 2.75
  50  0.833  0.500  0.500-   9 2.61  27 2.61  24 2.61   6 2.61  26 2.61   8 2.61  23 2.61   5 2.61
                            41 2.75  47 2.75  53 2.75  32 2.75
  51  0.833  0.500  0.833-   7 2.61   9 2.61  25 2.61  27 2.61  22 2.61  24 2.61   4 2.61   6 2.61
                            42 2.75  48 2.75  54 2.75  33 2.75
  52  0.833  0.833  0.167-   2 2.61   8 2.61  20 2.61  26 2.61  19 2.61   7 2.61  25 2.61   1 2.61
                            43 2.75  49 2.75  46 2.75  34 2.75
  53  0.833  0.833  0.500-   3 2.61   9 2.61  21 2.61  27 2.61  20 2.61   8 2.61  26 2.61   2 2.61
                            44 2.75  50 2.75  47 2.75  35 2.75
  54  0.833  0.833  0.833-   1 2.61   3 2.61   7 2.61   9 2.61  19 2.61  21 2.61  25 2.61  27 2.61
                            45 2.75  51 2.75  48 2.75  36 2.75
 
  LATTYP: Found a simple tetragonal cell.
 ALAT       =     8.2501481662
 C/A-ratio  =     1.2642089792
  
  Lattice vectors:
  
 A1 = (   8.2501481662,   0.0000000000,   0.0000000000)
 A2 = (   0.0000000000,   8.2501481662,   0.0000000000)
 A3 = (   0.0000000000,   0.0000000000,  10.4299113916)


Analysis of symmetry for initial positions (statically):
=====================================================================
 Subroutine PRICEL returns following result:
 
  LATTYP: Found a simple tetragonal cell.
 ALAT       =     2.7500493888
 C/A-ratio  =     1.2642089792
  
  Lattice vectors:
  
 A1 = (   2.7500493888,   0.0000000000,   0.0000000000)
 A2 = (   0.0000000000,   2.7500493888,   0.0000000000)
 A3 = (   0.0000000000,   0.0000000000,   3.4766371306)
 
  27 primitive cells build up your supercell.
 

 Routine SETGRP: Setting up the symmetry group for a 
 simple tetragonal supercell.


 Subroutine GETGRP returns: Found 16 space group operations
 (whereof 16 operations were pure point group operations)
 out of a pool of 16 trial point group operations.


The static configuration has the point symmetry D_4h.


Analysis of symmetry for dynamics (positions and initial velocities):
=====================================================================
 Subroutine PRICEL returns following result:
 
  LATTYP: Found a simple tetragonal cell.
 ALAT       =     2.7500493888
 C/A-ratio  =     1.2642089792
  
  Lattice vectors:
  
 A1 = (   2.7500493888,   0.0000000000,   0.0000000000)
 A2 = (   0.0000000000,   2.7500493888,   0.0000000000)
 A3 = (   0.0000000000,   0.0000000000,   3.4766371306)
 
  27 primitive cells build up your supercell.
 

 Routine SETGRP: Setting up the symmetry group for a 
 simple tetragonal supercell.


 Subroutine GETGRP returns: Found 16 space group operations
 (whereof 16 operations were pure point group operations)
 out of a pool of 16 trial point group operations.


The dynamic configuration has the point symmetry D_4h.


Analysis of structural, dynamic, and magnetic symmetry:
=====================================================================
 Subroutine PRICEL returns:
 Original cell was already a primitive cell.
 

 Routine SETGRP: Setting up the symmetry group for a 
 simple tetragonal supercell.


 Subroutine GETGRP returns: Found  2 space group operations
 (whereof  1 operations were pure point group operations)
 out of a pool of 16 trial point group operations.


The magnetic configuration has the point symmetry C_1 .
 The point group associated with its full space group is C_1h.


 Subroutine INISYM returns: Found  2 space group operations
 (whereof  1 operations are pure point group operations),
 and found     1 'primitive' translations

 
 
 KPOINTS: automatic KPOINTS                       

Automatic generation of k-mesh.
 generate k-points for:    5    5    4
Space group operators:
 irot       det(A)        alpha          n_x          n_y          n_z        tau_x        tau_y        tau_z
    1     1.000000     0.000001     1.000000     0.000000     0.000000     0.000000     0.000000     0.000000
    2    -1.000000   180.000000     0.000000     1.000000     0.000000     0.000000     0.666667     0.000000
 
 Subroutine IBZKPT returns following result:
 ===========================================
 
 Found     33 irreducible k-points:
 
 Following reciprocal coordinates:
            Coordinates               Weight
  0.000000  0.000000  0.000000      1.000000
  0.200000  0.000000  0.000000      2.000000
  0.400000  0.000000  0.000000      2.000000
  0.000000  0.200000  0.000000      2.000000
  0.200000  0.200000  0.000000      4.000000
  0.400000  0.200000  0.000000      4.000000
  0.000000  0.400000  0.000000      2.000000
  0.200000  0.400000  0.000000      4.000000
  0.400000  0.400000  0.000000      4.000000
  0.000000  0.000000  0.250000      2.000000
  0.200000  0.000000  0.250000      2.000000
  0.400000  0.000000  0.250000      2.000000
 -0.400000  0.000000  0.250000      2.000000
 -0.200000  0.000000  0.250000      2.000000
  0.000000  0.200000  0.250000      4.000000
  0.200000  0.200000  0.250000      4.000000
  0.400000  0.200000  0.250000      4.000000
 -0.400000  0.200000  0.250000      4.000000
 -0.200000  0.200000  0.250000      4.000000
  0.000000  0.400000  0.250000      4.000000
  0.200000  0.400000  0.250000      4.000000
  0.400000  0.400000  0.250000      4.000000
 -0.400000  0.400000  0.250000      4.000000
 -0.200000  0.400000  0.250000      4.000000
  0.000000  0.000000  0.500000      1.000000
  0.200000  0.000000  0.500000      2.000000
  0.400000  0.000000  0.500000      2.000000
  0.000000  0.200000  0.500000      2.000000
  0.200000  0.200000  0.500000      4.000000
  0.400000  0.200000  0.500000      4.000000
  0.000000  0.400000  0.500000      2.000000
  0.200000  0.400000  0.500000      4.000000
  0.400000  0.400000  0.500000      4.000000
 
 Following cartesian coordinates:
            Coordinates               Weight
  0.000000  0.000000  0.000000      1.000000
  0.024242  0.000000  0.000000      2.000000
  0.048484  0.000000  0.000000      2.000000
  0.000000  0.024242  0.000000      2.000000
  0.024242  0.024242  0.000000      4.000000
  0.048484  0.024242  0.000000      4.000000
  0.000000  0.048484  0.000000      2.000000
  0.024242  0.048484  0.000000      4.000000
  0.048484  0.048484  0.000000      4.000000
  0.000000  0.000000  0.023970      2.000000
  0.024242  0.000000  0.023970      2.000000
  0.048484  0.000000  0.023970      2.000000
 -0.048484  0.000000  0.023970      2.000000
 -0.024242  0.000000  0.023970      2.000000
  0.000000  0.024242  0.023970      4.000000
  0.024242  0.024242  0.023970      4.000000
  0.048484  0.024242  0.023970      4.000000
 -0.048484  0.024242  0.023970      4.000000
 -0.024242  0.024242  0.023970      4.000000
  0.000000  0.048484  0.023970      4.000000
  0.024242  0.048484  0.023970      4.000000
  0.048484  0.048484  0.023970      4.000000
 -0.048484  0.048484  0.023970      4.000000
 -0.024242  0.048484  0.023970      4.000000
  0.000000  0.000000  0.047939      1.000000
  0.024242  0.000000  0.047939      2.000000
  0.048484  0.000000  0.047939      2.000000
  0.000000  0.024242  0.047939      2.000000
  0.024242  0.024242  0.047939      4.000000
  0.048484  0.024242  0.047939      4.000000
  0.000000  0.048484  0.047939      2.000000
  0.024242  0.048484  0.047939      4.000000
  0.048484  0.048484  0.047939      4.000000
 


--------------------------------------------------------------------------------------------------------




 Dimension of arrays:
   k-points           NKPTS =     33   k-points in BZ     NKDIM =     33   number of bands    NBANDS=    166
   number of dos      NEDOS =    301   number of ions     NIONS =     54
   non local maximal  LDIM  =      6   non local SUM 2l+1 LMDIM =     18
   total plane-waves  NPLWV = 204120
   max r-space proj   IRMAX =      1   max aug-charges    IRDMAX=  89713
   dimension x,y,z NGX =    54 NGY =   54 NGZ =   70
   dimension x,y,z NGXF=   108 NGYF=  108 NGZF=  140
   support grid    NGXF=   216 NGYF=  216 NGZF=  280
   ions per type =              27  27
   NGX,Y,Z   is equivalent  to a cutoff of  10.88, 10.88, 11.16 a.u.
   NGXF,Y,Z  is equivalent  to a cutoff of  21.76, 21.76, 22.32 a.u.

 SYSTEM =  AlMn_pv                                 
 POSCAR =  NewRef: 27, @ ['Mn', array([1.37502469, 

 Startparameter for this run:
   NWRITE =      2    write-flag & timer
   PREC   = accura    normal or accurate (medium, high low for compatibility)
   ISTART =      0    job   : 0-new  1-cont  2-samecut
   ICHARG =      2    charge: 1-file 2-atom 10-const
   ISPIN  =      2    spin polarized calculation?
   LNONCOLLINEAR =      F non collinear calculations
   LSORBIT =      F    spin-orbit coupling
   INIWAV =      1    electr: 0-lowe 1-rand  2-diag
   LASPH  =      F    aspherical Exc in radial PAW
   METAGGA=      F    non-selfconsistent MetaGGA calc.

 Electronic Relaxation 1
   ENCUT  =  404.8 eV  29.75 Ry    5.45 a.u.  13.53 13.53 17.11*2*pi/ulx,y,z
   ENINI  =  404.8     initial cutoff
   ENAUG  =  500.7 eV  augmentation charge cutoff
   NELM   =    100;   NELMIN=  4; NELMDL= -8     # of ELM steps 
   EDIFF  = 0.1E-06   stopping-criterion for ELM
   LREAL  =      F    real-space projection
   NLSPLINE    = F    spline interpolate recip. space projectors
   LCOMPAT=      F    compatible to vasp.4.4
   GGA_COMPAT  = T    GGA compatible to vasp.4.4-vasp.4.6
   LMAXPAW     = -100 max onsite density
   LMAXMIX     =    2 max onsite mixed and CHGCAR
   VOSKOWN=      0    Vosko Wilk Nusair interpolation
   ROPT   =    0.00000   0.00000
 Ionic relaxation
   EDIFFG = 0.1E-05   stopping-criterion for IOM
   NSW    =      0    number of steps for IOM
   NBLOCK =      1;   KBLOCK =      1    inner block; outer block 
   IBRION =     -1    ionic relax: 0-MD 1-quasi-New 2-CG
   NFREE  =      0    steps in history (QN), initial steepest desc. (CG)
   ISIF   =      2    stress and relaxation
   IWAVPR =     10    prediction:  0-non 1-charg 2-wave 3-comb
   ISYM   =      2    0-nonsym 1-usesym 2-fastsym
   LCORR  =      T    Harris-Foulkes like correction to forces

   POTIM  = 0.2000    time-step for ionic-motion
   TEIN   =    0.0    initial temperature
   TEBEG  =    0.0;   TEEND  =   0.0 temperature during run
   SMASS  =  -3.00    Nose mass-parameter (am)
   estimated Nose-frequenzy (Omega)   =  0.10E-29 period in steps =****** mass=  -0.156E-26a.u.
   SCALEE = 1.0000    scale energy and forces
   NPACO  =    256;   APACO  = 16.0  distance and # of slots for P.C.
   PSTRESS=    0.0 pullay stress

  Mass of Ions in am
   POMASS =  26.98 54.94
  Ionic Valenz
   ZVAL   =   3.00  7.00
  Atomic Wigner-Seitz radii
   RWIGS  =  -1.00 -1.00
  virtual crystal weights 
   VCA    =   1.00  1.00
   NELECT =     270.0000    total number of electrons
   NUPDOWN=      -1.0000    fix difference up-down

 DOS related values:
   EMIN   =  10.00;   EMAX   =-10.00  energy-range for DOS
   EFERMI =   0.00
   ISMEAR =     1;   SIGMA  =   0.20  broadening in eV -4-tet -1-fermi 0-gaus

 Electronic relaxation 2 (details)
   IALGO  =     58    algorithm
   LDIAG  =      T    sub-space diagonalisation (order eigenvalues)
   LSUBROT=      F    optimize rotation matrix (better conditioning)
   TURBO    =      0    0=normal 1=particle mesh
   IRESTART =      0    0=no restart 2=restart with 2 vectors
   NREBOOT  =      0    no. of reboots
   NMIN     =      0    reboot dimension
   EREF     =   0.00    reference energy to select bands
   IMIX   =      4    mixing-type and parameters
     AMIX     =   0.40;   BMIX     =  1.00
     AMIX_MAG =   1.60;   BMIX_MAG =  1.00
     AMIN     =   0.10
     WC   =   100.;   INIMIX=   1;  MIXPRE=   1;  MAXMIX= -45

 Intra band minimization:
   WEIMIN = 0.0000     energy-eigenvalue tresh-hold
   EBREAK =  0.15E-09  absolut break condition
   DEPER  =   0.30     relativ break condition  

   TIME   =   0.40     timestep for ELM

  volume/ion in A,a.u.               =      13.15        88.72
  Fermi-wavevector in a.u.,A,eV,Ry     =   1.186118  2.241439 19.141722  1.406877
  Thomas-Fermi vector in A             =   2.322298
 
 Write flags
   LWAVE        =      F    write WAVECAR
   LDOWNSAMPLE  =      F    k-point downsampling of WAVECAR
   LCHARG       =      F    write CHGCAR
   LVTOT        =      F    write LOCPOT, total local potential
   LVHAR        =      F    write LOCPOT, Hartree potential only
   LELF         =      F    write electronic localiz. function (ELF)
   LORBIT       =     10    0 simple, 1 ext, 2 COOP (PROOUT), +10 PAW based schemes


 Dipole corrections
   LMONO  =      F    monopole corrections only (constant potential shift)
   LDIPOL =      F    correct potential (dipole corrections)
   IDIPOL =      0    1-x, 2-y, 3-z, 4-all directions 
   EPSILON=  1.0000000 bulk dielectric constant

 Exchange correlation treatment:
   GGA     =    --    GGA type
   LEXCH   =     8    internal setting for exchange type
   VOSKOWN=      0    Vosko Wilk Nusair interpolation
   LHFCALC =     F    Hartree Fock is set to
   LHFONE  =     F    Hartree Fock one center treatment
   AEXX    =    0.0000 exact exchange contribution

 Linear response parameters
   LEPSILON=     F    determine dielectric tensor
   LRPA    =     F    only Hartree local field effects (RPA)
   LNABLA  =     F    use nabla operator in PAW spheres
   LVEL    =     F    velocity operator in full k-point grid
   LINTERFAST=   F  fast interpolation
   KINTER  =     0    interpolate to denser k-point grid
   CSHIFT  =0.1000    complex shift for real part using Kramers Kronig
   OMEGAMAX=  -1.0    maximum frequency
   DEG_THRESHOLD= 0.2000000E-02 threshold for treating states as degnerate
   RTIME   =   -0.100 relaxation time in fs
  (WPLASMAI=    0.000 imaginary part of plasma frequency in eV, 0.658/RTIME)
   DFIELD  = 0.0000000 0.0000000 0.0000000 field for delta impulse in time
 
 Orbital magnetization related:
   ORBITALMAG=     F  switch on orbital magnetization
   LCHIMAG   =     F  perturbation theory with respect to B field
   DQ        =  0.001000  dq finite difference perturbation B field
   LLRAUG    =     F  two centre corrections for induced B field



--------------------------------------------------------------------------------------------------------


 Static calculation
 charge density and potential will be updated during run
 spin polarized calculation
 Conjugate gradient for all bands (Freysoldt, et al. PRB 79, 241103 (2009))
 preconditioned conjugated gradient                                        
 perform sub-space diagonalisation
    before iterative eigenvector-optimisation
 modified Broyden-mixing scheme, WC =      100.0
 initial mixing is a Kerker type mixing with AMIX =  0.4000 and BMIX =      1.0000
 Hartree-type preconditioning will be used
 using additional bands           31
 reciprocal scheme for non local part
 use partial core corrections
 no Harris-corrections to forces 
 use gradient corrections 
 use of overlap-Matrix (Vanderbilt PP)
 Methfessel and Paxton  Order N= 1 SIGMA  =   0.20


--------------------------------------------------------------------------------------------------------


  energy-cutoff  :      404.80
  volume of cell :      709.91
      direct lattice vectors                 reciprocal lattice vectors
     8.250148166  0.000000000  0.000000000     0.121209944  0.000000000  0.000000000
     0.000000000  8.250148166  0.000000000     0.000000000  0.121209944  0.000000000
     0.000000000  0.000000000 10.429911392     0.000000000  0.000000000  0.095878092

  length of vectors
     8.250148166  8.250148166 10.429911392     0.121209944  0.121209944  0.095878092


 
 k-points in units of 2pi/SCALE and weight: automatic KPOINTS                       
   0.00000000  0.00000000  0.00000000       0.010
   0.02424199  0.00000000  0.00000000       0.020
   0.04848398  0.00000000  0.00000000       0.020
   0.00000000  0.02424199  0.00000000       0.020
   0.02424199  0.02424199  0.00000000       0.040
   0.04848398  0.02424199  0.00000000       0.040
   0.00000000  0.04848398  0.00000000       0.020
   0.02424199  0.04848398  0.00000000       0.040
   0.04848398  0.04848398  0.00000000       0.040
   0.00000000  0.00000000  0.02396952       0.020
   0.02424199  0.00000000  0.02396952       0.020
   0.04848398  0.00000000  0.02396952       0.020
  -0.04848398  0.00000000  0.02396952       0.020
  -0.02424199  0.00000000  0.02396952       0.020
   0.00000000  0.02424199  0.02396952       0.040
   0.02424199  0.02424199  0.02396952       0.040
   0.04848398  0.02424199  0.02396952       0.040
  -0.04848398  0.02424199  0.02396952       0.040
  -0.02424199  0.02424199  0.02396952       0.040
   0.00000000  0.04848398  0.02396952       0.040
   0.02424199  0.04848398  0.02396952       0.040
   0.04848398  0.04848398  0.02396952       0.040
  -0.04848398  0.04848398  0.02396952       0.040
  -0.02424199  0.04848398  0.02396952       0.040
   0.00000000  0.00000000  0.04793905       0.010
   0.02424199  0.00000000  0.04793905       0.020
   0.04848398  0.00000000  0.04793905       0.020
   0.00000000  0.02424199  0.04793905       0.020
   0.02424199  0.02424199  0.04793905       0.040
   0.04848398  0.02424199  0.04793905       0.040
   0.00000000  0.04848398  0.04793905       0.020
   0.02424199  0.04848398  0.04793905       0.040
   0.04848398  0.04848398  0.04793905       0.040
 
 k-points in reciprocal lattice and weights: automatic KPOINTS                       
   0.00000000  0.00000000  0.00000000       0.010
   0.20000000  0.00000000  0.00000000       0.020
   0.40000000  0.00000000  0.00000000       0.020
   0.00000000  0.20000000  0.00000000       0.020
   0.20000000  0.20000000  0.00000000       0.040
   0.40000000  0.20000000  0.00000000       0.040
   0.00000000  0.40000000  0.00000000       0.020
   0.20000000  0.40000000  0.00000000       0.040
   0.40000000  0.40000000  0.00000000       0.040
   0.00000000  0.00000000  0.25000000       0.020
   0.20000000  0.00000000  0.25000000       0.020
   0.40000000  0.00000000  0.25000000       0.020
  -0.40000000  0.00000000  0.25000000       0.020
  -0.20000000  0.00000000  0.25000000       0.020
   0.00000000  0.20000000  0.25000000       0.040
   0.20000000  0.20000000  0.25000000       0.040
   0.40000000  0.20000000  0.25000000       0.040
  -0.40000000  0.20000000  0.25000000       0.040
  -0.20000000  0.20000000  0.25000000       0.040
   0.00000000  0.40000000  0.25000000       0.040
   0.20000000  0.40000000  0.25000000       0.040
   0.40000000  0.40000000  0.25000000       0.040
  -0.40000000  0.40000000  0.25000000       0.040
  -0.20000000  0.40000000  0.25000000       0.040
   0.00000000  0.00000000  0.50000000       0.010
   0.20000000  0.00000000  0.50000000       0.020
   0.40000000  0.00000000  0.50000000       0.020
   0.00000000  0.20000000  0.50000000       0.020
   0.20000000  0.20000000  0.50000000       0.040
   0.40000000  0.20000000  0.50000000       0.040
   0.00000000  0.40000000  0.50000000       0.020
   0.20000000  0.40000000  0.50000000       0.040
   0.40000000  0.40000000  0.50000000       0.040
 
 position of ions in fractional coordinates (direct lattice) 
   0.00000000  0.00000000  0.00000000
   0.00000000  0.00000000  0.33333333
   0.00000000  0.00000000  0.66666667
   0.00000000  0.33333333  0.00000000
   0.00000000  0.33333333  0.33333333
   0.00000000  0.33333333  0.66666667
   0.00000000  0.66666667  0.00000000
   0.00000000  0.66666667  0.33333333
   0.00000000  0.66666667  0.66666667
   0.33333333  0.00000000  0.00000000
   0.33333333  0.00000000  0.33333333
   0.33333333  0.00000000  0.66666667
   0.33333333  0.33333333  0.00000000
   0.33333333  0.33333333  0.33333333
   0.33333333  0.33333333  0.66666667
   0.33333333  0.66666667  0.00000000
   0.33333333  0.66666667  0.33333333
   0.33333333  0.66666667  0.66666667
   0.66666667  0.00000000  0.00000000
   0.66666667  0.00000000  0.33333333
   0.66666667  0.00000000  0.66666667
   0.66666667  0.33333333  0.00000000
   0.66666667  0.33333333  0.33333333
   0.66666667  0.33333333  0.66666667
   0.66666667  0.66666667  0.00000000
   0.66666667  0.66666667  0.33333333
   0.66666667  0.66666667  0.66666667
   0.16666667  0.16666667  0.16666667
   0.16666667  0.16666667  0.50000000
   0.16666667  0.16666667  0.83333333
   0.16666667  0.50000000  0.16666667
   0.16666667  0.50000000  0.50000000
   0.16666667  0.50000000  0.83333333
   0.16666667  0.83333333  0.16666667
   0.16666667  0.83333333  0.50000000
   0.16666667  0.83333333  0.83333333
   0.50000000  0.16666667  0.16666667
   0.50000000  0.16666667  0.50000000
   0.50000000  0.16666667  0.83333333
   0.50000000  0.50000000  0.16666667
   0.50000000  0.50000000  0.50000000
   0.50000000  0.50000000  0.83333333
   0.50000000  0.83333333  0.16666667
   0.50000000  0.83333333  0.50000000
   0.50000000  0.83333333  0.83333333
   0.83333333  0.16666667  0.16666667
   0.83333333  0.16666667  0.50000000
   0.83333333  0.16666667  0.83333333
   0.83333333  0.50000000  0.16666667
   0.83333333  0.50000000  0.50000000
   0.83333333  0.50000000  0.83333333
   0.83333333  0.83333333  0.16666667
   0.83333333  0.83333333  0.50000000
   0.83333333  0.83333333  0.83333333
 
 position of ions in cartesian coordinates  (Angst):
   0.00000000  0.00000000  0.00000000
   0.00000000  0.00000000  3.47663713
   0.00000000  0.00000000  6.95327426
   0.00000000  2.75004939  0.00000000
   0.00000000  2.75004939  3.47663713
   0.00000000  2.75004939  6.95327426
   0.00000000  5.50009878  0.00000000
   0.00000000  5.50009878  3.47663713
   0.00000000  5.50009878  6.95327426
   2.75004939  0.00000000  0.00000000
   2.75004939  0.00000000  3.47663713
   2.75004939  0.00000000  6.95327426
   2.75004939  2.75004939  0.00000000
   2.75004939  2.75004939  3.47663713
   2.75004939  2.75004939  6.95327426
   2.75004939  5.50009878  0.00000000
   2.75004939  5.50009878  3.47663713
   2.75004939  5.50009878  6.95327426
   5.50009878  0.00000000  0.00000000
   5.50009878  0.00000000  3.47663713
   5.50009878  0.00000000  6.95327426
   5.50009878  2.75004939  0.00000000
   5.50009878  2.75004939  3.47663713
   5.50009878  2.75004939  6.95327426
   5.50009878  5.50009878  0.00000000
   5.50009878  5.50009878  3.47663713
   5.50009878  5.50009878  6.95327426
   1.37502469  1.37502469  1.73831857
   1.37502469  1.37502469  5.21495570
   1.37502469  1.37502469  8.69159283
   1.37502469  4.12507408  1.73831857
   1.37502469  4.12507408  5.21495570
   1.37502469  4.12507408  8.69159283
   1.37502469  6.87512347  1.73831857
   1.37502469  6.87512347  5.21495570
   1.37502469  6.87512347  8.69159283
   4.12507408  1.37502469  1.73831857
   4.12507408  1.37502469  5.21495570
   4.12507408  1.37502469  8.69159283
   4.12507408  4.12507408  1.73831857
   4.12507408  4.12507408  5.21495570
   4.12507408  4.12507408  8.69159283
   4.12507408  6.87512347  1.73831857
   4.12507408  6.87512347  5.21495570
   4.12507408  6.87512347  8.69159283
   6.87512347  1.37502469  1.73831857
   6.87512347  1.37502469  5.21495570
   6.87512347  1.37502469  8.69159283
   6.87512347  4.12507408  1.73831857
   6.87512347  4.12507408  5.21495570
   6.87512347  4.12507408  8.69159283
   6.87512347  6.87512347  1.73831857
   6.87512347  6.87512347  5.21495570
   6.87512347  6.87512347  8.69159283
 


--------------------------------------------------------------------------------------------------------


 k-point  1 :   0.0000 0.0000 0.0000  plane waves:   13099
 k-point  2 :   0.2000 0.0000 0.0000  plane waves:   13101
 k-point  3 :   0.4000 0.0000 0.0000  plane waves:   13111
 k-point  4 :   0.0000 0.2000 0.0000  plane waves:   13101
 k-point  5 :   0.2000 0.2000 0.0000  plane waves:   13137
 k-point  6 :   0.4000 0.2000 0.0000  plane waves:   13119
 k-point  7 :   0.0000 0.4000 0.0000  plane waves:   13111
 k-point  8 :   0.2000 0.4000 0.0000  plane waves:   13119
 k-point  9 :   0.4000 0.4000 0.0000  plane waves:   13129
 k-point 10 :   0.0000 0.0000 0.2500  plane waves:   13134
 k-point 11 :   0.2000 0.0000 0.2500  plane waves:   13149
 k-point 12 :   0.4000 0.0000 0.2500  plane waves:   13119
 k-point 13 :  -0.4000 0.0000 0.2500  plane waves:   13119
 k-point 14 :  -0.2000 0.0000 0.2500  plane waves:   13149
 k-point 15 :   0.0000 0.2000 0.2500  plane waves:   13149
 k-point 16 :   0.2000 0.2000 0.2500  plane waves:   13145
 k-point 17 :   0.4000 0.2000 0.2500  plane waves:   13134
 k-point 18 :  -0.4000 0.2000 0.2500  plane waves:   13134
 k-point 19 :  -0.2000 0.2000 0.2500  plane waves:   13145
 k-point 20 :   0.0000 0.4000 0.2500  plane waves:   13119
 k-point 21 :   0.2000 0.4000 0.2500  plane waves:   13134
 k-point 22 :   0.4000 0.4000 0.2500  plane waves:   13108
 k-point 23 :  -0.4000 0.4000 0.2500  plane waves:   13108
 k-point 24 :  -0.2000 0.4000 0.2500  plane waves:   13134
 k-point 25 :   0.0000 0.0000 0.5000  plane waves:   13186
 k-point 26 :   0.2000 0.0000 0.5000  plane waves:   13124
 k-point 27 :   0.4000 0.0000 0.5000  plane waves:   13152
 k-point 28 :   0.0000 0.2000 0.5000  plane waves:   13124
 k-point 29 :   0.2000 0.2000 0.5000  plane waves:   13136
 k-point 30 :   0.4000 0.2000 0.5000  plane waves:   13128
 k-point 31 :   0.0000 0.4000 0.5000  plane waves:   13152
 k-point 32 :   0.2000 0.4000 0.5000  plane waves:   13128
 k-point 33 :   0.4000 0.4000 0.5000  plane waves:   13112

 maximum and minimum number of plane-waves per node :      3304     3246

 maximum number of plane-waves:     13186
 maximum index in each direction: 
   IXMAX=   13   IYMAX=   13   IZMAX=   17
   IXMIN=  -13   IYMIN=  -13   IZMIN=  -17


 parallel 3D FFT for wavefunctions:
    minimum data exchange during FFTs selected (reduces bandwidth)
 parallel 3D FFT for charge:
    minimum data exchange during FFTs selected (reduces bandwidth)


 total amount of memory used by VASP MPI-rank0  1032638. kBytes
=======================================================================

   base      :      30000. kBytes
   nonl-proj :      34193. kBytes
   fftplans  :      31580. kBytes
   grid      :      21385. kBytes
   one-center:        435. kBytes
   wavefun   :     915045. kBytes
 
     INWAV:  cpu time    0.0001: real time    0.0001
 Broyden mixing: mesh for mixing (old mesh)
   NGX = 27   NGY = 27   NGZ = 35
  (NGX  =108   NGY  =108   NGZ  =140)
  gives a total of  25515 points

 initial charge density was supplied:
 charge density of overlapping atoms calculated
 number of electron     270.0000000 magnetization       3.0000000
 keeping initial charge density in first step


--------------------------------------------------------------------------------------------------------


 Maximum index for augmentation-charges        10967 (set IRDMAX)


--------------------------------------------------------------------------------------------------------


 First call to EWALD:  gamma=   0.199
 Maximum number of real-space cells 3x 3x 2
 Maximum number of reciprocal cells 3x 3x 3

    FEWALD:  cpu time    0.0038: real time    0.0038


--------------------------------------- Iteration      1(   1)  ---------------------------------------


    POTLOK:  cpu time    0.4072: real time    0.4072
    SETDIJ:  cpu time    0.4611: real time    0.4615
    TRIAL :  cpu time   37.6234: real time   37.8374
    CORREC:  cpu time    0.0065: real time    0.0074
    --------------------------------------------
      LOOP:  cpu time   38.8055: real time   39.0260

 eigenvalue-minimisations  : 21912
 total energy-change (2. order) : 0.2054272E+04  (-0.8753009E+04)
 number of electron     270.0000000 magnetization       3.0000000
 augmentation part      270.0000000 magnetization       3.0000000

 Free energy of the ion-electron system (eV)
  ---------------------------------------------------
  alpha Z        PSCENC =       798.38614055
  Ewald energy   TEWEN  =    -12901.57693327
  -Hartree energ DENC   =     -2855.60785864
  -exchange      EXHF   =         0.00000000
  -V(xc)+E(xc)   XCENC  =      -996.16173829
  PAW double counting   =     12741.82587617   -11476.22345381
  entropy T*S    EENTRO =         0.00419820
  eigenvalues    EBANDS =      4045.95149028
  atomic energy  EATOM  =     12697.67401269
  ---------------------------------------------------
  free energy    TOTEN  =      2054.27173387 eV

  energy without entropy =     2054.26753567  energy(sigma->0) =     2054.27033447


--------------------------------------------------------------------------------------------------------




--------------------------------------- Iteration      1(   2)  ---------------------------------------


    TRIAL :  cpu time   38.6153: real time   38.7895
    CORREC:  cpu time    0.0083: real time    0.0085
    --------------------------------------------
      LOOP:  cpu time   38.6246: real time   38.8010

 eigenvalue-minimisations  : 21912
 total energy-change (2. order) :-0.2127648E+04  (-0.2082587E+04)
 number of electron     270.0000000 magnetization       3.0000000
 augmentation part      270.0000000 magnetization       3.0000000

 Free energy of the ion-electron system (eV)
  ---------------------------------------------------
  alpha Z        PSCENC =       798.38614055
  Ewald energy   TEWEN  =    -12901.57693327
  -Hartree energ DENC   =     -2855.60785864
  -exchange      EXHF   =         0.00000000
  -V(xc)+E(xc)   XCENC  =      -996.16173829
  PAW double counting   =     12741.82587617   -11476.22345381
  entropy T*S    EENTRO =        -0.00087807
  eigenvalues    EBANDS =      1918.30903578
  atomic energy  EATOM  =     12697.67401269
  ---------------------------------------------------
  free energy    TOTEN  =       -73.37579689 eV

  energy without entropy =      -73.37491883  energy(sigma->0) =      -73.37550420


--------------------------------------------------------------------------------------------------------




--------------------------------------- Iteration      1(   3)  ---------------------------------------


    TRIAL :  cpu time   52.1639: real time   53.3272
    CORREC:  cpu time    0.0098: real time    0.0106
    --------------------------------------------
      LOOP:  cpu time   52.1745: real time   53.3413

 eigenvalue-minimisations  : 32960
 total energy-change (2. order) :-0.2759587E+03  (-0.2473860E+03)
 number of electron     270.0000000 magnetization       3.0000000
 augmentation part      270.0000000 magnetization       3.0000000

 Free energy of the ion-electron system (eV)
  ---------------------------------------------------
  alpha Z        PSCENC =       798.38614055
  Ewald energy   TEWEN  =    -12901.57693327
  -Hartree energ DENC   =     -2855.60785864
  -exchange      EXHF   =         0.00000000
  -V(xc)+E(xc)   XCENC  =      -996.16173829
  PAW double counting   =     12741.82587617   -11476.22345381
  entropy T*S    EENTRO =         0.00617289
  eigenvalues    EBANDS =      1642.34323567
  atomic energy  EATOM  =     12697.67401269
  ---------------------------------------------------
  free energy    TOTEN  =      -349.33454604 eV

  energy without entropy =     -349.34071893  energy(sigma->0) =     -349.33660367


--------------------------------------------------------------------------------------------------------




--------------------------------------- Iteration      1(   4)  ---------------------------------------


    TRIAL :  cpu time   55.7046: real time   56.8687
    CORREC:  cpu time    0.0551: real time    0.0559
    --------------------------------------------
      LOOP:  cpu time   55.7605: real time   56.9278

 eigenvalue-minimisations  : 35592
 total energy-change (2. order) :-0.4846642E+02  (-0.4303174E+02)
 number of electron     270.0000000 magnetization       3.0000000
 augmentation part      270.0000000 magnetization       3.0000000

 Free energy of the ion-electron system (eV)
  ---------------------------------------------------
  alpha Z        PSCENC =       798.38614055
  Ewald energy   TEWEN  =    -12901.57693327
  -Hartree energ DENC   =     -2855.60785864
  -exchange      EXHF   =         0.00000000
  -V(xc)+E(xc)   XCENC  =      -996.16173829
  PAW double counting   =     12741.82587617   -11476.22345381
  entropy T*S    EENTRO =         0.02916928
  eigenvalues    EBANDS =      1593.85381466
  atomic energy  EATOM  =     12697.67401269
  ---------------------------------------------------
  free energy    TOTEN  =      -397.80097067 eV

  energy without entropy =     -397.83013995  energy(sigma->0) =     -397.81069377


--------------------------------------------------------------------------------------------------------




--------------------------------------- Iteration      1(   5)  ---------------------------------------


    TRIAL :  cpu time   57.7088: real time   58.2230
    CORREC:  cpu time    0.0105: real time    0.0113
    --------------------------------------------
      LOOP:  cpu time   57.7206: real time   58.2378

 eigenvalue-minimisations  : 36864
 total energy-change (2. order) :-0.5763819E+01  (-0.5496924E+01)
 number of electron     270.0000000 magnetization       3.0000000
 augmentation part      270.0000000 magnetization       3.0000000

 Free energy of the ion-electron system (eV)
  ---------------------------------------------------
  alpha Z        PSCENC =       798.38614055
  Ewald energy   TEWEN  =    -12901.57693327
  -Hartree energ DENC   =     -2855.60785864
  -exchange      EXHF   =         0.00000000
  -V(xc)+E(xc)   XCENC  =      -996.16173829
  PAW double counting   =     12741.82587617   -11476.22345381
  entropy T*S    EENTRO =         0.03184275
  eigenvalues    EBANDS =      1588.08732221
  atomic energy  EATOM  =     12697.67401269
  ---------------------------------------------------
  free energy    TOTEN  =      -403.56478964 eV

  energy without entropy =     -403.59663239  energy(sigma->0) =     -403.57540389


--------------------------------------------------------------------------------------------------------




--------------------------------------- Iteration      1(   6)  ---------------------------------------


    TRIAL :  cpu time   56.3652: real time   57.5825
    CORREC:  cpu time    0.0103: real time    0.0111
    --------------------------------------------
      LOOP:  cpu time   56.3763: real time   57.5970

 eigenvalue-minimisations  : 36544
 total energy-change (2. order) :-0.4691435E+00  (-0.4575190E+00)
 number of electron     270.0000000 magnetization       3.0000000
 augmentation part      270.0000000 magnetization       3.0000000

 Free energy of the ion-electron system (eV)
  ---------------------------------------------------
  alpha Z        PSCENC =       798.38614055
  Ewald energy   TEWEN  =    -12901.57693327
  -Hartree energ DENC   =     -2855.60785864
  -exchange      EXHF   =         0.00000000
  -V(xc)+E(xc)   XCENC  =      -996.16173829
  PAW double counting   =     12741.82587617   -11476.22345381
  entropy T*S    EENTRO =         0.03353677
  eigenvalues    EBANDS =      1587.61648467
  atomic energy  EATOM  =     12697.67401269
  ---------------------------------------------------
  free energy    TOTEN  =      -404.03393317 eV

  energy without entropy =     -404.06746994  energy(sigma->0) =     -404.04511209


--------------------------------------------------------------------------------------------------------




--------------------------------------- Iteration      1(   7)  ---------------------------------------


    TRIAL :  cpu time   58.0741: real time   58.4804
    CORREC:  cpu time    0.0105: real time    0.0114
    --------------------------------------------
      LOOP:  cpu time   58.0857: real time   58.4951

 eigenvalue-minimisations  : 37376
 total energy-change (2. order) :-0.5190587E-01  (-0.5120829E-01)
 number of electron     270.0000000 magnetization       3.0000000
 augmentation part      270.0000000 magnetization       3.0000000

 Free energy of the ion-electron system (eV)
  ---------------------------------------------------
  alpha Z        PSCENC =       798.38614055
  Ewald energy   TEWEN  =    -12901.57693327
  -Hartree energ DENC   =     -2855.60785864
  -exchange      EXHF   =         0.00000000
  -V(xc)+E(xc)   XCENC  =      -996.16173829
  PAW double counting   =     12741.82587617   -11476.22345381
  entropy T*S    EENTRO =         0.03417335
  eigenvalues    EBANDS =      1587.56394222
  atomic energy  EATOM  =     12697.67401269
  ---------------------------------------------------
  free energy    TOTEN  =      -404.08583904 eV

  energy without entropy =     -404.12001239  energy(sigma->0) =     -404.09723015


--------------------------------------------------------------------------------------------------------




--------------------------------------- Iteration      1(   8)  ---------------------------------------


    TRIAL :  cpu time   56.1021: real time   56.5933
    CORREC:  cpu time    0.0108: real time    0.0110
    CHARGE:  cpu time    1.7623: real time    1.7629
    --------------------------------------------
      LOOP:  cpu time   57.8766: real time   58.3712

 eigenvalue-minimisations  : 35712
 total energy-change (2. order) :-0.4761949E-02  (-0.4716798E-02)
 number of electron     269.9999995 magnetization       1.7787978
 augmentation part       64.1684224 magnetization       1.0592116

 Free energy of the ion-electron system (eV)
  ---------------------------------------------------
  alpha Z        PSCENC =       798.38614055
  Ewald energy   TEWEN  =    -12901.57693327
  -Hartree energ DENC   =     -2855.60785864
  -exchange      EXHF   =         0.00000000
  -V(xc)+E(xc)   XCENC  =      -996.16173829
  PAW double counting   =     12741.82587617   -11476.22345381
  entropy T*S    EENTRO =         0.03438842
  eigenvalues    EBANDS =      1587.55896521
  atomic energy  EATOM  =     12697.67401269
  ---------------------------------------------------
  free energy    TOTEN  =      -404.09060098 eV

  energy without entropy =     -404.12498940  energy(sigma->0) =     -404.10206379


--------------------------------------------------------------------------------------------------------




--------------------------------------- Iteration      1(   9)  ---------------------------------------


    POTLOK:  cpu time    0.3993: real time    0.3993
    SETDIJ:  cpu time    0.4583: real time    0.4583
    TRIAL :  cpu time   19.1288: real time   19.2028
    CORREC:  cpu time    5.7743: real time    5.8780
    CHARGE:  cpu time    1.7591: real time    1.8237
    --------------------------------------------
      LOOP:  cpu time   27.5425: real time   27.7853

 eigenvalue-minimisations  :     0
 total energy-change (2. order) : 0.3005091E+03  (-0.2175834E+03)
 number of electron     269.9999993 magnetization       2.1229148
 augmentation part       82.5024960 magnetization       1.4379096

 Free energy of the ion-electron system (eV)
  ---------------------------------------------------
  alpha Z        PSCENC =       798.38614055
  Ewald energy   TEWEN  =    -12901.57693327
  -Hartree energ DENC   =     -1271.21953290
  -exchange      EXHF   =         0.00000000
  -V(xc)+E(xc)   XCENC  =     -1041.79674372
  PAW double counting   =     19165.03991221   -17745.36807981
  entropy T*S    EENTRO =         0.00364632
  eigenvalues    EBANDS =       195.24538016
  atomic energy  EATOM  =     12697.67401269
  ---------------------------------------------------
  free energy    TOTEN  =      -103.58145567 eV

  energy without entropy =     -103.58510200  energy(sigma->0) =     -103.58267111


--------------------------------------------------------------------------------------------------------




--------------------------------------- Iteration      1(  10)  ---------------------------------------


    POTLOK:  cpu time    0.3947: real time    0.3947
    SETDIJ:  cpu time    0.4665: real time    0.4868
    TRIAL :  cpu time   19.0082: real time   19.8663
    CORREC:  cpu time    5.7942: real time    5.8497
    CHARGE:  cpu time    1.7701: real time    1.7705
    --------------------------------------------
      LOOP:  cpu time   27.4411: real time   28.3756

 eigenvalue-minimisations  :     0
 total energy-change (2. order) :-0.2138113E+03  (-0.1218530E+02)
 number of electron     269.9999993 magnetization       2.1326829
 augmentation part       86.2776046 magnetization       1.4452298

 Free energy of the ion-electron system (eV)
  ---------------------------------------------------
  alpha Z        PSCENC =       798.38614055
  Ewald energy   TEWEN  =    -12901.57693327
  -Hartree energ DENC   =     -2107.22272095
  -exchange      EXHF   =         0.00000000
  -V(xc)+E(xc)   XCENC  =     -1012.72893364
  PAW double counting   =     20635.81165354   -19397.32015545
  entropy T*S    EENTRO =        -0.00057551
  eigenvalues    EBANDS =       969.58049390
  atomic energy  EATOM  =     12697.67401269
  ---------------------------------------------------
  free energy    TOTEN  =      -317.39279631 eV

  energy without entropy =     -317.39222079  energy(sigma->0) =     -317.39260447


--------------------------------------------------------------------------------------------------------




--------------------------------------- Iteration      1(  11)  ---------------------------------------


    POTLOK:  cpu time    0.3952: real time    0.3952
    SETDIJ:  cpu time    0.5023: real time    0.5026
    TRIAL :  cpu time   19.0857: real time   19.1511
    CORREC:  cpu time    5.8148: real time    5.8701
    CHARGE:  cpu time    1.7653: real time    1.8296
    --------------------------------------------
      LOOP:  cpu time   27.5683: real time   27.7556

 eigenvalue-minimisations  :     0
 total energy-change (2. order) :-0.1147649E+02  (-0.1062412E+02)
 number of electron     269.9999993 magnetization       2.3263135
 augmentation part       88.9494831 magnetization       1.6032096

 Free energy of the ion-electron system (eV)
  ---------------------------------------------------
  alpha Z        PSCENC =       798.38614055
  Ewald energy   TEWEN  =    -12901.57693327
  -Hartree energ DENC   =     -2329.56747585
  -exchange      EXHF   =         0.00000000
  -V(xc)+E(xc)   XCENC  =     -1004.50811577
  PAW double counting   =     21513.05307959   -20312.26144726
  entropy T*S    EENTRO =         0.00032166
  eigenvalues    EBANDS =      1209.93202798
  atomic energy  EATOM  =     12697.67401269
  ---------------------------------------------------
  free energy    TOTEN  =      -328.86928686 eV

  energy without entropy =     -328.86960852  energy(sigma->0) =     -328.86939408


--------------------------------------------------------------------------------------------------------




--------------------------------------- Iteration      1(  12)  ---------------------------------------


    POTLOK:  cpu time    0.3951: real time    0.3951
    SETDIJ:  cpu time    0.4595: real time    0.4595
    TRIAL :  cpu time   19.0093: real time   19.8780
    CORREC:  cpu time    5.7733: real time    5.7939
    CHARGE:  cpu time    1.7567: real time    1.7733
    --------------------------------------------
      LOOP:  cpu time   27.4098: real time   28.3173

 eigenvalue-minimisations  :     0
 total energy-change (2. order) :-0.1073823E+02  (-0.1298750E+02)
 number of electron     269.9999993 magnetization       2.4670897
 augmentation part       86.7825673 magnetization       1.7046957

 Free energy of the ion-electron system (eV)
  ---------------------------------------------------
  alpha Z        PSCENC =       798.38614055
  Ewald energy   TEWEN  =    -12901.57693327
  -Hartree energ DENC   =     -2536.05031495
  -exchange      EXHF   =         0.00000000
  -V(xc)+E(xc)   XCENC  =      -997.33769877
  PAW double counting   =     21862.89233460   -20677.60364158
  entropy T*S    EENTRO =        -0.01559759
  eigenvalues    EBANDS =      1414.00825821
  atomic energy  EATOM  =     12697.67401269
  ---------------------------------------------------
  free energy    TOTEN  =      -339.60752086 eV

  energy without entropy =     -339.59192328  energy(sigma->0) =     -339.60232167


--------------------------------------------------------------------------------------------------------




--------------------------------------- Iteration      1(  13)  ---------------------------------------


    POTLOK:  cpu time    0.3950: real time    0.3951
    SETDIJ:  cpu time    0.4584: real time    0.4584
    TRIAL :  cpu time   19.0937: real time   19.1549
    CORREC:  cpu time    5.7872: real time    5.8190
    CHARGE:  cpu time    1.7627: real time    1.7629
    --------------------------------------------
      LOOP:  cpu time   27.5070: real time   27.6006

 eigenvalue-minimisations  :     0
 total energy-change (2. order) :-0.1286719E+02  (-0.8617790E+00)
 number of electron     269.9999993 magnetization       2.4747209
 augmentation part       86.3209201 magnetization       1.6832079

 Free energy of the ion-electron system (eV)
  ---------------------------------------------------
  alpha Z        PSCENC =       798.38614055
  Ewald energy   TEWEN  =    -12901.57693327
  -Hartree energ DENC   =     -2517.11730581
  -exchange      EXHF   =         0.00000000
  -V(xc)+E(xc)   XCENC  =      -998.98549218
  PAW double counting   =     21251.17464842   -20013.80257153
  entropy T*S    EENTRO =        -0.01677817
  eigenvalues    EBANDS =      1331.78838433
  atomic energy  EATOM  =     12697.67401269
  ---------------------------------------------------
  free energy    TOTEN  =      -352.47471439 eV

  energy without entropy =     -352.45793622  energy(sigma->0) =     -352.46912167


--------------------------------------------------------------------------------------------------------




--------------------------------------- Iteration      1(  14)  ---------------------------------------


    POTLOK:  cpu time    0.3927: real time    0.3930
    SETDIJ:  cpu time    0.4140: real time    0.5146
    TRIAL :  cpu time   19.0338: real time   19.2466
    CORREC:  cpu time    6.1753: real time    6.8665
    CHARGE:  cpu time    1.7469: real time    1.7563
    --------------------------------------------
      LOOP:  cpu time   27.7688: real time   28.7845

 eigenvalue-minimisations  :     0
 total energy-change (2. order) :-0.8405571E+00  (-0.1242887E+01)
 number of electron     269.9999993 magnetization       2.5546369
 augmentation part       85.9527886 magnetization       1.7004748

 Free energy of the ion-electron system (eV)
  ---------------------------------------------------
  alpha Z        PSCENC =       798.38614055
  Ewald energy   TEWEN  =    -12901.57693327
  -Hartree energ DENC   =     -2493.57989913
  -exchange      EXHF   =         0.00000000
  -V(xc)+E(xc)   XCENC  =      -999.89414205
  PAW double counting   =     20980.73796047   -19735.41817216
  entropy T*S    EENTRO =        -0.01431758
  eigenvalues    EBANDS =      1300.37253955
  atomic energy  EATOM  =     12697.67401269
  ---------------------------------------------------
  free energy    TOTEN  =      -353.31527152 eV

  energy without entropy =     -353.30095394  energy(sigma->0) =     -353.31049900


--------------------------------------------------------------------------------------------------------




--------------------------------------- Iteration      1(  15)  ---------------------------------------


    POTLOK:  cpu time    0.3934: real time    0.3934
    SETDIJ:  cpu time    0.4601: real time    0.4600
    TRIAL :  cpu time   19.4982: real time   19.5709
    CORREC:  cpu time    5.7286: real time    5.7716
    CHARGE:  cpu time    1.7607: real time    1.7748
    --------------------------------------------
      LOOP:  cpu time   27.8695: real time   28.0004

 eigenvalue-minimisations  :     0
 total energy-change (2. order) :-0.1241173E+01  (-0.6613388E+00)
 number of electron     269.9999993 magnetization       2.5597167
 augmentation part       86.5020422 magnetization       1.7374900

 Free energy of the ion-electron system (eV)
  ---------------------------------------------------
  alpha Z        PSCENC =       798.38614055
  Ewald energy   TEWEN  =    -12901.57693327
  -Hartree energ DENC   =     -2462.36585178
  -exchange      EXHF   =         0.00000000
  -V(xc)+E(xc)   XCENC  =     -1001.06144365
  PAW double counting   =     20173.67273754   -18918.35323332
  entropy T*S    EENTRO =        -0.01263948
  eigenvalues    EBANDS =      1259.08244448
  atomic energy  EATOM  =     12697.67401269
  ---------------------------------------------------
  free energy    TOTEN  =      -354.55644435 eV

  energy without entropy =     -354.54380487  energy(sigma->0) =     -354.55223119


--------------------------------------------------------------------------------------------------------




--------------------------------------- Iteration      1(  16)  ---------------------------------------


    POTLOK:  cpu time    0.3941: real time    0.3940
    SETDIJ:  cpu time    0.4752: real time    0.4752
    TRIAL :  cpu time   19.0271: real time   19.2682
    CORREC:  cpu time    5.8404: real time    5.8820
    CHARGE:  cpu time    1.7512: real time    2.4010
    --------------------------------------------
      LOOP:  cpu time   27.4948: real time   28.4288

 eigenvalue-minimisations  :     0
 total energy-change (2. order) :-0.6580658E+00  (-0.2950985E+00)
 number of electron     269.9999992 magnetization       2.5713145
 augmentation part       87.1108513 magnetization       1.7555187

 Free energy of the ion-electron system (eV)
  ---------------------------------------------------
  alpha Z        PSCENC =       798.38614055
  Ewald energy   TEWEN  =    -12901.57693327
  -Hartree energ DENC   =     -2481.54408428
  -exchange      EXHF   =         0.00000000
  -V(xc)+E(xc)   XCENC  =     -1000.31477476
  PAW double counting   =     19789.15064173   -18536.96690620
  entropy T*S    EENTRO =        -0.01094115
  eigenvalues    EBANDS =      1279.99003285
  atomic energy  EATOM  =     12697.67401269
  ---------------------------------------------------
  free energy    TOTEN  =      -355.21451017 eV

  energy without entropy =     -355.20356902  energy(sigma->0) =     -355.21086312


--------------------------------------------------------------------------------------------------------




--------------------------------------- Iteration      1(  17)  ---------------------------------------


    POTLOK:  cpu time    0.3943: real time    0.3942
    SETDIJ:  cpu time    0.4865: real time    0.4865
    TRIAL :  cpu time   19.0682: real time   19.1447
    CORREC:  cpu time    6.5165: real time    6.5334
    CHARGE:  cpu time    1.7346: real time    1.7461
    --------------------------------------------
      LOOP:  cpu time   28.2438: real time   28.3490

 eigenvalue-minimisations  :     0
 total energy-change (2. order) :-0.2954922E+00  (-0.2418971E+00)
 number of electron     269.9999992 magnetization       2.6624708
 augmentation part       87.2791069 magnetization       1.7970607

 Free energy of the ion-electron system (eV)
  ---------------------------------------------------
  alpha Z        PSCENC =       798.38614055
  Ewald energy   TEWEN  =    -12901.57693327
  -Hartree energ DENC   =     -2508.55824318
  -exchange      EXHF   =         0.00000000
  -V(xc)+E(xc)   XCENC  =      -999.22390913
  PAW double counting   =     19651.22215255   -18404.72425683
  entropy T*S    EENTRO =        -0.00943829
  eigenvalues    EBANDS =      1311.30197542
  atomic energy  EATOM  =     12697.67401269
  ---------------------------------------------------
  free energy    TOTEN  =      -355.51000235 eV

  energy without entropy =     -355.50056406  energy(sigma->0) =     -355.50685626


--------------------------------------------------------------------------------------------------------




--------------------------------------- Iteration      1(  18)  ---------------------------------------


    POTLOK:  cpu time    0.3878: real time    0.3981
    SETDIJ:  cpu time    0.5018: real time    0.5018
    TRIAL :  cpu time   19.0299: real time   19.2533
    CORREC:  cpu time    5.7693: real time    5.8139
    CHARGE:  cpu time    1.7749: real time    1.8026
    --------------------------------------------
      LOOP:  cpu time   27.4838: real time   27.7911

 eigenvalue-minimisations  :     0
 total energy-change (2. order) :-0.2418961E+00  (-0.1800749E+00)
 number of electron     269.9999992 magnetization       2.6566328
 augmentation part       87.0810811 magnetization       1.8182568

 Free energy of the ion-electron system (eV)
  ---------------------------------------------------
  alpha Z        PSCENC =       798.38614055
  Ewald energy   TEWEN  =    -12901.57693327
  -Hartree energ DENC   =     -2513.87890619
  -exchange      EXHF   =         0.00000000
  -V(xc)+E(xc)   XCENC  =      -998.77092277
  PAW double counting   =     19553.87545017   -18308.88225097
  entropy T*S    EENTRO =        -0.00819517
  eigenvalues    EBANDS =      1317.43094958
  atomic energy  EATOM  =     12697.67401269
  ---------------------------------------------------
  free energy    TOTEN  =      -355.75189849 eV

  energy without entropy =     -355.74370333  energy(sigma->0) =     -355.74916677


--------------------------------------------------------------------------------------------------------




--------------------------------------- Iteration      1(  19)  ---------------------------------------


    POTLOK:  cpu time    0.3932: real time    0.3932
    SETDIJ:  cpu time    0.5030: real time    0.5036
    TRIAL :  cpu time   19.1014: real time   19.9084
    CORREC:  cpu time    6.2888: real time    6.2913
    CHARGE:  cpu time    1.7367: real time    1.7369
    --------------------------------------------
      LOOP:  cpu time   28.0262: real time   28.8379

 eigenvalue-minimisations  :     0
 total energy-change (2. order) :-0.1792832E+00  (-0.5056313E-01)
 number of electron     269.9999992 magnetization       2.6575061
 augmentation part       86.9599692 magnetization       1.8270692

 Free energy of the ion-electron system (eV)
  ---------------------------------------------------
  alpha Z        PSCENC =       798.38614055
  Ewald energy   TEWEN  =    -12901.57693327
  -Hartree energ DENC   =     -2501.64191770
  -exchange      EXHF   =         0.00000000
  -V(xc)+E(xc)   XCENC  =      -998.96594467
  PAW double counting   =     19485.58119697   -18238.37286521
  entropy T*S    EENTRO =        -0.00790563
  eigenvalues    EBANDS =      1302.99332406
  atomic energy  EATOM  =     12697.67401269
  ---------------------------------------------------
  free energy    TOTEN  =      -355.93118173 eV

  energy without entropy =     -355.92327611  energy(sigma->0) =     -355.92854652


--------------------------------------------------------------------------------------------------------




--------------------------------------- Iteration      1(  20)  ---------------------------------------


    POTLOK:  cpu time    0.3935: real time    0.3938
    SETDIJ:  cpu time    0.4796: real time    0.4797
    TRIAL :  cpu time   19.0062: real time   19.2601
    CORREC:  cpu time    5.7950: real time    5.8456
    CHARGE:  cpu time    1.7631: real time    1.7635
    --------------------------------------------
      LOOP:  cpu time   27.4444: real time   27.7529

 eigenvalue-minimisations  :     0
 total energy-change (2. order) :-0.5032652E-01  (-0.9130072E-01)
 number of electron     269.9999992 magnetization       2.7119364
 augmentation part       86.7974594 magnetization       1.8578282

 Free energy of the ion-electron system (eV)
  ---------------------------------------------------
  alpha Z        PSCENC =       798.38614055
  Ewald energy   TEWEN  =    -12901.57693327
  -Hartree energ DENC   =     -2495.76018342
  -exchange      EXHF   =         0.00000000
  -V(xc)+E(xc)   XCENC  =      -999.10528269
  PAW double counting   =     19469.34167917   -18220.90539113
  entropy T*S    EENTRO =        -0.00755003
  eigenvalues    EBANDS =      1295.97235547
  atomic energy  EATOM  =     12697.67401269
  ---------------------------------------------------
  free energy    TOTEN  =      -355.98150826 eV

  energy without entropy =     -355.97395823  energy(sigma->0) =     -355.97899158


--------------------------------------------------------------------------------------------------------




--------------------------------------- Iteration      1(  21)  ---------------------------------------


    POTLOK:  cpu time    0.3925: real time    0.3925
    SETDIJ:  cpu time    0.4810: real time    0.4810
    TRIAL :  cpu time   19.1137: real time   19.9407
    CORREC:  cpu time    5.8077: real time    5.8292
    CHARGE:  cpu time    1.7639: real time    1.7644
    --------------------------------------------
      LOOP:  cpu time   27.5623: real time   28.4134

 eigenvalue-minimisations  :     0
 total energy-change (2. order) :-0.9134668E-01  (-0.5109070E-01)
 number of electron     269.9999992 magnetization       2.7241927
 augmentation part       86.8760821 magnetization       1.8748756

 Free energy of the ion-electron system (eV)
  ---------------------------------------------------
  alpha Z        PSCENC =       798.38614055
  Ewald energy   TEWEN  =    -12901.57693327
  -Hartree energ DENC   =     -2490.62380595
  -exchange      EXHF   =         0.00000000
  -V(xc)+E(xc)   XCENC  =      -999.15247661
  PAW double counting   =     19460.48232903   -18210.84969564
  entropy T*S    EENTRO =        -0.00740344
  eigenvalues    EBANDS =      1289.59512430
  atomic energy  EATOM  =     12697.67401269
  ---------------------------------------------------
  free energy    TOTEN  =      -356.07285494 eV

  energy without entropy =     -356.06545149  energy(sigma->0) =     -356.07038712


--------------------------------------------------------------------------------------------------------




--------------------------------------- Iteration      1(  22)  ---------------------------------------


    POTLOK:  cpu time    0.3930: real time    0.3933
    SETDIJ:  cpu time    1.4302: real time    1.4312
    TRIAL :  cpu time   18.9948: real time   19.1913
    CORREC:  cpu time    5.7830: real time    5.7989
    CHARGE:  cpu time    1.7525: real time    1.8016
    --------------------------------------------
      LOOP:  cpu time   28.3610: real time   28.6248

 eigenvalue-minimisations  :     0
 total energy-change (2. order) :-0.5107639E-01  (-0.2750581E-01)
 number of electron     269.9999992 magnetization       2.7488954
 augmentation part       86.9824616 magnetization       1.8928898

 Free energy of the ion-electron system (eV)
  ---------------------------------------------------
  alpha Z        PSCENC =       798.38614055
  Ewald energy   TEWEN  =    -12901.57693327
  -Hartree energ DENC   =     -2497.13525206
  -exchange      EXHF   =         0.00000000
  -V(xc)+E(xc)   XCENC  =      -998.84465821
  PAW double counting   =     19476.07142359   -18227.70990445
  entropy T*S    EENTRO =        -0.00721425
  eigenvalues    EBANDS =      1297.01864329
  atomic energy  EATOM  =     12697.67401269
  ---------------------------------------------------
  free energy    TOTEN  =      -356.12393133 eV

  energy without entropy =     -356.11671708  energy(sigma->0) =     -356.12152658


--------------------------------------------------------------------------------------------------------




--------------------------------------- Iteration      1(  23)  ---------------------------------------


    POTLOK:  cpu time    0.3929: real time    0.3929
    SETDIJ:  cpu time    0.4851: real time    0.4856
    TRIAL :  cpu time   19.7429: real time   19.8890
    CORREC:  cpu time    5.8094: real time    5.8114
    CHARGE:  cpu time    1.7625: real time    1.7826
    --------------------------------------------
      LOOP:  cpu time   28.1994: real time   28.3697

 eigenvalue-minimisations  :     0
 total energy-change (2. order) :-0.2753311E-01  (-0.1602049E-01)
 number of electron     269.9999992 magnetization       2.7671093
 augmentation part       86.9656549 magnetization       1.9068965

 Free energy of the ion-electron system (eV)
  ---------------------------------------------------
  alpha Z        PSCENC =       798.38614055
[...]
   45       -0.020  -0.014  -2.395  -2.429
   46        0.014   0.019   2.250   2.282
   47       -0.019  -0.017  -2.229  -2.265
   48       -0.019  -0.018  -2.370  -2.406
   49        0.014   0.019   2.257   2.290
   50       -0.019  -0.017  -2.229  -2.266
   51       -0.018  -0.018  -2.372  -2.409
   52        0.015   0.015   2.269   2.299
   53       -0.010  -0.005  -2.344  -2.359
   54       -0.016  -0.022  -2.329  -2.368
--------------------------------------------------
tot         -0.004  -0.005   2.850   2.842
 
    FORLOC:  cpu time    0.0585: real time    0.0585
    FORNL :  cpu time   28.4913: real time   28.6911
    STRESS:  cpu time   39.8134: real time   40.7399
    FORCOR:  cpu time    0.4426: real time    0.4426
    OFIELD:  cpu time    0.0022: real time    0.0022

  FORCE on cell =-STRESS in cart. coord.  units (eV):
  Direction    XX          YY          ZZ          XY          YZ          ZX
  --------------------------------------------------------------------------------------
  Alpha Z   798.38614   798.38614   798.38614
  Ewald   -4053.61603 -4053.61603 -4794.40593    -0.00000    -0.00000    -0.00000
  Hartree  1083.48835  1084.62261   333.37597     0.00000    -0.00000    -0.01087
  E(xc)   -1141.13461 -1141.49629 -1139.60671     0.00000     0.00000    -0.00412
  Local     370.80390   367.62487  1904.21190    -0.00000     0.00000     0.05583
  n-local  -170.14476  -171.56993  -176.93581     0.17692    -0.25447     0.05565
  augment   783.53646   785.02189   767.72485     0.00000     0.00001    -0.03110
  Kinetic  2334.38102  2336.70510  2309.63177    -1.38702    -1.48323    -0.09088
  Fock        0.00000     0.00000     0.00000     0.00000     0.00000     0.00000
  -------------------------------------------------------------------------------------
  Total       5.70046     5.67835     2.38218     0.00000     0.00000    -0.02548
  in kB      12.86520    12.81530     5.37628     0.00000     0.00000    -0.05751
  external pressure =       10.35 kB  Pullay stress =        0.00 kB


 VOLUME and BASIS-vectors are now :
 -----------------------------------------------------------------------------
  energy-cutoff  :      404.80
  volume of cell :      709.91
      direct lattice vectors                 reciprocal lattice vectors
     8.250148166  0.000000000  0.000000000     0.121209944  0.000000000  0.000000000
     0.000000000  8.250148166  0.000000000     0.000000000  0.121209944  0.000000000
     0.000000000  0.000000000 10.429911392     0.000000000  0.000000000  0.095878092

  length of vectors
     8.250148166  8.250148166 10.429911392     0.121209944  0.121209944  0.095878092


 FORCES acting on ions:
    Electron-Ion                     Ewald-Force                    Non-Local-Force
 -----------------------------------------------------------------------------------------------
   -.788E-02 -.656E-02 -.740E-02   -.239E-08 -.239E-08 -.210E-08   0.138E-02 0.152E-02 -.221E-02
   -.651E-01 0.417E-02 -.544E-01   -.239E-08 -.239E-08 0.171E-08   0.851E-01 -.355E-02 0.499E-02
   0.522E-01 -.456E-02 0.763E-01   -.239E-08 -.239E-08 0.861E-08   -.990E-01 -.144E-02 -.140E-01
   0.396E-02 0.373E-09 0.522E-01   -.239E-08 -.802E-09 -.210E-08   -.517E-02 0.000E+00 -.140E-01
   -.802E-01 0.373E-09 -.906E-01   -.239E-08 -.802E-09 0.171E-08   0.770E-01 0.000E+00 0.142E-01
   0.521E-01 0.373E-09 0.751E-01   -.239E-08 -.802E-09 0.861E-08   -.122E+00 0.000E+00 -.194E-01
   -.788E-02 0.656E-02 -.740E-02   -.239E-08 0.631E-08 -.210E-08   0.138E-02 -.152E-02 -.221E-02
   -.651E-01 -.417E-02 -.544E-01   -.239E-08 0.631E-08 0.171E-08   0.851E-01 0.355E-02 0.499E-02
   0.522E-01 0.456E-02 0.763E-01   -.239E-08 0.631E-08 0.861E-08   -.990E-01 0.144E-02 -.140E-01
   -.223E-01 -.626E-02 -.569E-01   -.802E-09 -.239E-08 -.210E-08   0.113E-01 -.210E-02 0.329E-01
   -.503E-01 0.381E-01 -.812E-01   -.802E-09 -.239E-08 0.171E-08   -.462E-01 0.326E-01 0.480E-01
   -.110E+00 0.893E-01 0.103E+00   -.803E-09 -.239E-08 0.861E-08   0.462E-01 -.703E-01 -.419E-01
   -.163E-01 0.373E-09 -.173E+00   -.802E-09 -.802E-09 -.210E-08   0.292E-02 0.000E+00 0.875E-01
   -.100E-02 0.373E-09 -.532E-01   -.802E-09 -.802E-09 0.171E-08   0.149E-01 0.000E+00 0.100E+00
   0.894E-02 0.373E-09 0.169E-01   -.803E-09 -.802E-09 0.861E-08   -.710E-02 0.000E+00 -.376E-01
   -.223E-01 0.626E-02 -.569E-01   -.802E-09 0.631E-08 -.210E-08   0.113E-01 0.210E-02 0.329E-01
   -.503E-01 -.381E-01 -.812E-01   -.802E-09 0.631E-08 0.171E-08   -.462E-01 -.326E-01 0.480E-01
   -.110E+00 -.893E-01 0.103E+00   -.803E-09 0.631E-08 0.861E-08   0.462E-01 0.703E-01 -.419E-01
   0.214E-01 -.863E-02 0.982E-01   0.631E-08 -.239E-08 -.210E-08   -.558E-02 0.484E-02 -.504E-01
   0.107E+00 -.134E+00 -.931E-01   0.631E-08 -.239E-08 0.171E-08   -.356E-01 0.487E-01 0.324E-01
   0.602E-01 -.734E-01 0.856E-01   0.631E-08 -.239E-08 0.861E-08   0.474E-01 -.509E-01 -.517E-01
   0.314E-01 0.373E-09 -.168E-01   0.631E-08 -.802E-09 -.210E-08   -.123E-01 0.000E+00 0.414E-02
   0.814E-01 0.372E-09 -.549E-01   0.631E-08 -.802E-09 0.171E-08   -.897E-01 0.000E+00 0.429E-02
   -.412E-01 0.372E-09 0.327E-01   0.631E-08 -.802E-09 0.861E-08   0.125E+00 0.000E+00 0.140E-01
   0.214E-01 0.863E-02 0.982E-01   0.631E-08 0.631E-08 -.210E-08   -.558E-02 -.484E-02 -.504E-01
   0.107E+00 0.134E+00 -.931E-01   0.631E-08 0.631E-08 0.171E-08   -.356E-01 -.487E-01 0.324E-01
   0.602E-01 0.734E-01 0.856E-01   0.631E-08 0.631E-08 0.861E-08   0.474E-01 0.509E-01 -.517E-01
   -.576E-01 -.244E-01 0.533E-01   -.169E-07 -.169E-07 -.180E-07   0.292E-01 0.401E-01 -.155E+00
   0.337E+00 -.383E-01 -.103E+00   -.169E-07 -.169E-07 -.170E-08   -.171E+00 0.648E-01 0.160E+00
   0.207E-01 -.113E-01 0.546E-01   -.169E-07 -.169E-07 0.115E-07   0.294E-02 -.771E-02 -.384E-01
   -.576E-01 0.244E-01 0.533E-01   -.169E-07 0.802E-09 -.180E-07   0.292E-01 -.401E-01 -.155E+00
   0.337E+00 0.383E-01 -.103E+00   -.169E-07 0.802E-09 -.170E-08   -.171E+00 -.648E-01 0.160E+00
   0.207E-01 0.113E-01 0.546E-01   -.169E-07 0.802E-09 0.115E-07   0.294E-02 0.771E-02 -.384E-01
   -.365E-01 -.605E-08 0.976E-01   -.169E-07 0.130E-07 -.180E-07   0.101E+00 0.000E+00 -.170E+00
   -.108E+00 -.605E-08 -.175E+00   -.169E-07 0.130E-07 -.170E-08   0.161E+00 0.000E+00 0.177E+00
   -.267E-01 -.605E-08 0.205E+00   -.169E-07 0.130E-07 0.115E-07   -.108E-01 0.000E+00 -.236E+00
   0.246E-01 -.161E-01 0.132E+00   0.802E-09 -.169E-07 -.180E-07   -.409E-01 -.385E-01 -.234E+00
   -.482E+00 0.504E+00 -.172E+00   0.802E-09 -.169E-07 -.170E-08   0.223E+00 -.305E+00 0.180E+00
   -.552E-01 0.749E-01 0.164E+00   0.802E-09 -.169E-07 0.115E-07   0.477E-01 -.380E-02 -.137E+00
   0.246E-01 0.161E-01 0.132E+00   0.802E-09 0.802E-09 -.180E-07   -.409E-01 0.385E-01 -.234E+00
   -.482E+00 -.504E+00 -.172E+00   0.802E-09 0.802E-09 -.170E-08   0.223E+00 0.305E+00 0.180E+00
   -.552E-01 -.749E-01 0.164E+00   0.802E-09 0.802E-09 0.115E-07   0.477E-01 0.380E-02 -.137E+00
   0.977E-01 -.605E-08 -.297E+00   0.802E-09 0.130E-07 -.180E-07   -.890E-01 0.000E+00 0.315E+00
   0.682E+00 -.605E-08 0.242E+00   0.802E-09 0.130E-07 -.170E-08   -.371E+00 0.000E+00 -.219E+00
   0.180E-02 -.605E-08 -.149E+00   0.802E-09 0.130E-07 0.115E-07   0.268E-02 0.000E+00 0.237E+00
   0.229E-01 0.131E-02 -.174E+00   0.130E-07 -.169E-07 -.180E-07   0.620E-02 0.315E-01 0.196E+00
   0.657E-01 -.841E-01 0.192E+00   0.130E-07 -.169E-07 -.170E-08   -.898E-01 0.750E-01 -.219E+00
   0.304E-01 0.121E-01 -.104E+00   0.130E-07 -.169E-07 0.115E-07   -.581E-01 -.143E-01 0.185E+00
   0.229E-01 -.131E-02 -.174E+00   0.130E-07 0.802E-09 -.180E-07   0.620E-02 -.315E-01 0.196E+00
   0.657E-01 0.841E-01 0.192E+00   0.130E-07 0.802E-09 -.170E-08   -.898E-01 -.750E-01 -.219E+00
   0.304E-01 -.121E-01 -.104E+00   0.130E-07 0.802E-09 0.115E-07   -.581E-01 0.143E-01 0.185E+00
   -.500E-01 -.605E-08 -.966E-02   0.130E-07 0.130E-07 -.180E-07   0.722E-02 0.000E+00 -.415E-01
   -.427E+00 -.605E-08 0.112E+00   0.130E-07 0.130E-07 -.170E-08   0.303E+00 0.000E+00 -.150E+00
   0.387E-01 -.605E-08 -.522E-01   0.130E-07 0.130E-07 0.115E-07   0.140E-01 0.000E+00 0.163E+00
 -----------------------------------------------------------------------------------------------
   -.875E-02 -.361E-07 -.203E-01   -.614E-13 -.142E-13 0.128E-13   0.876E-02 0.520E-17 0.203E-01
 
 
 POSITION                                       TOTAL-FORCE (eV/Angst)
 -----------------------------------------------------------------------------------
      0.00000      0.00000      0.00000        -0.006685     -0.005204     -0.009637
      0.00000      0.00000      3.47664         0.012476      0.000979     -0.048615
      0.00000      0.00000      6.95327        -0.038286     -0.005938      0.062323
      0.00000      2.75005      0.00000        -0.000825     -0.000000      0.040358
      0.00000      2.75005      3.47664        -0.010081     -0.000000     -0.076398
      0.00000      2.75005      6.95327        -0.059608     -0.000000      0.056196
      0.00000      5.50010      0.00000        -0.006685      0.005204     -0.009637
      0.00000      5.50010      3.47664         0.012476     -0.000979     -0.048615
      0.00000      5.50010      6.95327        -0.038286      0.005938      0.062323
      2.75005      0.00000      0.00000        -0.012141     -0.008246     -0.027050
      2.75005      0.00000      3.47664        -0.092268      0.067983     -0.035801
      2.75005      0.00000      6.95327        -0.068100      0.025060      0.062961
      2.75005      2.75005      0.00000        -0.013628     -0.000000     -0.094708
      2.75005      2.75005      3.47664         0.012823     -0.000000      0.038805
      2.75005      2.75005      6.95327         0.002742     -0.000000     -0.018624
      2.75005      5.50010      0.00000        -0.012141      0.008246     -0.027050
      2.75005      5.50010      3.47664        -0.092268     -0.067983     -0.035801
      2.75005      5.50010      6.95327        -0.068100     -0.025060      0.062961
      5.50010      0.00000      0.00000         0.016461     -0.004282      0.053000
      5.50010      0.00000      3.47664         0.074319     -0.090340     -0.062001
      5.50010      0.00000      6.95327         0.103381     -0.120162      0.036920
      5.50010      2.75005      0.00000         0.020351     -0.000000     -0.013375
      5.50010      2.75005      3.47664        -0.000672     -0.000000     -0.049398
      5.50010      2.75005      6.95327         0.072560     -0.000000      0.043743
      5.50010      5.50010      0.00000         0.016461      0.004282      0.053000
      5.50010      5.50010      3.47664         0.074319      0.090340     -0.062001
      5.50010      5.50010      6.95327         0.103381      0.120162      0.036920
      1.37502      1.37502      1.73832        -0.026150      0.015245     -0.093095
      1.37502      1.37502      5.21496         0.171197      0.027056      0.050670
      1.37502      1.37502      8.69159         0.022916     -0.019080      0.014784
      1.37502      4.12507      1.73832        -0.026150     -0.015245     -0.093095
      1.37502      4.12507      5.21496         0.171197     -0.027056      0.050670
      1.37502      4.12507      8.69159         0.022916      0.019080      0.014784
      1.37502      6.87512      1.73832         0.064492     -0.000000     -0.065012
      1.37502      6.87512      5.21496         0.053453     -0.000000     -0.003443
      1.37502      6.87512      8.69159        -0.036793     -0.000000     -0.027524
      4.12507      1.37502      1.73832        -0.018852     -0.052386     -0.092570
      4.12507      1.37502      5.21496        -0.269741      0.207238      0.002769
      4.12507      1.37502      8.69159        -0.006914      0.070619      0.027745
      4.12507      4.12507      1.73832        -0.018852      0.052386     -0.092570
      4.12507      4.12507      5.21496        -0.269741     -0.207238      0.002769
      4.12507      4.12507      8.69159        -0.006914     -0.070619      0.027745
      4.12507      6.87512      1.73832         0.008303     -0.000000      0.012768
      4.12507      6.87512      5.21496         0.325039     -0.000000      0.027789
      4.12507      6.87512      8.69159         0.007023     -0.000000      0.078949
      6.87512      1.37502      1.73832         0.029015      0.032840      0.018057
      6.87512      1.37502      5.21496        -0.024635     -0.011623     -0.020994
      6.87512      1.37502      8.69159        -0.027942     -0.001819      0.073979
      6.87512      4.12507      1.73832         0.029015     -0.032840      0.018057
      6.87512      4.12507      5.21496        -0.024635      0.011623     -0.020994
      6.87512      4.12507      8.69159        -0.027942      0.001819      0.073979
      6.87512      6.87512      1.73832        -0.042307     -0.000000     -0.048295
      6.87512      6.87512      5.21496        -0.129193     -0.000000     -0.031443
      6.87512      6.87512      8.69159         0.050224     -0.000000      0.102724
 -----------------------------------------------------------------------------------
    total drift:                                0.000009     -0.000000      0.000009


--------------------------------------------------------------------------------------------------------



  FREE ENERGIE OF THE ION-ELECTRON SYSTEM (eV)
  ---------------------------------------------------
  free  energy   TOTEN  =      -356.24190444 eV

  energy  without entropy=     -356.23531693  energy(sigma->0) =     -356.23970860
 


--------------------------------------------------------------------------------------------------------


    POTLOK:  cpu time    0.9466: real time    0.9466


--------------------------------------------------------------------------------------------------------


     LOOP+:  cpu time 2154.3846: real time 2187.2185
    4ORBIT:  cpu time    0.0000: real time    0.0000
 


 total charge     
 
# of ion       s       p       d       tot
------------------------------------------
    1        0.405   0.427   0.000   0.832
    2        0.405   0.429   0.000   0.834
    3        0.405   0.429   0.000   0.834
    4        0.405   0.427   0.000   0.832
    5        0.405   0.429   0.000   0.834
    6        0.405   0.429   0.000   0.834
    7        0.405   0.427   0.000   0.832
    8        0.405   0.429   0.000   0.834
    9        0.405   0.429   0.000   0.834
   10        0.405   0.427   0.000   0.832
   11        0.405   0.428   0.000   0.833
   12        0.405   0.428   0.000   0.833
   13        0.405   0.427   0.000   0.832
   14        0.405   0.425   0.000   0.830
   15        0.405   0.425   0.000   0.830
   16        0.405   0.427   0.000   0.832
   17        0.405   0.428   0.000   0.833
   18        0.405   0.428   0.000   0.833
   19        0.405   0.427   0.000   0.832
   20        0.405   0.428   0.000   0.833
   21        0.405   0.428   0.000   0.833
   22        0.405   0.427   0.000   0.832
   23        0.405   0.428   0.000   0.833
   24        0.405   0.429   0.000   0.834
   25        0.405   0.427   0.000   0.832
   26        0.405   0.428   0.000   0.833
   27        0.405   0.428   0.000   0.833
   28        0.335   0.351   5.137   5.822
   29        0.332   0.354   5.130   5.816
   30        0.333   0.350   5.141   5.824
   31        0.335   0.351   5.134   5.819
   32        0.332   0.354   5.137   5.823
   33        0.333   0.350   5.135   5.818
   34        0.335   0.349   5.137   5.821
   35        0.332   0.355   5.136   5.823
   36        0.334   0.352   5.135   5.820
   37        0.334   0.349   5.141   5.824
   38        0.336   0.354   5.125   5.815
   39        0.333   0.352   5.140   5.824
   40        0.334   0.350   5.134   5.818
   41        0.336   0.354   5.125   5.815
   42        0.333   0.352   5.131   5.815
   43        0.333   0.353   5.133   5.819
   44        0.334   0.354   5.133   5.821
   45        0.335   0.348   5.138   5.821
   46        0.333   0.351   5.137   5.821
   47        0.332   0.355   5.134   5.820
   48        0.335   0.350   5.137   5.821
   49        0.333   0.352   5.134   5.819
   50        0.331   0.355   5.140   5.826
   51        0.335   0.350   5.135   5.820
   52        0.333   0.350   5.139   5.822
   53        0.331   0.354   5.134   5.820
   54        0.335   0.352   5.135   5.821
--------------------------------------------------
tot         19.936  21.049 138.646 179.632
 


 magnetization (x)
 
# of ion       s       p       d       tot
------------------------------------------
    1        0.000  -0.000   0.000  -0.000
    2       -0.010  -0.019   0.000  -0.030
    3        0.011   0.020   0.000   0.031
    4       -0.000   0.002   0.000   0.002
    5       -0.012  -0.021   0.000  -0.032
    6        0.010   0.019   0.000   0.028
    7        0.000  -0.000   0.000  -0.000
    8       -0.010  -0.019   0.000  -0.030
    9        0.011   0.020   0.000   0.031
   10       -0.000   0.000   0.000   0.000
   11       -0.016  -0.029   0.000  -0.046
   12        0.005   0.011   0.000   0.016
   13       -0.000  -0.001   0.000  -0.002
   14       -0.021  -0.036   0.000  -0.056
   15        0.002   0.003   0.000   0.004
   16       -0.000   0.000   0.000   0.000
   17       -0.016  -0.029   0.000  -0.045
   18        0.005   0.010   0.000   0.016
   19        0.000   0.001   0.000   0.001
   20       -0.006  -0.010   0.000  -0.017
   21        0.015   0.029   0.000   0.044
   22        0.000  -0.000   0.000  -0.000
   23       -0.011  -0.019   0.000  -0.030
   24        0.011   0.021   0.000   0.032
   25        0.000   0.001   0.000   0.001
   26       -0.006  -0.010   0.000  -0.017
   27        0.015   0.029   0.000   0.044
   28        0.017   0.021   2.348   2.386
   29        0.013   0.010   2.364   2.387
   30       -0.015  -0.015  -2.265  -2.296
   31        0.017   0.021   2.352   2.390
   32        0.013   0.010   2.359   2.382
   33       -0.015  -0.015  -2.275  -2.305
   34        0.019   0.017   2.384   2.420
   35        0.022   0.021   2.238   2.281
   36       -0.013  -0.019  -2.256  -2.288
   37        0.018   0.017   2.365   2.401
   38        0.025   0.022   2.463   2.510
   39       -0.013  -0.020  -2.252  -2.284
   40        0.018   0.017   2.377   2.413
   41        0.025   0.021   2.463   2.510
   42       -0.013  -0.019  -2.267  -2.299
   43        0.012   0.023   2.246   2.280
   44       -0.031  -0.028  -2.302  -2.361
   45       -0.020  -0.014  -2.395  -2.429
   46        0.014   0.019   2.250   2.282
   47       -0.019  -0.017  -2.229  -2.265
   48       -0.019  -0.018  -2.370  -2.406
   49        0.014   0.019   2.257   2.290
   50       -0.019  -0.017  -2.229  -2.266
   51       -0.018  -0.018  -2.372  -2.409
   52        0.015   0.015   2.269   2.299
   53       -0.010  -0.005  -2.344  -2.359
   54       -0.016  -0.022  -2.329  -2.368
--------------------------------------------------
tot         -0.004  -0.005   2.850   2.842
 

 total amount of memory used by VASP MPI-rank0  1032638. kBytes
=======================================================================

   base      :      30000. kBytes
   nonl-proj :      34193. kBytes
   fftplans  :      31580. kBytes
   grid      :      21385. kBytes
   one-center:        435. kBytes
   wavefun   :     915045. kBytes
 
  
  
 General timing and accounting informations for this job:
 ========================================================
  
                  Total CPU time used (sec):     2191.099
                            User time (sec):     2162.751
                          System time (sec):       28.347
                         Elapsed time (sec):     2225.958
  
                   Maximum memory used (kb):     1206528.
                   Average memory used (kb):           0.
  
                          Minor page faults:       809359
                          Major page faults:           18
                 Voluntary context switches:         3073
