   36   36    1    2
  0.1314651E+02  0.8250148E-09  0.8250148E-09  0.6953274E-09  0.2000000E-15
  1.000000000000000E-004
  CAR 
 AlMn_pv                                 
    180     52    112
 
  0.0000000E+00  0.0000000E+00  0.0000000E+00  0.6666667E-02
    1       -2.518635     -2.515767   1.000000   1.000000
    2       -0.361298     -0.374177   1.000000   1.000000
    3       -0.350727     -0.355376   1.000000   1.000000
    4       -0.330200     -0.305167   1.000000   1.000000
    5       -0.300474     -0.292309   1.000000   1.000000
    6       -0.108697     -0.116334   1.000000   1.000000
    7        1.363049      1.374697   1.000000   1.000000
    8        1.370553      1.383949   1.000000   1.000000
    9        1.377321      1.392165   1.000000   1.000000
   10        1.418320      1.409268   1.000000   1.000000
   11        1.434692      1.442272   1.000000   1.000000
   12        1.536725      1.552354   1.000000   1.000000
   13        1.556997      1.560005   1.000000   1.000000
   14        1.621126      1.636455   1.000000   1.000000
   15        1.638986      1.646663   1.000000   1.000000
   16        2.714002      2.717233   1.000000   1.000000
   17        2.722839      2.746823   1.000000   1.000000
   18        2.847256      2.868887   1.000000   1.000000
   19        2.862033      2.892747   1.000000   1.000000
   20        3.459581      3.452192   1.000000   1.000000
   21        3.485975      3.505753   1.000000   1.000000
   22        3.557613      3.612821   1.000000   1.000000
   23        3.615501      3.644850   1.000000   1.000000
   24        4.052414      4.085332   1.000000   1.000000
   25        4.148694      4.150392   1.000000   1.000000
   26        4.408247      4.435471   1.000000   1.000000
   27        4.483570      4.517273   1.000000   1.000000
   28        4.513269      4.542511   1.000000   1.000000
   29        4.519327      4.588728   1.000000   1.000000
   30        4.582126      4.606656   1.000000   1.000000
   31        4.613898      4.670132   1.000000   1.000000
   32        4.685063      4.677226   1.000000   1.000000
   33        4.691124      4.688160   1.000000   1.000000
   34        4.707733      4.764859   1.000000   1.000000
   35        4.708440      4.827242   1.000000   1.000000
   36        4.855647      4.918427   1.000000   1.000000
   37        4.977649      4.969979   1.000000   1.000000
   38        5.011131      5.077622   1.000000   1.000000
   39        5.040505      5.154237   1.000000   1.000000
   40        5.180107      5.234991   1.000000   1.000000
   41        5.303960      5.354903   1.000000   1.000000
   42        5.335147      5.364553   1.000000   1.000000
   43        5.357184      5.383198   1.000000   1.000000
   44        5.428418      5.425573   1.000000   1.000000
   45        5.448205      5.456580   1.000000   1.000000
   46        5.450134      5.472820   1.000000   1.000000
   47        5.483813      5.565217   1.000000   1.000000
   48        5.491128      5.566856   1.000000   1.000000
   49        5.541001      5.598424   1.000000   1.000000
   50        5.558241      5.599416   1.000000   1.000000
   51        5.603085      5.690215   1.000000   1.000000
   52        5.670214      5.690999   1.000000   1.000000
   53        5.677087      5.774766   1.000000   1.000000
   54        5.720041      5.785639   1.000000   1.000000
   55        5.758587      5.807247   1.000000   1.000000
   56        5.852798      5.842157   1.000000   1.000000
   57        5.911758      5.939163   1.000000   1.000000
   58        5.939965      6.005027   1.000000   1.000000
   59        5.970898      6.070082   1.000000   1.000000
   60        6.023115      6.153346   1.000000   1.000000
   61        6.140477      6.260867   1.000000   1.000000
   62        6.147283      6.380397   1.000000   1.000000
   63        6.322430      6.382609   1.000000   1.000000
   64        6.333579      6.424751   1.000000   1.000000
   65        6.379482      6.505338   1.000000   1.000000
   66        6.387702      6.544289   1.000000   1.000000
   67        6.427607      6.566241   1.000000   1.000000
   68        6.441161      6.608085   1.000000   1.000000
   69        6.535865      6.611589   1.000000   1.000000
   70        6.550358      6.669836   1.000000   1.000000
   71        6.608822      6.769441   1.000000   1.000000
   72        6.647239      6.810087   1.000000   1.000000
   73        6.698676      6.830243   1.000000   1.000000
   74        6.733884      6.915590   1.000000   1.000000
   75        6.756232      6.975180   1.000000   1.000000
   76        6.766875      7.090815   1.000000   1.000021
   77        6.792149      7.114556   1.000000   1.000043
   78        6.891619      7.183261   1.000000   1.000285
   79        6.916408      7.231808   1.000000   1.000926
   80        7.037463      7.276795   1.000004   1.002449
   81        7.085625      7.309422   1.000018   1.004591
   82        7.134890      7.310980   1.000077   1.004725
   83        7.227705      7.403512   1.000844   1.018966
   84        7.257731      7.444761   1.001647   1.028356
   85        7.277282      7.469380   1.002473   1.033097
   86        7.330413      7.581122   1.006645   0.990693
   87        7.337795      7.592379   1.007507   0.974982
   88        7.408977      7.683795   1.020169   0.733765
   89        7.489829      7.720390   1.035287   0.589241
   90        7.525032      7.838013   1.031744   0.140026
   91        7.572761      7.958058   1.000566  -0.031694
   92        7.721795      7.963605   0.583608  -0.033102
   93        7.891473      8.136860   0.024126  -0.008624
   94        7.930181      8.158724  -0.018101  -0.006011
   95        8.024557      8.273212  -0.031219  -0.000555
   96        8.101750      8.276652  -0.014425  -0.000510
   97        8.113700      8.345006  -0.012216  -0.000085
   98        8.139056      8.355304  -0.008332  -0.000063
   99        8.184925      8.579299  -0.003745  -0.000000
  100        8.266491      8.614871  -0.000653  -0.000000
  101        8.298790      8.616473  -0.000296  -0.000000
  102        8.443112      8.655083  -0.000004  -0.000000
  103        8.478352      8.673868  -0.000001  -0.000000
  104        8.596500      8.681058  -0.000000  -0.000000
  105        8.642688      8.734582  -0.000000  -0.000000
  106        8.677948      8.820274  -0.000000  -0.000000
  107        8.744516      8.852265  -0.000000  -0.000000
  108        8.774664      8.905916  -0.000000  -0.000000
  109        8.781757      8.947186  -0.000000  -0.000000
  110        8.836101      8.957145  -0.000000  -0.000000
  111        8.858580      8.963922  -0.000000  -0.000000
  112        9.000861      9.045208  -0.000000  -0.000000
 
  0.2000000E+00  0.0000000E+00  0.0000000E+00  0.1333333E-01
    1       -2.428059     -2.425296   1.000000   1.000000
    2       -1.102050     -1.099009   1.000000   1.000000
    3       -0.267138     -0.271015   1.000000   1.000000
    4       -0.239416     -0.227306   1.000000   1.000000
    5       -0.043332     -0.050247   1.000000   1.000000
    6        0.567684      0.571607   1.000000   1.000000
    7        0.891124      0.893773   1.000000   1.000000
    8        0.925311      0.929610   1.000000   1.000000
    9        0.941241      0.952466   1.000000   1.000000
   10        1.434623      1.437806   1.000000   1.000000
   11        1.466936      1.483668   1.000000   1.000000
   12        1.493395      1.488795   1.000000   1.000000
   13        1.915989      1.941697   1.000000   1.000000
   14        2.293810      2.311076   1.000000   1.000000
   15        2.322187      2.331289   1.000000   1.000000
   16        2.325777      2.342171   1.000000   1.000000
   17        2.348800      2.360987   1.000000   1.000000
   18        2.807967      2.826966   1.000000   1.000000
   19        3.222275      3.247606   1.000000   1.000000
   20        3.274521      3.317912   1.000000   1.000000
   21        3.553504      3.570876   1.000000   1.000000
   22        3.631334      3.668026   1.000000   1.000000
   23        3.732140      3.749955   1.000000   1.000000
   24        4.036783      4.062456   1.000000   1.000000
   25        4.119613      4.118824   1.000000   1.000000
   26        4.294813      4.323083   1.000000   1.000000
   27        4.341557      4.383363   1.000000   1.000000
   28        4.433990      4.513087   1.000000   1.000000
   29        4.487437      4.545860   1.000000   1.000000
   30        4.542686      4.561015   1.000000   1.000000
   31        4.565124      4.580850   1.000000   1.000000
   32        4.609349      4.649569   1.000000   1.000000
   33        4.622428      4.653555   1.000000   1.000000
   34        4.668749      4.685783   1.000000   1.000000
   35        4.791589      4.901171   1.000000   1.000000
   36        4.893007      4.954014   1.000000   1.000000
   37        4.935520      5.060750   1.000000   1.000000
   38        5.076949      5.096358   1.000000   1.000000
   39        5.103977      5.102537   1.000000   1.000000
   40        5.144044      5.115456   1.000000   1.000000
   41        5.203336      5.197223   1.000000   1.000000
   42        5.292634      5.304651   1.000000   1.000000
   43        5.307045      5.315271   1.000000   1.000000
   44        5.356273      5.419847   1.000000   1.000000
   45        5.434406      5.484680   1.000000   1.000000
   46        5.463669      5.487290   1.000000   1.000000
   47        5.477650      5.561280   1.000000   1.000000
   48        5.515788      5.577000   1.000000   1.000000
   49        5.532568      5.602243   1.000000   1.000000
   50        5.549096      5.644533   1.000000   1.000000
   51        5.663481      5.699878   1.000000   1.000000
   52        5.684835      5.756632   1.000000   1.000000
   53        5.703938      5.775561   1.000000   1.000000
   54        5.718234      5.785533   1.000000   1.000000
   55        5.817595      5.836561   1.000000   1.000000
   56        5.886636      5.945038   1.000000   1.000000
   57        5.961841      6.004992   1.000000   1.000000
   58        5.994998      6.021056   1.000000   1.000000
   59        6.021039      6.105535   1.000000   1.000000
   60        6.059814      6.116778   1.000000   1.000000
   61        6.152561      6.271912   1.000000   1.000000
   62        6.169875      6.302810   1.000000   1.000000
   63        6.232099      6.352776   1.000000   1.000000
   64        6.323301      6.380850   1.000000   1.000000
   65        6.343277      6.392542   1.000000   1.000000
   66        6.347180      6.480514   1.000000   1.000000
   67        6.370937      6.563953   1.000000   1.000000
   68        6.411678      6.642873   1.000000   1.000000
   69        6.462362      6.646115   1.000000   1.000000
   70        6.554589      6.667966   1.000000   1.000000
   71        6.584036      6.764300   1.000000   1.000000
   72        6.615212      6.789088   1.000000   1.000000
   73        6.686964      6.801760   1.000000   1.000000
   74        6.721957      6.869754   1.000000   1.000000
   75        6.725726      6.982990   1.000000   1.000001
   76        6.775688      7.061571   1.000000   1.000008
   77        6.809892      7.098641   1.000000   1.000027
   78        6.857871      7.111872   1.000000   1.000040
   79        6.894117      7.235176   1.000000   1.001002
   80        6.935920      7.274300   1.000000   1.002328
   81        7.065662      7.276311   1.000010   1.002425
   82        7.094530      7.343649   1.000024   1.008260
   83        7.145487      7.433487   1.000104   1.025818
   84        7.247079      7.480991   1.001307   1.034606
   85        7.301542      7.486660   1.003969   1.035099
   86        7.360944      7.603317   1.010781   0.956895
   87        7.417709      7.604055   1.022164   0.955540
   88        7.450129      7.715796   1.029502   0.608377
   89        7.459940      7.748862   1.031454   0.469395
   90        7.500605      7.855271   1.035398   0.094784
   91        7.655607      7.948861   0.829350  -0.028487
   92        7.732891      7.977667   0.537162  -0.035136
   93        7.859011      7.989080   0.086018  -0.035434
   94        7.928467      8.189390  -0.016904  -0.003429
   95        8.024378      8.201353  -0.031274  -0.002714
   96        8.096094      8.239141  -0.015515  -0.001223
   97        8.133855      8.293127  -0.009055  -0.000340
   98        8.176582      8.387967  -0.004371  -0.000024
   99        8.195149      8.513347  -0.003068  -0.000000
  100        8.298009      8.608868  -0.000300  -0.000000
  101        8.302157      8.633612  -0.000270  -0.000000
  102        8.386010      8.661756  -0.000026  -0.000000
  103        8.454619      8.664152  -0.000003  -0.000000
  104        8.504257      8.678849  -0.000000  -0.000000
  105        8.568828      8.760716  -0.000000  -0.000000
  106        8.625834      8.874266  -0.000000  -0.000000
  107        8.694552      8.974102  -0.000000  -0.000000
  108        8.823144      8.985076  -0.000000  -0.000000
  109        8.910516      8.996554  -0.000000  -0.000000
  110        8.980452      9.025969  -0.000000  -0.000000
  111        9.024610      9.061435  -0.000000  -0.000000
  112        9.089491      9.110362  -0.000000  -0.000000
 
  0.4000000E+00  0.0000000E+00  0.0000000E+00  0.1333333E-01
    1       -2.157952     -2.155877   1.000000   1.000000
    2       -1.713161     -1.709282   1.000000   1.000000
    3       -0.021708     -0.025071   1.000000   1.000000
    4        0.003753      0.015369   1.000000   1.000000
    5        0.149710      0.145813   1.000000   1.000000
    6        0.383909      0.381625   1.000000   1.000000
    7        0.405045      0.418131   1.000000   1.000000
    8        0.469517      0.465281   1.000000   1.000000
    9        1.581919      1.590595   1.000000   1.000000
   10        1.616469      1.619978   1.000000   1.000000
   11        1.671118      1.658705   1.000000   1.000000
   12        1.746501      1.767138   1.000000   1.000000
   13        1.924317      1.938941   1.000000   1.000000
   14        1.972831      1.975298   1.000000   1.000000
   15        2.204399      2.226370   1.000000   1.000000
   16        2.323756      2.365656   1.000000   1.000000
   17        2.675513      2.685144   1.000000   1.000000
   18        2.905788      2.928009   1.000000   1.000000
   19        3.019129      3.052962   1.000000   1.000000
   20        3.537993      3.569004   1.000000   1.000000
   21        3.690708      3.751070   1.000000   1.000000
   22        3.722074      3.775856   1.000000   1.000000
   23        3.764828      3.807790   1.000000   1.000000
   24        3.982607      3.987936   1.000000   1.000000
   25        4.023551      4.024040   1.000000   1.000000
   26        4.113256      4.131938   1.000000   1.000000
   27        4.164415      4.219835   1.000000   1.000000
   28        4.243059      4.290057   1.000000   1.000000
   29        4.323424      4.343952   1.000000   1.000000
   30        4.468803      4.493910   1.000000   1.000000
   31        4.480353      4.561646   1.000000   1.000000
   32        4.557939      4.590711   1.000000   1.000000
   33        4.648905      4.620551   1.000000   1.000000
   34        4.701803      4.672128   1.000000   1.000000
   35        4.790120      4.918765   1.000000   1.000000
   36        4.841402      4.981939   1.000000   1.000000
   37        4.965441      5.030803   1.000000   1.000000
   38        5.081796      5.072881   1.000000   1.000000
   39        5.125244      5.108808   1.000000   1.000000
   40        5.206134      5.153229   1.000000   1.000000
   41        5.212789      5.217174   1.000000   1.000000
   42        5.277582      5.261436   1.000000   1.000000
   43        5.328780      5.284640   1.000000   1.000000
   44        5.368896      5.436071   1.000000   1.000000
   45        5.414618      5.498068   1.000000   1.000000
   46        5.457514      5.527169   1.000000   1.000000
   47        5.506689      5.552883   1.000000   1.000000
   48        5.519865      5.562486   1.000000   1.000000
   49        5.541169      5.641344   1.000000   1.000000
   50        5.581557      5.647493   1.000000   1.000000
   51        5.649119      5.689872   1.000000   1.000000
   52        5.652862      5.742338   1.000000   1.000000
   53        5.670848      5.760449   1.000000   1.000000
   54        5.719232      5.788668   1.000000   1.000000
   55        5.801570      5.843023   1.000000   1.000000
   56        5.933900      5.916607   1.000000   1.000000
   57        5.956543      6.018511   1.000000   1.000000
   58        5.974017      6.066412   1.000000   1.000000
   59        6.013551      6.164505   1.000000   1.000000
   60        6.066329      6.166934   1.000000   1.000000
   61        6.187666      6.195829   1.000000   1.000000
   62        6.199284      6.200127   1.000000   1.000000
   63        6.232391      6.283760   1.000000   1.000000
   64        6.249526      6.328561   1.000000   1.000000
   65        6.293970      6.377839   1.000000   1.000000
   66        6.323843      6.378017   1.000000   1.000000
   67        6.382621      6.487504   1.000000   1.000000
   68        6.394342      6.627654   1.000000   1.000000
   69        6.427549      6.693921   1.000000   1.000000
   70        6.481550      6.719910   1.000000   1.000000
   71        6.556283      6.732222   1.000000   1.000000
   72        6.562944      6.785997   1.000000   1.000000
   73        6.618021      6.815557   1.000000   1.000000
   74        6.636318      6.886929   1.000000   1.000000
   75        6.696865      6.942041   1.000000   1.000000
   76        6.776074      7.012049   1.000000   1.000002
   77        6.825494      7.107336   1.000000   1.000035
   78        6.856858      7.110781   1.000000   1.000038
   79        6.887336      7.203101   1.000000   1.000469
   80        6.922197      7.251205   1.000000   1.001431
   81        7.006126      7.255991   1.000001   1.001586
   82        7.108650      7.330104   1.000036   1.006605
   83        7.130292      7.369158   1.000068   1.012153
   84        7.277221      7.425705   1.002471   1.024019
   85        7.303458      7.552663   1.004112   1.018387
   86        7.314628      7.633558   1.005047   0.891540
   87        7.352732      7.742446   1.009524   0.496539
   88        7.450480      7.748413   1.029567   0.471406
   89        7.487071      7.821799   1.035123   0.189163
   90        7.576987      7.851350   0.995744   0.104408
   91        7.711197      7.934107   0.627360  -0.020783
   92        7.723599      7.945711   0.576021  -0.027115
   93        7.849080      8.033250   0.110188  -0.029472
   94        7.896578      8.063798   0.016893  -0.022569
   95        8.000838      8.142381  -0.034746  -0.007892
   96        8.060290      8.175811  -0.023390  -0.004430
   97        8.075892      8.245818  -0.019819  -0.001054
   98        8.161652      8.342820  -0.005711  -0.000090
   99        8.190326      8.412876  -0.003368  -0.000011
  100        8.287407      8.507575  -0.000393  -0.000000
  101        8.304010      8.592726  -0.000257  -0.000000
  102        8.347273      8.645576  -0.000080  -0.000000
  103        8.421765      8.675037  -0.000008  -0.000000
  104        8.484028      8.697426  -0.000001  -0.000000
  105        8.497395      8.699356  -0.000001  -0.000000
  106        8.599575      8.935530  -0.000000  -0.000000
  107        8.729335      8.965845  -0.000000  -0.000000
  108        8.826422      9.039138  -0.000000  -0.000000
  109        8.979392      9.074955  -0.000000  -0.000000
  110        9.021066      9.096076  -0.000000  -0.000000
  111        9.149505      9.194894  -0.000000  -0.000000
  112        9.158988      9.209797  -0.000000  -0.000000
 
  0.0000000E+00  0.2000000E+00  0.0000000E+00  0.1333333E-01
    1       -2.428102     -2.425241   1.000000   1.000000
    2       -1.102152     -1.099416   1.000000   1.000000
    3       -0.266327     -0.266820   1.000000   1.000000
    4       -0.239450     -0.231306   1.000000   1.000000
    5       -0.042997     -0.050582   1.000000   1.000000
    6        0.565943      0.572986   1.000000   1.000000
    7        0.893839      0.889608   1.000000   1.000000
    8        0.927510      0.928268   1.000000   1.000000
    9        0.940042      0.952507   1.000000   1.000000
   10        1.438829      1.448382   1.000000   1.000000
   11        1.466815      1.488604   1.000000   1.000000
   12        1.475068      1.489253   1.000000   1.000000
   13        1.929751      1.927703   1.000000   1.000000
   14        2.298223      2.316907   1.000000   1.000000
   15        2.322361      2.335782   1.000000   1.000000
   16        2.322804      2.342285   1.000000   1.000000
   17        2.342592      2.356006   1.000000   1.000000
   18        2.807013      2.829035   1.000000   1.000000
   19        3.226485      3.246449   1.000000   1.000000
   20        3.282746      3.307108   1.000000   1.000000
   21        3.559340      3.580642   1.000000   1.000000
   22        3.630156      3.650053   1.000000   1.000000
   23        3.732563      3.744684   1.000000   1.000000
   24        4.031454      4.071904   1.000000   1.000000
   25        4.109829      4.125159   1.000000   1.000000
   26        4.293443      4.317401   1.000000   1.000000
   27        4.353834      4.388851   1.000000   1.000000
   28        4.458646      4.493866   1.000000   1.000000
   29        4.504073      4.521459   1.000000   1.000000
   30        4.547571      4.584036   1.000000   1.000000
   31        4.561996      4.623964   1.000000   1.000000
   32        4.576853      4.643500   1.000000   1.000000
   33        4.589450      4.648617   1.000000   1.000000
   34        4.631219      4.704470   1.000000   1.000000
   35        4.819882      4.867453   1.000000   1.000000
   36        4.937764      4.896168   1.000000   1.000000
   37        4.991896      5.015256   1.000000   1.000000
   38        5.056684      5.083235   1.000000   1.000000
   39        5.066653      5.136229   1.000000   1.000000
   40        5.098180      5.207152   1.000000   1.000000
   41        5.156094      5.274684   1.000000   1.000000
   42        5.283046      5.333887   1.000000   1.000000
   43        5.284690      5.361450   1.000000   1.000000
   44        5.368117      5.389764   1.000000   1.000000
   45        5.433650      5.433955   1.000000   1.000000
   46        5.452427      5.471400   1.000000   1.000000
   47        5.492660      5.538760   1.000000   1.000000
   48        5.504347      5.571715   1.000000   1.000000
   49        5.588072      5.604243   1.000000   1.000000
   50        5.597823      5.627345   1.000000   1.000000
   51        5.652507      5.664995   1.000000   1.000000
   52        5.696510      5.687311   1.000000   1.000000
   53        5.719862      5.738276   1.000000   1.000000
   54        5.747482      5.798557   1.000000   1.000000
   55        5.810864      5.863329   1.000000   1.000000
   56        5.902908      5.948780   1.000000   1.000000
   57        5.940794      6.034124   1.000000   1.000000
   58        5.948444      6.077956   1.000000   1.000000
   59        5.997041      6.129928   1.000000   1.000000
   60        6.052948      6.141265   1.000000   1.000000
   61        6.114423      6.246694   1.000000   1.000000
   62        6.222734      6.327668   1.000000   1.000000
   63        6.276090      6.371314   1.000000   1.000000
   64        6.314394      6.381813   1.000000   1.000000
   65        6.342610      6.432837   1.000000   1.000000
   66        6.349620      6.447347   1.000000   1.000000
   67        6.382632      6.539455   1.000000   1.000000
   68        6.430474      6.592684   1.000000   1.000000
   69        6.467419      6.630861   1.000000   1.000000
   70        6.556675      6.665060   1.000000   1.000000
   71        6.598623      6.752393   1.000000   1.000000
   72        6.628664      6.786878   1.000000   1.000000
   73        6.677699      6.819600   1.000000   1.000000
   74        6.720876      6.862617   1.000000   1.000000
   75        6.757364      7.032832   1.000000   1.000003
   76        6.765921      7.077233   1.000000   1.000014
   77        6.808712      7.135799   1.000000   1.000079
   78        6.869036      7.182514   1.000000   1.000280
   79        6.927531      7.210196   1.000000   1.000558
   80        6.945278      7.239010   1.000000   1.001092
   81        7.027325      7.316874   1.000003   1.005252
   82        7.029834      7.339145   1.000003   1.007675
   83        7.075512      7.418012   1.000013   1.022236
   84        7.220405      7.462204   1.000711   1.031875
   85        7.244571      7.466838   1.001236   1.032680
   86        7.327564      7.534171   1.006332   1.028573
   87        7.382447      7.548601   1.014584   1.021114
   88        7.453773      7.689155   1.030254   0.713718
   89        7.520641      7.724380   1.032875   0.572626
   90        7.597258      7.859964   0.967349   0.083773
   91        7.714209      7.890043   0.614829   0.026266
   92        7.732807      8.007736   0.537349  -0.033965
   93        7.912813      8.119292  -0.002980  -0.011270
   94        7.940587      8.194558  -0.024567  -0.003105
   95        7.966966      8.233987  -0.033770  -0.001369
   96        8.057146      8.245358  -0.024132  -0.001064
   97        8.105945      8.324623  -0.013613  -0.000149
   98        8.144687      8.347279  -0.007616  -0.000080
   99        8.202276      8.384428  -0.002664  -0.000027
  100        8.261234      8.572622  -0.000739  -0.000000
  101        8.262343      8.588052  -0.000719  -0.000000
  102        8.363043      8.638641  -0.000051  -0.000000
  103        8.480026      8.682706  -0.000001  -0.000000
  104        8.507705      8.708449  -0.000000  -0.000000
  105        8.653134      8.843902  -0.000000  -0.000000
  106        8.694789      8.932893  -0.000000  -0.000000
  107        8.701780      8.941728  -0.000000  -0.000000
  108        8.896148      8.972703  -0.000000  -0.000000
  109        8.922632      9.007706  -0.000000  -0.000000
  110        8.978523      9.046771  -0.000000  -0.000000
  111        9.000217      9.067618  -0.000000  -0.000000
  112        9.204042      9.093418  -0.000000  -0.000000
 
  0.2000000E+00  0.2000000E+00  0.0000000E+00  0.1333333E-01
    1       -2.337805     -2.335057   1.000000   1.000000
    2       -1.031663     -1.022471   1.000000   1.000000
    3       -1.000322     -1.003638   1.000000   1.000000
    4        0.022237      0.015371   1.000000   1.000000
    5        0.225530      0.231832   1.000000   1.000000
    6        0.633931      0.645008   1.000000   1.000000
    7        0.661871      0.661770   1.000000   1.000000
    8        0.945634      0.938648   1.000000   1.000000
    9        0.966999      0.973524   1.000000   1.000000
   10        1.559960      1.581847   1.000000   1.000000
   11        1.713981      1.717720   1.000000   1.000000
   12        1.776106      1.791446   1.000000   1.000000
   13        1.840597      1.846828   1.000000   1.000000
   14        1.985884      1.991142   1.000000   1.000000
   15        2.005969      2.023740   1.000000   1.000000
   16        2.776635      2.803160   1.000000   1.000000
   17        2.844788      2.871528   1.000000   1.000000
   18        2.861357      2.890247   1.000000   1.000000
   19        2.885445      2.908562   1.000000   1.000000
   20        2.934983      2.948821   1.000000   1.000000
   21        3.657860      3.686269   1.000000   1.000000
   22        3.772043      3.786551   1.000000   1.000000
   23        3.782796      3.800595   1.000000   1.000000
   24        3.805693      3.840401   1.000000   1.000000
   25        4.181035      4.141526   1.000000   1.000000
   26        4.252480      4.308588   1.000000   1.000000
   27        4.286366      4.354899   1.000000   1.000000
   28        4.348285      4.381347   1.000000   1.000000
   29        4.371628      4.470592   1.000000   1.000000
   30        4.449458      4.494362   1.000000   1.000000
   31        4.473693      4.534588   1.000000   1.000000
   32        4.597277      4.605513   1.000000   1.000000
   33        4.615853      4.661882   1.000000   1.000000
   34        4.690859      4.682236   1.000000   1.000000
   35        4.810836      4.840491   1.000000   1.000000
   36        4.829227      4.943650   1.000000   1.000000
   37        4.936160      4.975521   1.000000   1.000000
   38        5.015257      5.013314   1.000000   1.000000
   39        5.042482      5.109292   1.000000   1.000000
   40        5.159584      5.135460   1.000000   1.000000
   41        5.248299      5.282251   1.000000   1.000000
   42        5.272850      5.332755   1.000000   1.000000
   43        5.293363      5.340284   1.000000   1.000000
   44        5.360574      5.405250   1.000000   1.000000
   45        5.438964      5.470202   1.000000   1.000000
   46        5.464931      5.489163   1.000000   1.000000
   47        5.491491      5.545690   1.000000   1.000000
   48        5.515588      5.578607   1.000000   1.000000
   49        5.584804      5.615780   1.000000   1.000000
   50        5.620639      5.621061   1.000000   1.000000
   51        5.687355      5.669986   1.000000   1.000000
   52        5.710060      5.753673   1.000000   1.000000
   53        5.749015      5.821451   1.000000   1.000000
   54        5.843783      5.831180   1.000000   1.000000
   55        5.873955      5.904605   1.000000   1.000000
   56        5.878420      5.989846   1.000000   1.000000
   57        5.887912      6.059107   1.000000   1.000000
   58        6.040651      6.101498   1.000000   1.000000
   59        6.047233      6.134396   1.000000   1.000000
   60        6.065188      6.163784   1.000000   1.000000