       N       E                     dE             d eps       ncg     rms          ort
DAV:   1     0.135110320690E+04    0.13511E+04   -0.58820E+04  5824   0.143E+03
DAV:   2    -0.612775903037E+02   -0.14124E+04   -0.13793E+04  5824   0.438E+02
DAV:   3    -0.238106445277E+03   -0.17683E+03   -0.15897E+03  5824   0.168E+02
DAV:   4    -0.266292743249E+03   -0.28186E+02   -0.25035E+02  5824   0.733E+01
DAV:   5    -0.269424292408E+03   -0.31315E+01   -0.29799E+01  5824   0.220E+01
DAV:   6    -0.269677392022E+03   -0.25310E+00   -0.24630E+00  5824   0.559E+00
DAV:   7    -0.269704154598E+03   -0.26763E-01   -0.26359E-01  5824   0.163E+00
DAV:   8    -0.269706568181E+03   -0.24136E-02   -0.23868E-02  5824   0.438E-01
SDA:   9    -0.631257554524E+02    0.20658E+03   -0.23868E-02  5824   0.230E+04 0.000E+00
CGA:  10    -0.207708860708E+03   -0.14458E+03   -0.14401E+03  5824   0.136E+03 0.392E+03
CGA:  11    -0.217895340971E+03   -0.10186E+02   -0.10176E+02  5824   0.572E+02 0.194E+01
CGA:  12    -0.226106421479E+03   -0.82111E+01   -0.81832E+01  5824   0.957E+02-0.120E+00
CGA:  13    -0.233182968363E+03   -0.70765E+01   -0.71896E+01  5824   0.132E+02 0.269E+00
CGA:  14    -0.234178368496E+03   -0.99540E+00   -0.10059E+01  5824   0.550E+01-0.646E-01
CGA:  15    -0.234836446427E+03   -0.65808E+00   -0.66142E+00  5824   0.715E+01 0.785E-02
CGA:  16    -0.235488956124E+03   -0.65251E+00   -0.65512E+00  5824   0.196E+01-0.304E-02
CGA:  17    -0.235669839128E+03   -0.18088E+00   -0.18088E+00  5824   0.123E+01 0.102E-02
CGA:  18    -0.235849324592E+03   -0.17949E+00   -0.17951E+00  5824   0.124E+01-0.327E-03
CGA:  19    -0.235969384531E+03   -0.12006E+00   -0.12047E+00  5824   0.437E+00-0.210E-02
CGA:  20    -0.236009290103E+03   -0.39906E-01   -0.40033E-01  5824   0.372E+00-0.636E-03
CGA:  21    -0.236072697819E+03   -0.63408E-01   -0.63383E-01  5824   0.406E+00 0.911E-03
CGA:  22    -0.236113028345E+03   -0.40331E-01   -0.40344E-01  5824   0.167E+00-0.204E-03
CGA:  23    -0.236127657403E+03   -0.14629E-01   -0.14632E-01  5824   0.103E+00-0.223E-03
CGA:  24    -0.236147056338E+03   -0.19399E-01   -0.19412E-01  5824   0.131E+00-0.348E-03
CGA:  25    -0.236161171823E+03   -0.14115E-01   -0.14106E-01  5824   0.959E-01-0.325E-03
CGA:  26    -0.236172721250E+03   -0.11549E-01   -0.11548E-01  5824   0.719E-01-0.968E-04
CGA:  27    -0.236182221663E+03   -0.95004E-02   -0.94988E-02  5824   0.478E-01-0.290E-04
CGA:  28    -0.236186846512E+03   -0.46248E-02   -0.46225E-02  5824   0.276E-01 0.731E-04
CGA:  29    -0.236190550562E+03   -0.37041E-02   -0.37046E-02  5824   0.266E-01 0.609E-04
CGA:  30    -0.236193675887E+03   -0.31253E-02   -0.31257E-02  5824   0.176E-01 0.474E-04
CGA:  31    -0.236196286977E+03   -0.26111E-02   -0.26109E-02  5824   0.160E-01 0.448E-04
CGA:  32    -0.236198481636E+03   -0.21947E-02   -0.21949E-02  5824   0.142E-01 0.677E-04
CGA:  33    -0.236199828553E+03   -0.13469E-02   -0.13499E-02  5824   0.690E-02 0.633E-04
CGA:  34    -0.236200711610E+03   -0.88306E-03   -0.88362E-03  5824   0.577E-02 0.505E-04
CGA:  35    -0.236201494246E+03   -0.78264E-03   -0.78284E-03  5824   0.376E-02 0.326E-04
CGA:  36    -0.236201955553E+03   -0.46131E-03   -0.46152E-03  5824   0.329E-02 0.143E-04
CGA:  37    -0.236202419024E+03   -0.46347E-03   -0.46345E-03  5824   0.350E-02 0.132E-04
CGA:  38    -0.236202892433E+03   -0.47341E-03   -0.47350E-03  5824   0.166E-02 0.218E-04
CGA:  39    -0.236203042003E+03   -0.14957E-03   -0.15001E-03  5824   0.876E-03 0.777E-05
SDA:  40    -0.236203172384E+03   -0.13038E-03   -0.13037E-03  5824   0.111E-02 0.146E-05
CGA:  41    -0.236203252372E+03   -0.79987E-04   -0.79596E-04  5824   0.716E-03-0.648E-05
CGA:  42    -0.236203342763E+03   -0.90391E-04   -0.90299E-04  5824   0.454E-03-0.135E-04
CGA:  43    -0.236203443850E+03   -0.10109E-03   -0.10220E-03  5824   0.751E-03-0.116E-04
CGA:  44    -0.236203508423E+03   -0.64573E-04   -0.64290E-04  5824   0.213E-03-0.552E-05
CGA:  45    -0.236203542071E+03   -0.33648E-04   -0.33740E-04  5824   0.369E-03-0.396E-05
CGA:  46    -0.236203589335E+03   -0.47264E-04   -0.47233E-04  5824   0.193E-03-0.501E-05
CGA:  47    -0.236203615709E+03   -0.26374E-04   -0.26377E-04  5824   0.227E-03-0.109E-05
CGA:  48    -0.236203655111E+03   -0.39403E-04   -0.39389E-04  5824   0.163E-03 0.368E-06
CGA:  49    -0.236203668012E+03   -0.12901E-04   -0.12931E-04  5824   0.979E-04 0.647E-06
CGA:  50    -0.236203687121E+03   -0.19108E-04   -0.19068E-04  5824   0.100E-03 0.723E-06
CGA:  51    -0.236203694789E+03   -0.76681E-05   -0.77072E-05  5824   0.375E-04 0.715E-06
CGA:  52    -0.236203702865E+03   -0.80767E-05   -0.79746E-05  5824   0.657E-04 0.135E-05
CGA:  53    -0.236203709242E+03   -0.63769E-05   -0.64228E-05  5824   0.221E-04 0.107E-05
CGA:  54    -0.236203713511E+03   -0.42685E-05   -0.42581E-05  5824   0.405E-04 0.185E-06
CGA:  55    -0.236203718083E+03   -0.45719E-05   -0.45749E-05  5824   0.126E-04 0.131E-06
CGA:  56    -0.236203719093E+03   -0.10106E-05   -0.10220E-05  5824   0.657E-05 0.193E-06
CGA:  57    -0.236203720987E+03   -0.18937E-05   -0.18756E-05  5824   0.125E-04 0.115E-06
CGA:  58    -0.236203722413E+03   -0.14257E-05   -0.14116E-05  5824   0.854E-05-0.458E-06
CGA:  59    -0.236203723445E+03   -0.10323E-05   -0.10182E-05  5824   0.584E-05-0.823E-06
CGA:  60    -0.236203723935E+03   -0.48960E-06   -0.48050E-06  5824   0.424E-05-0.192E-06
CGA:  61    -0.236203724669E+03   -0.73435E-06   -0.72076E-06  5824   0.332E-05 0.368E-06
CGA:  62    -0.236203724934E+03   -0.26482E-06   -0.27568E-06  5824   0.132E-05 0.162E-06
CGA:  63    -0.236203725354E+03   -0.42000E-06   -0.42637E-06  5824   0.288E-05-0.234E-07
CGA:  64    -0.236203725573E+03   -0.21898E-06   -0.21806E-06  5824   0.916E-06-0.846E-08
CGA:  65    -0.236203725673E+03   -0.10001E-06   -0.10053E-06  5824   0.909E-06 0.240E-07
CGA:  66    -0.236203725784E+03   -0.11106E-06   -0.11094E-06  5824   0.349E-06-0.135E-07
CGA:  67    -0.236203725850E+03   -0.66058E-07   -0.73409E-07  5824   0.109E-05-0.922E-07
   1 F= -.23620373E+03 E0= -.23621046E+03  d E =0.202159E-01  mag=     3.3012
