 vasp.5.4.4.18Apr17-6-g9f103f2a35 (build Dec 20 2018 12:05:58) complex          
  
 executed on             LinuxIFC date 2019.06.20  15:59:13
 running on   32 total cores
 distrk:  each k-point on    8 cores,    4 groups
 distr:  one band on NCORES_PER_BAND=   4 cores,    2 groups


--------------------------------------------------------------------------------------------------------


 INCAR:
 POTCAR:    PAW_PBE Al 04Jan2001                  
 POTCAR:    PAW_PBE Mn 06Sep2000                  

 ----------------------------------------------------------------------------- 
|                                                                             |
|           W    W    AA    RRRRR   N    N  II  N    N   GGGG   !!!           |
|           W    W   A  A   R    R  NN   N  II  NN   N  G    G  !!!           |
|           W    W  A    A  R    R  N N  N  II  N N  N  G       !!!           |
|           W WW W  AAAAAA  RRRRR   N  N N  II  N  N N  G  GGG   !            |
|           WW  WW  A    A  R   R   N   NN  II  N   NN  G    G                |
|           W    W  A    A  R    R  N    N  II  N    N   GGGG   !!!           |
|                                                                             |
|      You have enabled k-point parallelism (KPAR>1).                         |
|      This developmental code was originally  written by Paul Kent at ORNL,  |
|      and carefully double checked in Vienna.                                |
|      GW as well as linear response parallelism added by Martijn Marsman     |
|      and Georg Kresse.                                                      |
|      Carefully verify results versus KPAR=1.                                |
|      Report problems to Paul Kent and Vienna.                               |
|                                                                             |
 ----------------------------------------------------------------------------- 

 POTCAR:    PAW_PBE Al 04Jan2001                  
   VRHFIN =Al: s2p1                                                             
   LEXCH  = PE                                                                  
   EATOM  =    53.5387 eV,    3.9350 Ry                                         
                                                                                
   TITEL  = PAW_PBE Al 04Jan2001                                                
   LULTRA =        F    use ultrasoft PP ?                                      
   IUNSCR =        1    unscreen: 0-lin 1-nonlin 2-no                           
   RPACOR =    1.500    partial core radius                                     
   POMASS =   26.981; ZVAL   =    3.000    mass and valenz                      
   RCORE  =    1.900    outmost cutoff radius                                   
   RWIGS  =    2.650; RWIGS  =    1.402    wigner-seitz radius (au A)           
   ENMAX  =  240.300; ENMIN  =  180.225 eV                                      
   ICORE  =        2    local potential                                         
   LCOR   =        T    correct aug charges                                     
   LPAW   =        T    paw PP                                                  
   EAUG   =  291.052                                                            
   DEXC   =    0.000                                                            
   RMAX   =    1.939    core radius for proj-oper                               
   RAUG   =    1.300    factor for augmentation sphere                          
   RDEP   =    1.966    radius for radial grids                                 
   RDEPT  =    1.856    core radius for aug-charge                              
                                                                                
   Atomic configuration                                                         
    6 entries                                                                   
     n  l   j            E        occ.                                          
     1  0  0.50     -1511.1048   2.0000                                         
     2  0  0.50      -108.1629   2.0000                                         
     2  1  1.50       -69.6402   6.0000                                         
     3  0  0.50        -7.7528   2.0000                                         
     3  1  1.50        -2.7121   1.0000                                         
     3  2  2.50        -2.7212   0.0000                                         
   Description                                                                  
     l       E           TYP  RCUT    TYP  RCUT                                 
     0     -7.7528455     23  1.900                                             
     0     -3.3096929     23  1.900                                             
     1     -2.7120682     23  1.900                                             
     1     13.6058260     23  1.900                                             
     2     -2.7211652      7  1.900                                             
  local pseudopotential read in
  partial core-charges read in
  partial kinetic energy density read in
  atomic valenz-charges read in
  non local Contribution for L=           0  read in
    real space projection operators read in
  non local Contribution for L=           0  read in
    real space projection operators read in
  non local Contribution for L=           1  read in
    real space projection operators read in
  non local Contribution for L=           1  read in
    real space projection operators read in
    PAW grid and wavefunctions read in
 
   number of l-projection  operators is LMAX  =           4
   number of lm-projection operators is LMMAX =           8
 
 POTCAR:    PAW_PBE Mn 06Sep2000                  
   VRHFIN =Mn: d6 s1                                                            
   LEXCH  = PE                                                                  
   EATOM  =   416.7541 eV,   30.6306 Ry                                         
                                                                                
   TITEL  = PAW_PBE Mn 06Sep2000                                                
   LULTRA =        F    use ultrasoft PP ?                                      
   IUNSCR =        1    unscreen: 0-lin 1-nonlin 2-no                           
   RPACOR =    2.000    partial core radius                                     
   POMASS =   54.938; ZVAL   =    7.000    mass and valenz                      
   RCORE  =    2.300    outmost cutoff radius                                   
   RWIGS  =    2.500; RWIGS  =    1.323    wigner-seitz radius (au A)           
   ENMAX  =  269.864; ENMIN  =  202.398 eV                                      
   RCLOC  =    1.725    cutoff for local pot                                    
   LCOR   =        T    correct aug charges                                     
   LPAW   =        T    paw PP                                                  
   EAUG   =  500.711                                                            
   DEXC   =    0.000                                                            
   RMAX   =    2.343    core radius for proj-oper                               
   RAUG   =    1.300    factor for augmentation sphere                          
   RDEP   =    2.338    radius for radial grids                                 
   RDEPT  =    1.911    core radius for aug-charge                              
                                                                                
   Atomic configuration                                                         
    9 entries                                                                   
     n  l   j            E        occ.                                          
     1  0  0.50     -6424.8288   2.0000                                         
     2  0  0.50      -739.1154   2.0000                                         
     2  1  1.50      -625.3949   6.0000                                         
     3  0  0.50       -81.6100   2.0000                                         
     3  1  1.50       -50.4667   6.0000                                         
     3  2  2.50        -3.3745   6.0000                                         
     4  0  0.50        -4.1331   1.0000                                         
     4  1  0.50        -4.0817   0.0000                                         
     4  3  2.50        -1.3606   0.0000                                         
   Description                                                                  
     l       E           TYP  RCUT    TYP  RCUT                                 
     2     -3.3744664     23  2.300                                             
     2     -4.7350490     23  2.300                                             
     0     -4.1331408     23  2.300                                             
     0      7.6656614     23  2.300                                             
     1     -2.7211652     23  2.300                                             
     1     20.4087390     23  2.300                                             
  local pseudopotential read in
  partial core-charges read in
  partial kinetic energy density read in
  atomic valenz-charges read in
  non local Contribution for L=           2  read in
    real space projection operators read in
  non local Contribution for L=           2  read in
    real space projection operators read in
  non local Contribution for L=           0  read in
    real space projection operators read in
  non local Contribution for L=           0  read in
    real space projection operators read in
  non local Contribution for L=           1  read in
    real space projection operators read in
  non local Contribution for L=           1  read in
    real space projection operators read in
    PAW grid and wavefunctions read in
 
   number of l-projection  operators is LMAX  =           6
   number of lm-projection operators is LMMAX =          18
 

 ----------------------------------------------------------------------------- 
|                                                                             |
|  ADVICE TO THIS USER RUNNING 'VASP/VAMP'   (HEAR YOUR MASTER'S VOICE ...):  |
|                                                                             |
|      You have a (more or less) 'large supercell' and for larger cells       |
|      it might be more efficient to use real space projection opertators     |
|      So try LREAL= Auto  in the INCAR   file.                               |
|      Mind:          For very  accurate calculation you might also keep the  |
|      reciprocal projection scheme          (i.e. LREAL=.FALSE.)             |
|                                                                             |
 ----------------------------------------------------------------------------- 

  PAW_PBE Al 04Jan2001                  :
 energy of atom  1       EATOM=  -53.5387
 kinetic energy error for atom=    0.0005 (will be added to EATOM!!)
  PAW_PBE Mn 06Sep2000                  :
 energy of atom  2       EATOM= -416.7541
 kinetic energy error for atom=    0.0080 (will be added to EATOM!!)
 
 
 POSCAR: NewRef: 18, @ ['Mn', array([1.37502469, 
  positions in cartesian coordinates
  velocities in cartesian coordinates
  No initial velocities read in
 exchange correlation table for  LEXCH =        8
   RHO(1)=    0.500       N(1)  =     2000
   RHO(2)=  100.500       N(2)  =     4000
 


--------------------------------------------------------------------------------------------------------


 ion  position               nearest neighbor table
   1  0.000  0.000  0.000-  20 2.61  24 2.61  32 2.61  36 2.61  31 2.61  23 2.61  35 2.61  19 2.61
                             3 2.75   7 2.75   5 2.75  13 2.75
   2  0.000  0.000  0.500-  19 2.61  23 2.61  31 2.61  35 2.61  20 2.61  32 2.61  24 2.61  36 2.61
                             4 2.75   8 2.75   6 2.75  14 2.75
   3  0.000  0.333  0.000-  20 2.61  32 2.61  22 2.61  34 2.61  19 2.61  31 2.61  33 2.61  21 2.61
                             9 2.75   1 2.75   5 2.75  15 2.75
   4  0.000  0.333  0.500-  19 2.61  31 2.61  21 2.61  33 2.61  32 2.61  20 2.61  22 2.61  34 2.61
                            10 2.75   2 2.75   6 2.75  16 2.75
   5  0.000  0.667  0.000-  22 2.61  34 2.61  24 2.61  36 2.61  21 2.61  33 2.61  35 2.61  23 2.61
                             3 2.75  11 2.75   1 2.75  17 2.75
   6  0.000  0.667  0.500-  21 2.61  33 2.61  23 2.61  35 2.61  34 2.61  22 2.61  24 2.61  36 2.61
                             4 2.75  12 2.75   2 2.75  18 2.75
   7  0.333  0.000  0.000-  20 2.61  24 2.61  26 2.61  30 2.61  23 2.61  19 2.61  29 2.61  25 2.61
                            13 2.75   1 2.75   9 2.75  11 2.75
   8  0.333  0.000  0.500-  19 2.61  23 2.61  25 2.61  29 2.61  20 2.61  24 2.61  26 2.61  30 2.61
                            14 2.75   2 2.75  10 2.75  12 2.75
   9  0.333  0.333  0.000-  20 2.61  22 2.61  26 2.61  19 2.61  28 2.61  21 2.61  25 2.61  27 2.61
                             3 2.75   7 2.75  11 2.75  15 2.75
  10  0.333  0.333  0.500-  19 2.61  21 2.61  25 2.61  20 2.61  27 2.61  26 2.61  22 2.61  28 2.61
                             4 2.75   8 2.75  12 2.75  16 2.75
  11  0.333  0.667  0.000-  22 2.61  24 2.61  28 2.61  21 2.61  30 2.61  23 2.61  27 2.61  29 2.61
                            17 2.75   5 2.75   9 2.75   7 2.75
  12  0.333  0.667  0.500-  21 2.61  23 2.61  27 2.61  22 2.61  29 2.61  28 2.61  24 2.61  30 2.61
                            18 2.75   6 2.75  10 2.75   8 2.75
  13  0.667  0.000  0.000-  26 2.61  30 2.61  32 2.61  36 2.61  29 2.61  25 2.61  35 2.61  31 2.61
                             7 2.75  15 2.75   1 2.75  17 2.75
  14  0.667  0.000  0.500-  25 2.61  29 2.61  31 2.61  35 2.61  26 2.61  30 2.61  32 2.61  36 2.61
                             8 2.75  16 2.75   2 2.75  18 2.75
  15  0.667  0.333  0.000-  26 2.61  28 2.61  32 2.61  25 2.61  34 2.61  27 2.61  31 2.61  33 2.61
                            17 2.75   9 2.75  13 2.75   3 2.75
  16  0.667  0.333  0.500-  25 2.61  27 2.61  31 2.61  26 2.61  33 2.61  32 2.61  28 2.61  34 2.61
                            18 2.75  10 2.75  14 2.75   4 2.75
  17  0.667  0.667  0.000-  28 2.61  30 2.61  34 2.61  27 2.61  36 2.61  29 2.61  33 2.61  35 2.61
                            11 2.75  15 2.75  13 2.75   5 2.75
  18  0.667  0.667  0.500-  27 2.61  29 2.61  33 2.61  28 2.61  35 2.61  34 2.61  30 2.61  36 2.61
                            12 2.75  16 2.75  14 2.75   6 2.75
  19  0.167  0.167  0.250-  10 2.61   8 2.61   4 2.61   9 2.61   2 2.61   7 2.61   3 2.61   1 2.61
                            21 2.75  25 2.75  23 2.75  31 2.75
  20  0.167  0.167  0.750-   9 2.61   7 2.61   3 2.61  10 2.61   1 2.61   4 2.61   8 2.61   2 2.61
                            22 2.75  26 2.75  24 2.75  32 2.75
  21  0.167  0.500  0.250-  12 2.61  10 2.61   6 2.61  11 2.61   4 2.61   9 2.61   5 2.61   3 2.61
                            19 2.75  23 2.75  27 2.75  33 2.75
  22  0.167  0.500  0.750-  11 2.61   9 2.61   5 2.61  12 2.61   3 2.61   6 2.61  10 2.61   4 2.61
                            20 2.75  24 2.75  28 2.75  34 2.75
  23  0.167  0.833  0.250-   8 2.61  12 2.61   2 2.61   6 2.61  11 2.61   7 2.61   5 2.61   1 2.61
                            21 2.75  29 2.75  19 2.75  35 2.75
  24  0.167  0.833  0.750-   7 2.61  11 2.61   1 2.61   5 2.61   8 2.61  12 2.61   2 2.61   6 2.61
                            22 2.75  30 2.75  20 2.75  36 2.75
  25  0.500  0.167  0.250-  16 2.61  14 2.61  10 2.61  15 2.61   8 2.61  13 2.61   9 2.61   7 2.61
                            19 2.75  27 2.75  31 2.75  29 2.75
  26  0.500  0.167  0.750-  15 2.61  13 2.61   9 2.61  16 2.61   7 2.61  10 2.61  14 2.61   8 2.61
                            20 2.75  28 2.75  32 2.75  30 2.75
  27  0.500  0.500  0.250-  18 2.61  16 2.61  12 2.61  17 2.61  10 2.61  15 2.61  11 2.61   9 2.61
                            21 2.75  25 2.75  29 2.75  33 2.75
  28  0.500  0.500  0.750-  17 2.61  15 2.61  11 2.61  18 2.61   9 2.61  12 2.61  16 2.61  10 2.61
                            22 2.75  26 2.75  30 2.75  34 2.75
  29  0.500  0.833  0.250-  14 2.61  18 2.61   8 2.61  12 2.61  17 2.61  13 2.61  11 2.61   7 2.61
                            23 2.75  27 2.75  35 2.75  25 2.75
  30  0.500  0.833  0.750-  13 2.61  17 2.61   7 2.61  11 2.61  14 2.61  18 2.61   8 2.61  12 2.61
                            24 2.75  28 2.75  36 2.75  26 2.75
  31  0.833  0.167  0.250-   4 2.61  16 2.61  14 2.61   2 2.61  15 2.61   3 2.61  13 2.61   1 2.61
                            25 2.75  33 2.75  19 2.75  35 2.75
  32  0.833  0.167  0.750-   3 2.61  15 2.61  13 2.61   1 2.61   4 2.61  16 2.61   2 2.61  14 2.61
                            26 2.75  34 2.75  20 2.75  36 2.75
  33  0.833  0.500  0.250-   6 2.61  18 2.61  16 2.61   4 2.61  17 2.61   5 2.61  15 2.61   3 2.61
                            27 2.75  31 2.75  35 2.75  21 2.75
  34  0.833  0.500  0.750-   5 2.61  17 2.61  15 2.61   3 2.61   6 2.61  18 2.61   4 2.61  16 2.61
                            28 2.75  32 2.75  36 2.75  22 2.75
  35  0.833  0.833  0.250-   2 2.61   6 2.61  14 2.61  18 2.61  13 2.61   5 2.61  17 2.61   1 2.61
                            29 2.75  33 2.75  31 2.75  23 2.75
  36  0.833  0.833  0.750-   1 2.61   5 2.61  13 2.61  17 2.61   2 2.61  14 2.61   6 2.61  18 2.61
                            30 2.75  34 2.75  32 2.75  24 2.75
 
  LATTYP: Found a simple tetragonal cell.
 ALAT       =     8.2501481662
 C/A-ratio  =     0.8428059861
  
  Lattice vectors:
  
 A1 = (   8.2501481662,   0.0000000000,   0.0000000000)
 A2 = (   0.0000000000,   8.2501481662,   0.0000000000)
 A3 = (   0.0000000000,   0.0000000000,   6.9532742610)


Analysis of symmetry for initial positions (statically):
=====================================================================
 Subroutine PRICEL returns following result:
 
  LATTYP: Found a simple tetragonal cell.
 ALAT       =     2.7500493888
 C/A-ratio  =     1.2642089792
  
  Lattice vectors:
  
 A1 = (   2.7500493888,   0.0000000000,   0.0000000000)
 A2 = (   0.0000000000,   2.7500493888,   0.0000000000)
 A3 = (   0.0000000000,   0.0000000000,   3.4766371305)
 
  18 primitive cells build up your supercell.
 

 Routine SETGRP: Setting up the symmetry group for a 
 simple tetragonal supercell.


 Subroutine GETGRP returns: Found 16 space group operations
 (whereof 16 operations were pure point group operations)
 out of a pool of 16 trial point group operations.


The static configuration has the point symmetry D_4h.


Analysis of symmetry for dynamics (positions and initial velocities):
=====================================================================
 Subroutine PRICEL returns following result:
 
  LATTYP: Found a simple tetragonal cell.
 ALAT       =     2.7500493888
 C/A-ratio  =     1.2642089792
  
  Lattice vectors:
  
 A1 = (   2.7500493888,   0.0000000000,   0.0000000000)
 A2 = (   0.0000000000,   2.7500493888,   0.0000000000)
 A3 = (   0.0000000000,   0.0000000000,   3.4766371305)
 
  18 primitive cells build up your supercell.
 

 Routine SETGRP: Setting up the symmetry group for a 
 simple tetragonal supercell.


 Subroutine GETGRP returns: Found 16 space group operations
 (whereof 16 operations were pure point group operations)
 out of a pool of 16 trial point group operations.


The dynamic configuration has the point symmetry D_4h.


Analysis of structural, dynamic, and magnetic symmetry:
=====================================================================
 Subroutine PRICEL returns:
 Original cell was already a primitive cell.
 

 Routine SETGRP: Setting up the symmetry group for a 
 simple tetragonal supercell.


 Subroutine GETGRP returns: Found  2 space group operations
 (whereof  1 operations were pure point group operations)
 out of a pool of 16 trial point group operations.


The magnetic configuration has the point symmetry C_1 .
 The point group associated with its full space group is C_1h.


 Subroutine INISYM returns: Found  2 space group operations
 (whereof  1 operations are pure point group operations),
 and found     1 'primitive' translations

 
 
 KPOINTS: automatic KPOINTS                       

Automatic generation of k-mesh.
 generate k-points for:    5    5    6
Space group operators:
 irot       det(A)        alpha          n_x          n_y          n_z        tau_x        tau_y        tau_z
    1     1.000000     0.000001     1.000000     0.000000     0.000000     0.000000     0.000000     0.000000
    2    -1.000000   179.999999     0.000000     0.000000     1.000000     0.000000     0.000000     0.500000
 
 Subroutine IBZKPT returns following result:
 ===========================================
 
 Found     52 irreducible k-points:
 
 Following reciprocal coordinates:
            Coordinates               Weight
  0.000000  0.000000  0.000000      1.000000
  0.200000  0.000000  0.000000      2.000000
  0.400000  0.000000  0.000000      2.000000
  0.000000  0.200000  0.000000      2.000000
  0.200000  0.200000  0.000000      2.000000
  0.400000  0.200000  0.000000      2.000000
 -0.400000  0.200000  0.000000      2.000000
 -0.200000  0.200000  0.000000      2.000000
  0.000000  0.400000  0.000000      2.000000
  0.200000  0.400000  0.000000      2.000000
  0.400000  0.400000  0.000000      2.000000
 -0.400000  0.400000  0.000000      2.000000
 -0.200000  0.400000  0.000000      2.000000
  0.000000  0.000000  0.166667      2.000000
  0.200000  0.000000  0.166667      4.000000
  0.400000  0.000000  0.166667      4.000000
  0.000000  0.200000  0.166667      4.000000
  0.200000  0.200000  0.166667      4.000000
  0.400000  0.200000  0.166667      4.000000
 -0.400000  0.200000  0.166667      4.000000
 -0.200000  0.200000  0.166667      4.000000
  0.000000  0.400000  0.166667      4.000000
  0.200000  0.400000  0.166667      4.000000
  0.400000  0.400000  0.166667      4.000000
 -0.400000  0.400000  0.166667      4.000000
 -0.200000  0.400000  0.166667      4.000000
  0.000000  0.000000  0.333333      2.000000
  0.200000  0.000000  0.333333      4.000000
  0.400000  0.000000  0.333333      4.000000
  0.000000  0.200000  0.333333      4.000000
  0.200000  0.200000  0.333333      4.000000
  0.400000  0.200000  0.333333      4.000000
 -0.400000  0.200000  0.333333      4.000000
 -0.200000  0.200000  0.333333      4.000000
  0.000000  0.400000  0.333333      4.000000
  0.200000  0.400000  0.333333      4.000000
  0.400000  0.400000  0.333333      4.000000
 -0.400000  0.400000  0.333333      4.000000
 -0.200000  0.400000  0.333333      4.000000
  0.000000  0.000000  0.500000      1.000000
  0.200000  0.000000  0.500000      2.000000
  0.400000  0.000000  0.500000      2.000000
  0.000000  0.200000  0.500000      2.000000
  0.200000  0.200000  0.500000      2.000000
  0.400000  0.200000  0.500000      2.000000
 -0.400000  0.200000  0.500000      2.000000
 -0.200000  0.200000  0.500000      2.000000
  0.000000  0.400000  0.500000      2.000000
  0.200000  0.400000  0.500000      2.000000
  0.400000  0.400000  0.500000      2.000000
 -0.400000  0.400000  0.500000      2.000000
 -0.200000  0.400000  0.500000      2.000000
 
 Following cartesian coordinates:
            Coordinates               Weight
  0.000000  0.000000  0.000000      1.000000
  0.024242  0.000000  0.000000      2.000000
  0.048484  0.000000  0.000000      2.000000
  0.000000  0.024242  0.000000      2.000000
  0.024242  0.024242  0.000000      2.000000
  0.048484  0.024242  0.000000      2.000000
 -0.048484  0.024242  0.000000      2.000000
 -0.024242  0.024242  0.000000      2.000000
  0.000000  0.048484  0.000000      2.000000
  0.024242  0.048484  0.000000      2.000000
  0.048484  0.048484  0.000000      2.000000
 -0.048484  0.048484  0.000000      2.000000
 -0.024242  0.048484  0.000000      2.000000
  0.000000  0.000000  0.023970      2.000000
  0.024242  0.000000  0.023970      4.000000
  0.048484  0.000000  0.023970      4.000000
  0.000000  0.024242  0.023970      4.000000
  0.024242  0.024242  0.023970      4.000000
  0.048484  0.024242  0.023970      4.000000
 -0.048484  0.024242  0.023970      4.000000
 -0.024242  0.024242  0.023970      4.000000
  0.000000  0.048484  0.023970      4.000000
  0.024242  0.048484  0.023970      4.000000
  0.048484  0.048484  0.023970      4.000000
 -0.048484  0.048484  0.023970      4.000000
 -0.024242  0.048484  0.023970      4.000000
  0.000000  0.000000  0.047939      2.000000
  0.024242  0.000000  0.047939      4.000000
  0.048484  0.000000  0.047939      4.000000
  0.000000  0.024242  0.047939      4.000000
  0.024242  0.024242  0.047939      4.000000
  0.048484  0.024242  0.047939      4.000000
 -0.048484  0.024242  0.047939      4.000000
 -0.024242  0.024242  0.047939      4.000000
  0.000000  0.048484  0.047939      4.000000
  0.024242  0.048484  0.047939      4.000000
  0.048484  0.048484  0.047939      4.000000
 -0.048484  0.048484  0.047939      4.000000
 -0.024242  0.048484  0.047939      4.000000
  0.000000  0.000000  0.071909      1.000000
  0.024242  0.000000  0.071909      2.000000
  0.048484  0.000000  0.071909      2.000000
  0.000000  0.024242  0.071909      2.000000
  0.024242  0.024242  0.071909      2.000000
  0.048484  0.024242  0.071909      2.000000
 -0.048484  0.024242  0.071909      2.000000
 -0.024242  0.024242  0.071909      2.000000
  0.000000  0.048484  0.071909      2.000000
  0.024242  0.048484  0.071909      2.000000
  0.048484  0.048484  0.071909      2.000000
 -0.048484  0.048484  0.071909      2.000000
 -0.024242  0.048484  0.071909      2.000000
 


--------------------------------------------------------------------------------------------------------




 Dimension of arrays:
   k-points           NKPTS =     52   k-points in BZ     NKDIM =     52   number of bands    NBANDS=    112
   number of dos      NEDOS =    301   number of ions     NIONS =     36
   non local maximal  LDIM  =      6   non local SUM 2l+1 LMDIM =     18
   total plane-waves  NPLWV = 139968
   max r-space proj   IRMAX =      1   max aug-charges    IRDMAX=  92271
   dimension x,y,z NGX =    54 NGY =   54 NGZ =   48
   dimension x,y,z NGXF=   108 NGYF=  108 NGZF=   96
   support grid    NGXF=   216 NGYF=  216 NGZF=  192
   ions per type =              18  18
   NGX,Y,Z   is equivalent  to a cutoff of  10.88, 10.88, 11.48 a.u.
   NGXF,Y,Z  is equivalent  to a cutoff of  21.76, 21.76, 22.95 a.u.

 SYSTEM =  AlMn_pv                                 
 POSCAR =  NewRef: 18, @ ['Mn', array([1.37502469, 

 Startparameter for this run:
   NWRITE =      2    write-flag & timer
   PREC   = accura    normal or accurate (medium, high low for compatibility)
   ISTART =      0    job   : 0-new  1-cont  2-samecut
   ICHARG =      2    charge: 1-file 2-atom 10-const
   ISPIN  =      2    spin polarized calculation?
   LNONCOLLINEAR =      F non collinear calculations
   LSORBIT =      F    spin-orbit coupling
   INIWAV =      1    electr: 0-lowe 1-rand  2-diag
   LASPH  =      F    aspherical Exc in radial PAW
   METAGGA=      F    non-selfconsistent MetaGGA calc.

 Electronic Relaxation 1
   ENCUT  =  404.8 eV  29.75 Ry    5.45 a.u.  13.53 13.53 11.41*2*pi/ulx,y,z
   ENINI  =  404.8     initial cutoff
   ENAUG  =  500.7 eV  augmentation charge cutoff
   NELM   =    100;   NELMIN=  4; NELMDL= -8     # of ELM steps 
   EDIFF  = 0.1E-06   stopping-criterion for ELM
   LREAL  =      F    real-space projection
   NLSPLINE    = F    spline interpolate recip. space projectors
   LCOMPAT=      F    compatible to vasp.4.4
   GGA_COMPAT  = T    GGA compatible to vasp.4.4-vasp.4.6
   LMAXPAW     = -100 max onsite density
   LMAXMIX     =    2 max onsite mixed and CHGCAR
   VOSKOWN=      0    Vosko Wilk Nusair interpolation
   ROPT   =    0.00000   0.00000
 Ionic relaxation
   EDIFFG = 0.1E-05   stopping-criterion for IOM
   NSW    =      0    number of steps for IOM
   NBLOCK =      1;   KBLOCK =      1    inner block; outer block 
   IBRION =     -1    ionic relax: 0-MD 1-quasi-New 2-CG
   NFREE  =      0    steps in history (QN), initial steepest desc. (CG)
   ISIF   =      2    stress and relaxation
   IWAVPR =     10    prediction:  0-non 1-charg 2-wave 3-comb
   ISYM   =      2    0-nonsym 1-usesym 2-fastsym
   LCORR  =      T    Harris-Foulkes like correction to forces

   POTIM  = 0.2000    time-step for ionic-motion
   TEIN   =    0.0    initial temperature
   TEBEG  =    0.0;   TEEND  =   0.0 temperature during run
   SMASS  =  -3.00    Nose mass-parameter (am)
   estimated Nose-frequenzy (Omega)   =  0.10E-29 period in steps =****** mass=  -0.156E-26a.u.
   SCALEE = 1.0000    scale energy and forces
   NPACO  =    256;   APACO  = 16.0  distance and # of slots for P.C.
   PSTRESS=    0.0 pullay stress

  Mass of Ions in am
   POMASS =  26.98 54.94
  Ionic Valenz
   ZVAL   =   3.00  7.00
  Atomic Wigner-Seitz radii
   RWIGS  =  -1.00 -1.00
  virtual crystal weights 
   VCA    =   1.00  1.00
   NELECT =     180.0000    total number of electrons
   NUPDOWN=      -1.0000    fix difference up-down

 DOS related values:
   EMIN   =  10.00;   EMAX   =-10.00  energy-range for DOS
   EFERMI =   0.00
   ISMEAR =     1;   SIGMA  =   0.20  broadening in eV -4-tet -1-fermi 0-gaus

 Electronic relaxation 2 (details)
   IALGO  =     58    algorithm
   LDIAG  =      T    sub-space diagonalisation (order eigenvalues)
   LSUBROT=      F    optimize rotation matrix (better conditioning)
   TURBO    =      0    0=normal 1=particle mesh
   IRESTART =      0    0=no restart 2=restart with 2 vectors
   NREBOOT  =      0    no. of reboots
   NMIN     =      0    reboot dimension
   EREF     =   0.00    reference energy to select bands
   IMIX   =      4    mixing-type and parameters
     AMIX     =   0.40;   BMIX     =  1.00
     AMIX_MAG =   1.60;   BMIX_MAG =  1.00
     AMIN     =   0.10
     WC   =   100.;   INIMIX=   1;  MIXPRE=   1;  MAXMIX= -45

 Intra band minimization:
   WEIMIN = 0.0000     energy-eigenvalue tresh-hold
   EBREAK =  0.22E-09  absolut break condition
   DEPER  =   0.30     relativ break condition  

   TIME   =   0.40     timestep for ELM

  volume/ion in A,a.u.               =      13.15        88.72
  Fermi-wavevector in a.u.,A,eV,Ry     =   1.186118  2.241439 19.141722  1.406877
  Thomas-Fermi vector in A             =   2.322298
 
 Write flags
   LWAVE        =      F    write WAVECAR
   LDOWNSAMPLE  =      F    k-point downsampling of WAVECAR
   LCHARG       =      F    write CHGCAR
   LVTOT        =      F    write LOCPOT, total local potential
   LVHAR        =      F    write LOCPOT, Hartree potential only
   LELF         =      F    write electronic localiz. function (ELF)
   LORBIT       =     10    0 simple, 1 ext, 2 COOP (PROOUT), +10 PAW based schemes


 Dipole corrections
   LMONO  =      F    monopole corrections only (constant potential shift)
   LDIPOL =      F    correct potential (dipole corrections)
   IDIPOL =      0    1-x, 2-y, 3-z, 4-all directions 
   EPSILON=  1.0000000 bulk dielectric constant

 Exchange correlation treatment:
   GGA     =    --    GGA type
   LEXCH   =     8    internal setting for exchange type
   VOSKOWN=      0    Vosko Wilk Nusair interpolation
   LHFCALC =     F    Hartree Fock is set to
   LHFONE  =     F    Hartree Fock one center treatment
   AEXX    =    0.0000 exact exchange contribution

 Linear response parameters
   LEPSILON=     F    determine dielectric tensor
   LRPA    =     F    only Hartree local field effects (RPA)
   LNABLA  =     F    use nabla operator in PAW spheres
   LVEL    =     F    velocity operator in full k-point grid
   LINTERFAST=   F  fast interpolation
   KINTER  =     0    interpolate to denser k-point grid
   CSHIFT  =0.1000    complex shift for real part using Kramers Kronig
   OMEGAMAX=  -1.0    maximum frequency
   DEG_THRESHOLD= 0.2000000E-02 threshold for treating states as degnerate
   RTIME   =   -0.100 relaxation time in fs
  (WPLASMAI=    0.000 imaginary part of plasma frequency in eV, 0.658/RTIME)
   DFIELD  = 0.0000000 0.0000000 0.0000000 field for delta impulse in time
 
 Orbital magnetization related:
   ORBITALMAG=     F  switch on orbital magnetization
   LCHIMAG   =     F  perturbation theory with respect to B field
   DQ        =  0.001000  dq finite difference perturbation B field
   LLRAUG    =     F  two centre corrections for induced B field



--------------------------------------------------------------------------------------------------------


 Static calculation
 charge density and potential will be updated during run
 spin polarized calculation
 Conjugate gradient for all bands (Freysoldt, et al. PRB 79, 241103 (2009))
 preconditioned conjugated gradient                                        
 perform sub-space diagonalisation
    before iterative eigenvector-optimisation
 modified Broyden-mixing scheme, WC =      100.0
 initial mixing is a Kerker type mixing with AMIX =  0.4000 and BMIX =      1.0000
 Hartree-type preconditioning will be used
 using additional bands           22
 reciprocal scheme for non local part
 use partial core corrections
 no Harris-corrections to forces 
 use gradient corrections 
 use of overlap-Matrix (Vanderbilt PP)
 Methfessel and Paxton  Order N= 1 SIGMA  =   0.20


--------------------------------------------------------------------------------------------------------


  energy-cutoff  :      404.80
  volume of cell :      473.27
      direct lattice vectors                 reciprocal lattice vectors
     8.250148166  0.000000000  0.000000000     0.121209944  0.000000000  0.000000000
     0.000000000  8.250148166  0.000000000     0.000000000  0.121209944  0.000000000
     0.000000000  0.000000000  6.953274261     0.000000000  0.000000000  0.143817137

  length of vectors
     8.250148166  8.250148166  6.953274261     0.121209944  0.121209944  0.143817137


 
 k-points in units of 2pi/SCALE and weight: automatic KPOINTS                       
   0.00000000  0.00000000  0.00000000       0.007
   0.02424199  0.00000000  0.00000000       0.013
   0.04848398  0.00000000  0.00000000       0.013
   0.00000000  0.02424199  0.00000000       0.013
   0.02424199  0.02424199  0.00000000       0.013
   0.04848398  0.02424199  0.00000000       0.013
  -0.04848398  0.02424199  0.00000000       0.013
  -0.02424199  0.02424199  0.00000000       0.013
   0.00000000  0.04848398  0.00000000       0.013
   0.02424199  0.04848398  0.00000000       0.013
   0.04848398  0.04848398  0.00000000       0.013
  -0.04848398  0.04848398  0.00000000       0.013
  -0.02424199  0.04848398  0.00000000       0.013
   0.00000000  0.00000000  0.02396952       0.013
   0.02424199  0.00000000  0.02396952       0.027
   0.04848398  0.00000000  0.02396952       0.027
   0.00000000  0.02424199  0.02396952       0.027
   0.02424199  0.02424199  0.02396952       0.027
   0.04848398  0.02424199  0.02396952       0.027
  -0.04848398  0.02424199  0.02396952       0.027
  -0.02424199  0.02424199  0.02396952       0.027
   0.00000000  0.04848398  0.02396952       0.027
   0.02424199  0.04848398  0.02396952       0.027
   0.04848398  0.04848398  0.02396952       0.027
  -0.04848398  0.04848398  0.02396952       0.027
  -0.02424199  0.04848398  0.02396952       0.027
   0.00000000  0.00000000  0.04793905       0.013
   0.02424199  0.00000000  0.04793905       0.027
   0.04848398  0.00000000  0.04793905       0.027
   0.00000000  0.02424199  0.04793905       0.027
   0.02424199  0.02424199  0.04793905       0.027
   0.04848398  0.02424199  0.04793905       0.027
  -0.04848398  0.02424199  0.04793905       0.027
  -0.02424199  0.02424199  0.04793905       0.027
   0.00000000  0.04848398  0.04793905       0.027
   0.02424199  0.04848398  0.04793905       0.027
   0.04848398  0.04848398  0.04793905       0.027
  -0.04848398  0.04848398  0.04793905       0.027
  -0.02424199  0.04848398  0.04793905       0.027
   0.00000000  0.00000000  0.07190857       0.007
   0.02424199  0.00000000  0.07190857       0.013
   0.04848398  0.00000000  0.07190857       0.013
   0.00000000  0.02424199  0.07190857       0.013
   0.02424199  0.02424199  0.07190857       0.013
   0.04848398  0.02424199  0.07190857       0.013
  -0.04848398  0.02424199  0.07190857       0.013
  -0.02424199  0.02424199  0.07190857       0.013
   0.00000000  0.04848398  0.07190857       0.013
   0.02424199  0.04848398  0.07190857       0.013
   0.04848398  0.04848398  0.07190857       0.013
  -0.04848398  0.04848398  0.07190857       0.013
  -0.02424199  0.04848398  0.07190857       0.013
 
 k-points in reciprocal lattice and weights: automatic KPOINTS                       
   0.00000000  0.00000000  0.00000000       0.007
   0.20000000  0.00000000  0.00000000       0.013
   0.40000000  0.00000000  0.00000000       0.013
   0.00000000  0.20000000  0.00000000       0.013
   0.20000000  0.20000000  0.00000000       0.013
   0.40000000  0.20000000  0.00000000       0.013
  -0.40000000  0.20000000  0.00000000       0.013
  -0.20000000  0.20000000  0.00000000       0.013
   0.00000000  0.40000000  0.00000000       0.013
   0.20000000  0.40000000  0.00000000       0.013
   0.40000000  0.40000000  0.00000000       0.013
  -0.40000000  0.40000000  0.00000000       0.013
  -0.20000000  0.40000000  0.00000000       0.013
   0.00000000  0.00000000  0.16666667       0.013
   0.20000000  0.00000000  0.16666667       0.027
   0.40000000  0.00000000  0.16666667       0.027
   0.00000000  0.20000000  0.16666667       0.027
   0.20000000  0.20000000  0.16666667       0.027
   0.40000000  0.20000000  0.16666667       0.027
  -0.40000000  0.20000000  0.16666667       0.027
  -0.20000000  0.20000000  0.16666667       0.027
   0.00000000  0.40000000  0.16666667       0.027
   0.20000000  0.40000000  0.16666667       0.027
   0.40000000  0.40000000  0.16666667       0.027
  -0.40000000  0.40000000  0.16666667       0.027
  -0.20000000  0.40000000  0.16666667       0.027
   0.00000000  0.00000000  0.33333333       0.013
   0.20000000  0.00000000  0.33333333       0.027
   0.40000000  0.00000000  0.33333333       0.027
   0.00000000  0.20000000  0.33333333       0.027
   0.20000000  0.20000000  0.33333333       0.027
   0.40000000  0.20000000  0.33333333       0.027
  -0.40000000  0.20000000  0.33333333       0.027
  -0.20000000  0.20000000  0.33333333       0.027
   0.00000000  0.40000000  0.33333333       0.027
   0.20000000  0.40000000  0.33333333       0.027
   0.40000000  0.40000000  0.33333333       0.027
  -0.40000000  0.40000000  0.33333333       0.027
  -0.20000000  0.40000000  0.33333333       0.027
   0.00000000  0.00000000  0.50000000       0.007
   0.20000000  0.00000000  0.50000000       0.013
   0.40000000  0.00000000  0.50000000       0.013
   0.00000000  0.20000000  0.50000000       0.013
   0.20000000  0.20000000  0.50000000       0.013
   0.40000000  0.20000000  0.50000000       0.013
  -0.40000000  0.20000000  0.50000000       0.013
  -0.20000000  0.20000000  0.50000000       0.013
   0.00000000  0.40000000  0.50000000       0.013
   0.20000000  0.40000000  0.50000000       0.013
   0.40000000  0.40000000  0.50000000       0.013
  -0.40000000  0.40000000  0.50000000       0.013
  -0.20000000  0.40000000  0.50000000       0.013
 
 position of ions in fractional coordinates (direct lattice) 
   0.00000000  0.00000000  0.00000000
   0.00000000  0.00000000  0.50000000
   0.00000000  0.33333333  0.00000000
   0.00000000  0.33333333  0.50000000
   0.00000000  0.66666667  0.00000000
   0.00000000  0.66666667  0.50000000
   0.33333333  0.00000000  0.00000000
   0.33333333  0.00000000  0.50000000
   0.33333333  0.33333333  0.00000000
   0.33333333  0.33333333  0.50000000
   0.33333333  0.66666667  0.00000000
   0.33333333  0.66666667  0.50000000
   0.66666667  0.00000000  0.00000000
   0.66666667  0.00000000  0.50000000
   0.66666667  0.33333333  0.00000000
   0.66666667  0.33333333  0.50000000
   0.66666667  0.66666667  0.00000000
   0.66666667  0.66666667  0.50000000
   0.16666667  0.16666667  0.25000000
   0.16666667  0.16666667  0.75000000
   0.16666667  0.50000000  0.25000000
   0.16666667  0.50000000  0.75000000
   0.16666667  0.83333333  0.25000000
   0.16666667  0.83333333  0.75000000
   0.50000000  0.16666667  0.25000000
   0.50000000  0.16666667  0.75000000
   0.50000000  0.50000000  0.25000000
   0.50000000  0.50000000  0.75000000
   0.50000000  0.83333333  0.25000000
   0.50000000  0.83333333  0.75000000
   0.83333333  0.16666667  0.25000000
   0.83333333  0.16666667  0.75000000
   0.83333333  0.50000000  0.25000000
   0.83333333  0.50000000  0.75000000
   0.83333333  0.83333333  0.25000000
   0.83333333  0.83333333  0.75000000
 
 position of ions in cartesian coordinates  (Angst):
   0.00000000  0.00000000  0.00000000
   0.00000000  0.00000000  3.47663713
   0.00000000  2.75004939  0.00000000
   0.00000000  2.75004939  3.47663713
   0.00000000  5.50009878  0.00000000
   0.00000000  5.50009878  3.47663713
   2.75004939  0.00000000  0.00000000
   2.75004939  0.00000000  3.47663713
   2.75004939  2.75004939  0.00000000
   2.75004939  2.75004939  3.47663713
   2.75004939  5.50009878  0.00000000
   2.75004939  5.50009878  3.47663713
   5.50009878  0.00000000  0.00000000
   5.50009878  0.00000000  3.47663713
   5.50009878  2.75004939  0.00000000
   5.50009878  2.75004939  3.47663713
   5.50009878  5.50009878  0.00000000
   5.50009878  5.50009878  3.47663713
   1.37502469  1.37502469  1.73831857
   1.37502469  1.37502469  5.21495570
   1.37502469  4.12507408  1.73831857
   1.37502469  4.12507408  5.21495570
   1.37502469  6.87512347  1.73831857
   1.37502469  6.87512347  5.21495570
   4.12507408  1.37502469  1.73831857
   4.12507408  1.37502469  5.21495570
   4.12507408  4.12507408  1.73831857
   4.12507408  4.12507408  5.21495570
   4.12507408  6.87512347  1.73831857
   4.12507408  6.87512347  5.21495570
   6.87512347  1.37502469  1.73831857
   6.87512347  1.37502469  5.21495570
   6.87512347  4.12507408  1.73831857
   6.87512347  4.12507408  5.21495570
   6.87512347  6.87512347  1.73831857
   6.87512347  6.87512347  5.21495570
 


--------------------------------------------------------------------------------------------------------


 k-point  1 :   0.0000 0.0000 0.0000  plane waves:    8799
 k-point  2 :   0.2000 0.0000 0.0000  plane waves:    8753
 k-point  3 :   0.4000 0.0000 0.0000  plane waves:    8757
 k-point  4 :   0.0000 0.2000 0.0000  plane waves:    8753
 k-point  5 :   0.2000 0.2000 0.0000  plane waves:    8767
 k-point  6 :   0.4000 0.2000 0.0000  plane waves:    8761
 k-point  7 :  -0.4000 0.2000 0.0000  plane waves:    8761
 k-point  8 :  -0.2000 0.2000 0.0000  plane waves:    8767
 k-point  9 :   0.0000 0.4000 0.0000  plane waves:    8757
 k-point 10 :   0.2000 0.4000 0.0000  plane waves:    8761
 k-point 11 :   0.4000 0.4000 0.0000  plane waves:    8731
 k-point 12 :  -0.4000 0.4000 0.0000  plane waves:    8731
 k-point 13 :  -0.2000 0.4000 0.0000  plane waves:    8761
 k-point 14 :   0.0000 0.0000 0.1667  plane waves:    8763
 k-point 15 :   0.2000 0.0000 0.1667  plane waves:    8771
 k-point 16 :   0.4000 0.0000 0.1667  plane waves:    8747
 k-point 17 :   0.0000 0.2000 0.1667  plane waves:    8771
 k-point 18 :   0.2000 0.2000 0.1667  plane waves:    8764
 k-point 19 :   0.4000 0.2000 0.1667  plane waves:    8768
 k-point 20 :  -0.4000 0.2000 0.1667  plane waves:    8768
 k-point 21 :  -0.2000 0.2000 0.1667  plane waves:    8764
 k-point 22 :   0.0000 0.4000 0.1667  plane waves:    8747
 k-point 23 :   0.2000 0.4000 0.1667  plane waves:    8768
 k-point 24 :   0.4000 0.4000 0.1667  plane waves:    8740
 k-point 25 :  -0.4000 0.4000 0.1667  plane waves:    8740
 k-point 26 :  -0.2000 0.4000 0.1667  plane waves:    8768
 k-point 27 :   0.0000 0.0000 0.3333  plane waves:    8743
 k-point 28 :   0.2000 0.0000 0.3333  plane waves:    8736
 k-point 29 :   0.4000 0.0000 0.3333  plane waves:    8753
 k-point 30 :   0.0000 0.2000 0.3333  plane waves:    8736
 k-point 31 :   0.2000 0.2000 0.3333  plane waves:    8753
 k-point 32 :   0.4000 0.2000 0.3333  plane waves:    8743
 k-point 33 :  -0.4000 0.2000 0.3333  plane waves:    8743
 k-point 34 :  -0.2000 0.2000 0.3333  plane waves:    8753
 k-point 35 :   0.0000 0.4000 0.3333  plane waves:    8753
 k-point 36 :   0.2000 0.4000 0.3333  plane waves:    8743
 k-point 37 :   0.4000 0.4000 0.3333  plane waves:    8755
 k-point 38 :  -0.4000 0.4000 0.3333  plane waves:    8755
 k-point 39 :  -0.2000 0.4000 0.3333  plane waves:    8743
 k-point 40 :   0.0000 0.0000 0.5000  plane waves:    8742
 k-point 41 :   0.2000 0.0000 0.5000  plane waves:    8756
 k-point 42 :   0.4000 0.0000 0.5000  plane waves:    8744
 k-point 43 :   0.0000 0.2000 0.5000  plane waves:    8756
 k-point 44 :   0.2000 0.2000 0.5000  plane waves:    8762
 k-point 45 :   0.4000 0.2000 0.5000  plane waves:    8732
 k-point 46 :  -0.4000 0.2000 0.5000  plane waves:    8732
 k-point 47 :  -0.2000 0.2000 0.5000  plane waves:    8762
 k-point 48 :   0.0000 0.4000 0.5000  plane waves:    8744
 k-point 49 :   0.2000 0.4000 0.5000  plane waves:    8732
 k-point 50 :   0.4000 0.4000 0.5000  plane waves:    8736
 k-point 51 :  -0.4000 0.4000 0.5000  plane waves:    8736
 k-point 52 :  -0.2000 0.4000 0.5000  plane waves:    8732

 maximum and minimum number of plane-waves per node :      2210     2164

 maximum number of plane-waves:      8799
 maximum index in each direction: 
   IXMAX=   13   IYMAX=   13   IZMAX=   11
   IXMIN=  -13   IYMIN=  -13   IZMIN=  -11


 parallel 3D FFT for wavefunctions:
    minimum data exchange during FFTs selected (reduces bandwidth)
 parallel 3D FFT for charge:
    minimum data exchange during FFTs selected (reduces bandwidth)


 total amount of memory used by VASP MPI-rank0   751840. kBytes
=======================================================================

   base      :      30000. kBytes
   nonl-proj :      34307. kBytes
   fftplans  :      21726. kBytes
   grid      :      14732. kBytes
   one-center:        279. kBytes
   wavefun   :     650796. kBytes
 
     INWAV:  cpu time    0.0001: real time    0.0001
 Broyden mixing: mesh for mixing (old mesh)
   NGX = 27   NGY = 27   NGZ = 23
  (NGX  =108   NGY  =108   NGZ  = 96)
  gives a total of  16767 points

 initial charge density was supplied:
 charge density of overlapping atoms calculated
 number of electron     180.0000000 magnetization       6.0000000
 keeping initial charge density in first step


--------------------------------------------------------------------------------------------------------


 Maximum index for augmentation-charges        11261 (set IRDMAX)


--------------------------------------------------------------------------------------------------------


 First call to EWALD:  gamma=   0.227
 Maximum number of real-space cells 3x 3x 3
 Maximum number of reciprocal cells 3x 3x 3

    FEWALD:  cpu time    0.0022: real time    0.0022


--------------------------------------- Iteration      1(   1)  ---------------------------------------


    POTLOK:  cpu time    0.2512: real time    0.2515
    SETDIJ:  cpu time    0.3194: real time    0.3196
    TRIAL :  cpu time   19.4893: real time   19.7380
    CORREC:  cpu time    0.0065: real time    0.0066
    --------------------------------------------
      LOOP:  cpu time   20.2862: real time   20.5433

 eigenvalue-minimisations  : 23296
 total energy-change (2. order) : 0.1351103E+04  (-0.5881985E+04)
 number of electron     180.0000000 magnetization       6.0000000
 augmentation part      180.0000000 magnetization       6.0000000

 Free energy of the ion-electron system (eV)
  ---------------------------------------------------
  alpha Z        PSCENC =       532.25742704
  Ewald energy   TEWEN  =     -8601.05107233
  -Hartree energ DENC   =     -1903.73857242
  -exchange      EXHF   =         0.00000000
  -V(xc)+E(xc)   XCENC  =      -664.71952729
  PAW double counting   =      8494.55058411    -7650.81563588
  entropy T*S    EENTRO =        -0.00234525
  eigenvalues    EBANDS =      2679.50634046
  atomic energy  EATOM  =      8465.11600846
  ---------------------------------------------------
  free energy    TOTEN  =      1351.10320690 eV

  energy without entropy =     1351.10555215  energy(sigma->0) =     1351.10398865


--------------------------------------------------------------------------------------------------------




--------------------------------------- Iteration      1(   2)  ---------------------------------------


    TRIAL :  cpu time   18.5750: real time   19.4764
    CORREC:  cpu time    0.0083: real time    0.0085
    --------------------------------------------
      LOOP:  cpu time   18.5843: real time   19.4876

 eigenvalue-minimisations  : 23296
 total energy-change (2. order) :-0.1412381E+04  (-0.1379327E+04)
 number of electron     180.0000000 magnetization       6.0000000
 augmentation part      180.0000000 magnetization       6.0000000

 Free energy of the ion-electron system (eV)
  ---------------------------------------------------
  alpha Z        PSCENC =       532.25742704
  Ewald energy   TEWEN  =     -8601.05107233
  -Hartree energ DENC   =     -1903.73857242
  -exchange      EXHF   =         0.00000000
  -V(xc)+E(xc)   XCENC  =      -664.71952729
  PAW double counting   =      8494.55058411    -7650.81563588
  entropy T*S    EENTRO =        -0.00256125
  eigenvalues    EBANDS =      1267.12575925
  atomic energy  EATOM  =      8465.11600846
  ---------------------------------------------------
  free energy    TOTEN  =       -61.27759030 eV

  energy without entropy =      -61.27502906  energy(sigma->0) =      -61.27673655


--------------------------------------------------------------------------------------------------------




--------------------------------------- Iteration      1(   3)  ---------------------------------------


    TRIAL :  cpu time   25.9019: real time   28.2025
    CORREC:  cpu time    0.0094: real time    0.0096
    --------------------------------------------
      LOOP:  cpu time   25.9137: real time   28.2148

 eigenvalue-minimisations  : 35448
 total energy-change (2. order) :-0.1768289E+03  (-0.1589687E+03)
 number of electron     180.0000000 magnetization       6.0000000
 augmentation part      180.0000000 magnetization       6.0000000

 Free energy of the ion-electron system (eV)
  ---------------------------------------------------
  alpha Z        PSCENC =       532.25742704
  Ewald energy   TEWEN  =     -8601.05107233
  -Hartree energ DENC   =     -1903.73857242
  -exchange      EXHF   =         0.00000000
  -V(xc)+E(xc)   XCENC  =      -664.71952729
  PAW double counting   =      8494.55058411    -7650.81563588
  entropy T*S    EENTRO =         0.00383708
  eigenvalues    EBANDS =      1090.29050595
  atomic energy  EATOM  =      8465.11600846
  ---------------------------------------------------
  free energy    TOTEN  =      -238.10644528 eV

  energy without entropy =     -238.11028236  energy(sigma->0) =     -238.10772430


--------------------------------------------------------------------------------------------------------




--------------------------------------- Iteration      1(   4)  ---------------------------------------


    TRIAL :  cpu time   28.2779: real time   29.3330
    CORREC:  cpu time    0.0106: real time    0.0114
    --------------------------------------------
      LOOP:  cpu time   28.2898: real time   29.3479

 eigenvalue-minimisations  : 37944
 total energy-change (2. order) :-0.2818630E+02  (-0.2503511E+02)
 number of electron     180.0000000 magnetization       6.0000000
 augmentation part      180.0000000 magnetization       6.0000000

 Free energy of the ion-electron system (eV)
  ---------------------------------------------------
  alpha Z        PSCENC =       532.25742704
  Ewald energy   TEWEN  =     -8601.05107233
  -Hartree energ DENC   =     -1903.73857242
  -exchange      EXHF   =         0.00000000
  -V(xc)+E(xc)   XCENC  =      -664.71952729
  PAW double counting   =      8494.55058411    -7650.81563588
  entropy T*S    EENTRO =         0.01933911
  eigenvalues    EBANDS =      1062.08870595
  atomic energy  EATOM  =      8465.11600846
  ---------------------------------------------------
  free energy    TOTEN  =      -266.29274325 eV

  energy without entropy =     -266.31208236  energy(sigma->0) =     -266.29918962


--------------------------------------------------------------------------------------------------------




--------------------------------------- Iteration      1(   5)  ---------------------------------------


    TRIAL :  cpu time   28.4021: real time   29.9624
    CORREC:  cpu time    0.0103: real time    0.0111
    --------------------------------------------
      LOOP:  cpu time   28.4136: real time   29.9769

 eigenvalue-minimisations  : 39048
 total energy-change (2. order) :-0.3131549E+01  (-0.2979948E+01)
 number of electron     180.0000000 magnetization       6.0000000
 augmentation part      180.0000000 magnetization       6.0000000

 Free energy of the ion-electron system (eV)
  ---------------------------------------------------
  alpha Z        PSCENC =       532.25742704
  Ewald energy   TEWEN  =     -8601.05107233
  -Hartree energ DENC   =     -1903.73857242
  -exchange      EXHF   =         0.00000000
  -V(xc)+E(xc)   XCENC  =      -664.71952729
  PAW double counting   =      8494.55058411    -7650.81563588
  entropy T*S    EENTRO =         0.02447623
  eigenvalues    EBANDS =      1058.95201968
  atomic energy  EATOM  =      8465.11600846
  ---------------------------------------------------
  free energy    TOTEN  =      -269.42429241 eV

  energy without entropy =     -269.44876864  energy(sigma->0) =     -269.43245115


--------------------------------------------------------------------------------------------------------




--------------------------------------- Iteration      1(   6)  ---------------------------------------


    TRIAL :  cpu time   27.8407: real time   29.4332
    CORREC:  cpu time    0.0103: real time    0.0104
    --------------------------------------------
      LOOP:  cpu time   27.8524: real time   29.4473

 eigenvalue-minimisations  : 38776
 total energy-change (2. order) :-0.2530996E+00  (-0.2463015E+00)
 number of electron     180.0000000 magnetization       6.0000000
 augmentation part      180.0000000 magnetization       6.0000000

 Free energy of the ion-electron system (eV)
  ---------------------------------------------------
  alpha Z        PSCENC =       532.25742704
  Ewald energy   TEWEN  =     -8601.05107233
  -Hartree energ DENC   =     -1903.73857242
  -exchange      EXHF   =         0.00000000
  -V(xc)+E(xc)   XCENC  =      -664.71952729
  PAW double counting   =      8494.55058411    -7650.81563588
  entropy T*S    EENTRO =         0.02599411
  eigenvalues    EBANDS =      1058.69740218
  atomic energy  EATOM  =      8465.11600846
  ---------------------------------------------------
  free energy    TOTEN  =      -269.67739202 eV

  energy without entropy =     -269.70338613  energy(sigma->0) =     -269.68605673


--------------------------------------------------------------------------------------------------------




--------------------------------------- Iteration      1(   7)  ---------------------------------------


    TRIAL :  cpu time   28.8066: real time   29.7290
    CORREC:  cpu time    0.0101: real time    0.0110
    --------------------------------------------
      LOOP:  cpu time   28.8200: real time   29.7435

 eigenvalue-minimisations  : 39656
 total energy-change (2. order) :-0.2676258E-01  (-0.2635854E-01)
 number of electron     180.0000000 magnetization       6.0000000
 augmentation part      180.0000000 magnetization       6.0000000

 Free energy of the ion-electron system (eV)
  ---------------------------------------------------
  alpha Z        PSCENC =       532.25742704
  Ewald energy   TEWEN  =     -8601.05107233
  -Hartree energ DENC   =     -1903.73857242
  -exchange      EXHF   =         0.00000000
  -V(xc)+E(xc)   XCENC  =      -664.71952729
  PAW double counting   =      8494.55058411    -7650.81563588
  entropy T*S    EENTRO =         0.02655315
  eigenvalues    EBANDS =      1058.67008057
  atomic energy  EATOM  =      8465.11600846
  ---------------------------------------------------
  free energy    TOTEN  =      -269.70415460 eV

  energy without entropy =     -269.73070775  energy(sigma->0) =     -269.71300565


--------------------------------------------------------------------------------------------------------




--------------------------------------- Iteration      1(   8)  ---------------------------------------


    TRIAL :  cpu time   27.4559: real time   29.1621
    CORREC:  cpu time    0.0105: real time    0.0114
    CHARGE:  cpu time    1.1068: real time    1.1072
    --------------------------------------------
      LOOP:  cpu time   28.5767: real time   30.2842

 eigenvalue-minimisations  : 38160
 total energy-change (2. order) :-0.2413583E-02  (-0.2386821E-02)
 number of electron     179.9999997 magnetization       4.2513080
 augmentation part       42.5864000 magnetization       2.4806349

 Free energy of the ion-electron system (eV)
  ---------------------------------------------------
  alpha Z        PSCENC =       532.25742704
  Ewald energy   TEWEN  =     -8601.05107233
  -Hartree energ DENC   =     -1903.73857242
  -exchange      EXHF   =         0.00000000
  -V(xc)+E(xc)   XCENC  =      -664.71952729
  PAW double counting   =      8494.55058411    -7650.81563588
  entropy T*S    EENTRO =         0.02674864
  eigenvalues    EBANDS =      1058.66747149
  atomic energy  EATOM  =      8465.11600846
  ---------------------------------------------------
  free energy    TOTEN  =      -269.70656818 eV

  energy without entropy =     -269.73331682  energy(sigma->0) =     -269.71548439


--------------------------------------------------------------------------------------------------------




--------------------------------------- Iteration      1(   9)  ---------------------------------------


    POTLOK:  cpu time    0.2521: real time    0.2522
    SETDIJ:  cpu time    0.3413: real time    0.3415
    TRIAL :  cpu time    9.3086: real time   10.7132
    CORREC:  cpu time    3.3806: real time    3.4616
    CHARGE:  cpu time    1.1121: real time    1.1206
    --------------------------------------------
      LOOP:  cpu time   14.3994: real time   15.8962

 eigenvalue-minimisations  :     0
 total energy-change (2. order) : 0.2065808E+03  (-0.1440136E+03)
 number of electron     179.9999997 magnetization       4.2499910
 augmentation part       54.2691474 magnetization       2.7598571

 Free energy of the ion-electron system (eV)
  ---------------------------------------------------
  alpha Z        PSCENC =       532.25742704
  Ewald energy   TEWEN  =     -8601.05107233
  -Hartree energ DENC   =      -841.32601272
  -exchange      EXHF   =         0.00000000
  -V(xc)+E(xc)   XCENC  =      -694.76387289
  PAW double counting   =     12754.11186593   -11807.29795529
  entropy T*S    EENTRO =         0.00046024
  eigenvalues    EBANDS =       129.80110771
  atomic energy  EATOM  =      8465.11600846
  ---------------------------------------------------
  free energy    TOTEN  =       -63.12575545 eV

  energy without entropy =      -63.12621569  energy(sigma->0) =      -63.12590887


--------------------------------------------------------------------------------------------------------




--------------------------------------- Iteration      1(  10)  ---------------------------------------


    POTLOK:  cpu time    0.2488: real time    0.2489
    SETDIJ:  cpu time    0.3614: real time    0.3615
    TRIAL :  cpu time    9.2307: real time   10.0661
    CORREC:  cpu time    3.3970: real time    3.4004
    CHARGE:  cpu time    1.0909: real time    1.0916
    --------------------------------------------
      LOOP:  cpu time   14.3454: real time   15.1870

 eigenvalue-minimisations  :     0
 total energy-change (2. order) :-0.1445831E+03  (-0.1017634E+02)
 number of electron     179.9999996 magnetization       4.2594941
 augmentation part       57.6049372 magnetization       2.8951975

 Free energy of the ion-electron system (eV)
  ---------------------------------------------------
  alpha Z        PSCENC =       532.25742704
  Ewald energy   TEWEN  =     -8601.05107233
  -Hartree energ DENC   =     -1366.81313986
  -exchange      EXHF   =         0.00000000
  -V(xc)+E(xc)   XCENC  =      -676.80478314
  PAW double counting   =     13601.72504035   -12769.36080644
  entropy T*S    EENTRO =        -0.00263400
  eigenvalues    EBANDS =       607.22200497
  atomic energy  EATOM  =      8465.11600846
  ---------------------------------------------------
  free energy    TOTEN  =      -207.70886071 eV

  energy without entropy =     -207.70622671  energy(sigma->0) =     -207.70798271


--------------------------------------------------------------------------------------------------------




--------------------------------------- Iteration      1(  11)  ---------------------------------------


    POTLOK:  cpu time    0.2472: real time    0.2473
    SETDIJ:  cpu time    0.3211: real time    0.3214
    TRIAL :  cpu time    9.6705: real time   10.3911
    CORREC:  cpu time    3.3815: real time    3.4913
    CHARGE:  cpu time    1.0816: real time    1.0827
    --------------------------------------------
      LOOP:  cpu time   14.7067: real time   15.5400

 eigenvalue-minimisations  :     0
 total energy-change (2. order) :-0.1018648E+02  (-0.8183169E+01)
 number of electron     179.9999996 magnetization       4.1202433
 augmentation part       59.1395320 magnetization       2.8694670

 Free energy of the ion-electron system (eV)
  ---------------------------------------------------
  alpha Z        PSCENC =       532.25742704
  Ewald energy   TEWEN  =     -8601.05107233
  -Hartree energ DENC   =     -1556.15768028
  -exchange      EXHF   =         0.00000000
  -V(xc)+E(xc)   XCENC  =      -669.95962319
  PAW double counting   =     14391.11578945   -13593.23213736
  entropy T*S    EENTRO =         0.00020119
  eigenvalues    EBANDS =       814.01858124
  atomic energy  EATOM  =      8465.11600846
  ---------------------------------------------------
  free energy    TOTEN  =      -217.89534097 eV

  energy without entropy =     -217.89554216  energy(sigma->0) =     -217.89540804


--------------------------------------------------------------------------------------------------------




--------------------------------------- Iteration      1(  12)  ---------------------------------------


    POTLOK:  cpu time    0.2467: real time    0.2468
    SETDIJ:  cpu time    0.3476: real time    0.3477
    TRIAL :  cpu time    9.2203: real time   10.0095
    CORREC:  cpu time    3.3542: real time    3.3676
    CHARGE:  cpu time    1.0934: real time    1.0941
    --------------------------------------------
      LOOP:  cpu time   14.2639: real time   15.0678

 eigenvalue-minimisations  :     0
 total energy-change (2. order) :-0.8211081E+01  (-0.7189618E+01)
 number of electron     179.9999996 magnetization       3.9593525
 augmentation part       58.3093286 magnetization       2.8041201

 Free energy of the ion-electron system (eV)
  ---------------------------------------------------
  alpha Z        PSCENC =       532.25742704
  Ewald energy   TEWEN  =     -8601.05107233
  -Hartree energ DENC   =     -1693.39278722
  -exchange      EXHF   =         0.00000000
  -V(xc)+E(xc)   XCENC  =      -665.32639168
  PAW double counting   =     14469.04308135   -13675.37064248
  entropy T*S    EENTRO =         0.01005433
  eigenvalues    EBANDS =       942.61775419
  atomic energy  EATOM  =      8465.11600846
  ---------------------------------------------------
  free energy    TOTEN  =      -226.10642148 eV

  energy without entropy =     -226.11647581  energy(sigma->0) =     -226.10977292


--------------------------------------------------------------------------------------------------------




--------------------------------------- Iteration      1(  13)  ---------------------------------------


    POTLOK:  cpu time    0.2464: real time    0.2468
    SETDIJ:  cpu time    0.3185: real time    0.3190
    TRIAL :  cpu time    9.2890: real time   10.0530
    CORREC:  cpu time    3.4908: real time    3.5021
    CHARGE:  cpu time    1.0905: real time    1.0911
    --------------------------------------------
      LOOP:  cpu time   14.4384: real time   15.2156

 eigenvalue-minimisations  :     0
 total energy-change (2. order) :-0.7076547E+01  (-0.1005922E+01)
 number of electron     179.9999997 magnetization       3.9497108
 augmentation part       57.4147413 magnetization       2.7761067

 Free energy of the ion-electron system (eV)
  ---------------------------------------------------
  alpha Z        PSCENC =       532.25742704
  Ewald energy   TEWEN  =     -8601.05107233
  -Hartree energ DENC   =     -1705.19012835
  -exchange      EXHF   =         0.00000000
  -V(xc)+E(xc)   XCENC  =      -665.21043200
  PAW double counting   =     14199.92775682   -13380.77521623
  entropy T*S    EENTRO =         0.01226888
  eigenvalues    EBANDS =       921.73263390
  atomic energy  EATOM  =      8465.11600846
  ---------------------------------------------------
  free energy    TOTEN  =      -233.18296836 eV

  energy without entropy =     -233.19523724  energy(sigma->0) =     -233.18705799


--------------------------------------------------------------------------------------------------------




--------------------------------------- Iteration      1(  14)  ---------------------------------------


    POTLOK:  cpu time    0.2480: real time    0.2482
    SETDIJ:  cpu time    0.3490: real time    0.3492
    TRIAL :  cpu time    9.2538: real time   10.0017
    CORREC:  cpu time    3.3518: real time    3.3553
    CHARGE:  cpu time    1.0944: real time    1.0954
    --------------------------------------------
      LOOP:  cpu time   14.2995: real time   15.0524

 eigenvalue-minimisations  :     0
 total energy-change (2. order) :-0.9954001E+00  (-0.6614218E+00)
 number of electron     179.9999997 magnetization       3.8214581
 augmentation part       57.2161239 magnetization       2.6797742

 Free energy of the ion-electron system (eV)
  ---------------------------------------------------
  alpha Z        PSCENC =       532.25742704
  Ewald energy   TEWEN  =     -8601.05107233
  -Hartree energ DENC   =     -1659.91013385
  -exchange      EXHF   =         0.00000000
  -V(xc)+E(xc)   XCENC  =      -666.85810412
  PAW double counting   =     13899.30510194   -13066.83929354
  entropy T*S    EENTRO =         0.01463649
  eigenvalues    EBANDS =       863.78942904
  atomic energy  EATOM  =      8465.11600846
  ---------------------------------------------------
  free energy    TOTEN  =      -234.17836850 eV

  energy without entropy =     -234.19300498  energy(sigma->0) =     -234.18324732


--------------------------------------------------------------------------------------------------------




--------------------------------------- Iteration      1(  15)  ---------------------------------------


    POTLOK:  cpu time    0.2480: real time    0.2482
    SETDIJ:  cpu time    0.3229: real time    0.3231
    TRIAL :  cpu time    9.6129: real time   10.3645
    CORREC:  cpu time    3.3706: real time    3.4369
    CHARGE:  cpu time    1.0790: real time    1.0799
    --------------------------------------------
      LOOP:  cpu time   14.6355: real time   15.4554

 eigenvalue-minimisations  :     0
 total energy-change (2. order) :-0.6580779E+00  (-0.6551155E+00)
 number of electron     179.9999996 magnetization       3.8090267
 augmentation part       57.6788067 magnetization       2.6518035

 Free energy of the ion-electron system (eV)
  ---------------------------------------------------
  alpha Z        PSCENC =       532.25742704
  Ewald energy   TEWEN  =     -8601.05107233
  -Hartree energ DENC   =     -1641.87825438
  -exchange      EXHF   =         0.00000000
  -V(xc)+E(xc)   XCENC  =      -667.42779966
  PAW double counting   =     13477.49032507   -12640.13900195
  entropy T*S    EENTRO =         0.01741044
  eigenvalues    EBANDS =       840.78128484
  atomic energy  EATOM  =      8465.11600846
  ---------------------------------------------------
  free energy    TOTEN  =      -234.83644643 eV

  energy without entropy =     -234.85385687  energy(sigma->0) =     -234.84224991


--------------------------------------------------------------------------------------------------------




--------------------------------------- Iteration      1(  16)  ---------------------------------------


    POTLOK:  cpu time    0.2474: real time    0.2474
    SETDIJ:  cpu time    0.3442: real time    0.3443
    TRIAL :  cpu time    9.2715: real time    9.9261
    CORREC:  cpu time    3.3807: real time    3.3838
    CHARGE:  cpu time    1.0894: real time    1.0898
    --------------------------------------------
      LOOP:  cpu time   14.3356: real time   14.9938

 eigenvalue-minimisations  :     0
 total energy-change (2. order) :-0.6525097E+00  (-0.1808802E+00)
 number of electron     179.9999996 magnetization       3.7340008
 augmentation part       58.0793592 magnetization       2.6264328

 Free energy of the ion-electron system (eV)
  ---------------------------------------------------
  alpha Z        PSCENC =       532.25742704
  Ewald energy   TEWEN  =     -8601.05107233
  -Hartree energ DENC   =     -1654.79181235
  -exchange      EXHF   =         0.00000000
  -V(xc)+E(xc)   XCENC  =      -666.79598481
  PAW double counting   =     13089.28095238   -12254.56619946
  entropy T*S    EENTRO =         0.01885520
  eigenvalues    EBANDS =       855.04431451
  atomic energy  EATOM  =      8465.11600846
  ---------------------------------------------------
  free energy    TOTEN  =      -235.48895612 eV

  energy without entropy =     -235.50781132  energy(sigma->0) =     -235.49524119


--------------------------------------------------------------------------------------------------------




--------------------------------------- Iteration      1(  17)  ---------------------------------------


    POTLOK:  cpu time    0.2465: real time    0.2466
    SETDIJ:  cpu time    0.3039: real time    0.3467
    TRIAL :  cpu time   10.1893: real time   10.9593
    CORREC:  cpu time    3.3756: real time    3.3976
    CHARGE:  cpu time    1.1012: real time    1.1237
    --------------------------------------------
      LOOP:  cpu time   15.2196: real time   16.0781

 eigenvalue-minimisations  :     0
 total energy-change (2. order) :-0.1808830E+00  (-0.1795064E+00)
 number of electron     179.9999996 magnetization       3.6869871
 augmentation part       58.2553725 magnetization       2.6117186

 Free energy of the ion-electron system (eV)
  ---------------------------------------------------
  alpha Z        PSCENC =       532.25742704
  Ewald energy   TEWEN  =     -8601.05107233
  -Hartree energ DENC   =     -1672.30523017
  -exchange      EXHF   =         0.00000000
  -V(xc)+E(xc)   XCENC  =      -666.03659746
  PAW double counting   =     13022.83525046   -12192.24489468
  entropy T*S    EENTRO =         0.02010928
  eigenvalues    EBANDS =       875.74041436
  atomic energy  EATOM  =      8465.11600846
  ---------------------------------------------------
  free energy    TOTEN  =      -235.66983913 eV

  energy without entropy =     -235.68994841  energy(sigma->0) =     -235.67654222


--------------------------------------------------------------------------------------------------------




--------------------------------------- Iteration      1(  18)  ---------------------------------------


    POTLOK:  cpu time    0.2468: real time    0.2470
    SETDIJ:  cpu time    0.3218: real time    0.3219
    TRIAL :  cpu time    9.2179: real time    9.2944
    CORREC:  cpu time    4.1415: real time    4.3362
    CHARGE:  cpu time    1.0758: real time    1.0766
    --------------------------------------------
      LOOP:  cpu time   15.0147: real time   15.2878

 eigenvalue-minimisations  :     0
 total energy-change (2. order) :-0.1794855E+00  (-0.1204673E+00)
 number of electron     179.9999996 magnetization       3.6156882
 augmentation part       58.0513385 magnetization       2.5838914

 Free energy of the ion-electron system (eV)
  ---------------------------------------------------
  alpha Z        PSCENC =       532.25742704
  Ewald energy   TEWEN  =     -8601.05107233
  -Hartree energ DENC   =     -1678.53004585
  -exchange      EXHF   =         0.00000000
  -V(xc)+E(xc)   XCENC  =      -665.58619405
  PAW double counting   =     12984.54873680   -12156.06459826
  entropy T*S    EENTRO =         0.02076849
  eigenvalues    EBANDS =       883.44030432
  atomic energy  EATOM  =      8465.11600846
  ---------------------------------------------------
  free energy    TOTEN  =      -235.84932459 eV

  energy without entropy =     -235.87009308  energy(sigma->0) =     -235.85624742


--------------------------------------------------------------------------------------------------------




--------------------------------------- Iteration      1(  19)  ---------------------------------------


    POTLOK:  cpu time    0.2481: real time    0.2482
    SETDIJ:  cpu time    0.3175: real time    0.3175
    TRIAL :  cpu time    9.1715: real time    9.2688
    CORREC:  cpu time    3.7799: real time    4.4781
    CHARGE:  cpu time    1.0613: real time    1.0952
    --------------------------------------------
      LOOP:  cpu time   14.5833: real time   15.4134

 eigenvalue-minimisations  :     0
 total energy-change (2. order) :-0.1200599E+00  (-0.4003284E-01)
 number of electron     179.9999996 magnetization       3.5958763
 augmentation part       57.8992885 magnetization       2.5747490

 Free energy of the ion-electron system (eV)
  ---------------------------------------------------
  alpha Z        PSCENC =       532.25742704
  Ewald energy   TEWEN  =     -8601.05107233
  -Hartree energ DENC   =     -1666.62586135
  -exchange      EXHF   =         0.00000000
  -V(xc)+E(xc)   XCENC  =      -665.83735455
  PAW double counting   =     12958.49360573   -12128.01290961
  entropy T*S    EENTRO =         0.02058224
  eigenvalues    EBANDS =       869.67000358
  atomic energy  EATOM  =      8465.11600846
  ---------------------------------------------------
  free energy    TOTEN  =      -235.96938453 eV

  energy without entropy =     -235.98996677  energy(sigma->0) =     -235.97624528


--------------------------------------------------------------------------------------------------------




--------------------------------------- Iteration      1(  20)  ---------------------------------------


    POTLOK:  cpu time    0.2443: real time    0.2464
    SETDIJ:  cpu time    0.3227: real time    0.3229
    TRIAL :  cpu time    9.1647: real time    9.2293
    CORREC:  cpu time    3.8664: real time    4.5203
    CHARGE:  cpu time    1.0893: real time    1.0898
    --------------------------------------------
      LOOP:  cpu time   14.6888: real time   15.4106

 eigenvalue-minimisations  :     0
 total energy-change (2. order) :-0.3990557E-01  (-0.6338297E-01)
 number of electron     179.9999996 magnetization       3.5234276
 augmentation part       57.7757493 magnetization       2.5416298

 Free energy of the ion-electron system (eV)
  ---------------------------------------------------
  alpha Z        PSCENC =       532.25742704
  Ewald energy   TEWEN  =     -8601.05107233
  -Hartree energ DENC   =     -1659.31387622
  -exchange      EXHF   =         0.00000000
  -V(xc)+E(xc)   XCENC  =      -666.03247241
  PAW double counting   =     12950.78471219   -12118.81078428
  entropy T*S    EENTRO =         0.02043354
  eigenvalues    EBANDS =       861.02018521
  atomic energy  EATOM  =      8465.11600846
  ---------------------------------------------------
  free energy    TOTEN  =      -236.00929010 eV

  energy without entropy =     -236.02972364  energy(sigma->0) =     -236.01610128


--------------------------------------------------------------------------------------------------------




--------------------------------------- Iteration      1(  21)  ---------------------------------------


    POTLOK:  cpu time    0.2468: real time    0.2469
    SETDIJ:  cpu time    0.3430: real time    0.3431
    TRIAL :  cpu time    9.1346: real time    9.8869
    CORREC:  cpu time    3.8075: real time    4.4634
    CHARGE:  cpu time    1.0843: real time    1.0845
    --------------------------------------------
      LOOP:  cpu time   14.6226: real time   16.0321

 eigenvalue-minimisations  :     0
 total energy-change (2. order) :-0.6340772E-01  (-0.4034416E-01)
 number of electron     179.9999996 magnetization       3.4943355
 augmentation part       57.8753969 magnetization       2.5274767

 Free energy of the ion-electron system (eV)
  ---------------------------------------------------
  alpha Z        PSCENC =       532.25742704
  Ewald energy   TEWEN  =     -8601.05107233
  -Hartree energ DENC   =     -1655.60662810
  -exchange      EXHF   =         0.00000000
  -V(xc)+E(xc)   XCENC  =      -666.04696307
  PAW double counting   =     12958.84940845   -12125.98051923
  entropy T*S    EENTRO =         0.02058675
  eigenvalues    EBANDS =       856.36920743
  atomic energy  EATOM  =      8465.11600846
  ---------------------------------------------------
  free energy    TOTEN  =      -236.07269782 eV

  energy without entropy =     -236.09328457  energy(sigma->0) =     -236.07956007


--------------------------------------------------------------------------------------------------------




--------------------------------------- Iteration      1(  22)  ---------------------------------------


    POTLOK:  cpu time    0.2478: real time    0.2479
    SETDIJ:  cpu time    0.3847: real time    0.3848
    TRIAL :  cpu time    9.1475: real time    9.2407
    CORREC:  cpu time    3.7209: real time    4.3833
    CHARGE:  cpu time    1.2321: real time    1.2327
    --------------------------------------------
      LOOP:  cpu time   14.7370: real time   15.4942

 eigenvalue-minimisations  :     0
 total energy-change (2. order) :-0.4033053E-01  (-0.1463171E-01)
 number of electron     179.9999996 magnetization       3.4659500
 augmentation part       57.9552831 magnetization       2.5112764

 Free energy of the ion-electron system (eV)
  ---------------------------------------------------
  alpha Z        PSCENC =       532.25742704
  Ewald energy   TEWEN  =     -8601.05107233
  -Hartree energ DENC   =     -1662.94967700
  -exchange      EXHF   =         0.00000000
  -V(xc)+E(xc)   XCENC  =      -665.70771699
  PAW double counting   =     12982.54360929   -12151.09680706
  entropy T*S    EENTRO =         0.02031468
  eigenvalues    EBANDS =       864.75461350
  atomic energy  EATOM  =      8465.11600846
  ---------------------------------------------------
  free energy    TOTEN  =      -236.11302835 eV

  energy without entropy =     -236.13334303  energy(sigma->0) =     -236.11979991


--------------------------------------------------------------------------------------------------------




--------------------------------------- Iteration      1(  23)  ---------------------------------------


    POTLOK:  cpu time    0.2474: real time    0.2474
    SETDIJ:  cpu time    0.3128: real time    0.3206
    TRIAL :  cpu time    9.1486: real time    9.2670
    CORREC:  cpu time    3.3643: real time    3.3792
    CHARGE:  cpu time    1.2104: real time    1.9304
    --------------------------------------------
[...]
  8.440  14.384   0.000  -0.000   0.000   0.000  -0.000   0.000
 14.384  24.512   0.000  -0.000   0.000   0.000  -0.000   0.001
  0.000   0.000   1.996  -0.000   0.000   5.749  -0.000   0.000
 -0.000  -0.000  -0.000   1.996   0.000  -0.000   5.748   0.000
  0.000   0.000   0.000   0.000   1.996   0.000   0.000   5.749
  0.000   0.000   5.749  -0.000   0.000  16.477  -0.001   0.000
 -0.000  -0.000  -0.000   5.748   0.000  -0.001  16.472   0.000
  0.000   0.001   0.000   0.000   5.749   0.000   0.000  16.477
 total augmentation occupancy for first ion, spin component:           1
  4.366  -1.244   0.002   0.001   0.005  -0.000  -0.000  -0.000
 -1.244   0.374  -0.000  -0.000  -0.005   0.000   0.000   0.000
  0.002  -0.000   1.406   0.019  -0.003  -0.100  -0.001   0.000
  0.001  -0.000   0.019   1.504  -0.002  -0.001  -0.102   0.000
  0.005  -0.005  -0.003  -0.002   1.402   0.000   0.000  -0.100
 -0.000   0.000  -0.100  -0.001   0.000   0.007   0.000  -0.000
 -0.000   0.000  -0.001  -0.102   0.000   0.000   0.007   0.000
 -0.000   0.000   0.000   0.000  -0.100  -0.000   0.000   0.007
 total augmentation occupancy for first ion, spin component:           2
 -0.099   0.032  -0.002   0.000   0.036  -0.000   0.000  -0.001
  0.032  -0.010  -0.002   0.000   0.005   0.000  -0.000  -0.001
 -0.002  -0.002  -0.031  -0.043  -0.002   0.002   0.001   0.000
  0.000   0.000  -0.043  -0.080   0.005   0.001   0.004  -0.000
  0.036   0.005  -0.002   0.005  -0.036   0.000  -0.000   0.002
 -0.000   0.000   0.002   0.001   0.000  -0.000   0.000  -0.000
  0.000  -0.000   0.001   0.004  -0.000   0.000  -0.000   0.000
 -0.001  -0.001   0.000  -0.000   0.002  -0.000   0.000  -0.000


------------------------ aborting loop because EDIFF is reached ----------------------------------------


 


 total charge     
 
# of ion       s       p       d       tot
------------------------------------------
    1        0.406   0.426   0.000   0.832
    2        0.406   0.427   0.000   0.833
    3        0.406   0.426   0.000   0.832
    4        0.406   0.426   0.000   0.831
    5        0.406   0.424   0.000   0.830
    6        0.406   0.424   0.000   0.830
    7        0.405   0.429   0.000   0.834
    8        0.405   0.430   0.000   0.835
    9        0.406   0.425   0.000   0.831
   10        0.406   0.425   0.000   0.831
   11        0.405   0.428   0.000   0.833
   12        0.405   0.428   0.000   0.833
   13        0.405   0.425   0.000   0.830
   14        0.405   0.425   0.000   0.830
   15        0.405   0.425   0.000   0.831
   16        0.405   0.425   0.000   0.830
   17        0.404   0.431   0.000   0.835
   18        0.404   0.431   0.000   0.835
   19        0.330   0.356   5.140   5.826
   20        0.333   0.356   5.129   5.818
   21        0.337   0.353   5.129   5.819
   22        0.336   0.355   5.129   5.820
   23        0.334   0.355   5.126   5.815
   24        0.331   0.357   5.140   5.829
   25        0.333   0.351   5.146   5.829
   26        0.336   0.357   5.127   5.820
   27        0.337   0.355   5.127   5.819
   28        0.337   0.357   5.124   5.817
   29        0.340   0.352   5.122   5.815
   30        0.338   0.362   5.109   5.809
   31        0.333   0.350   5.144   5.827
   32        0.336   0.356   5.127   5.819
   33        0.338   0.356   5.122   5.816
   34        0.337   0.356   5.125   5.818
   35        0.336   0.356   5.129   5.820
   36        0.336   0.353   5.131   5.820
--------------------------------------------------
tot         13.331  14.074  92.325 119.730
 


 magnetization (x)
 
# of ion       s       p       d       tot
------------------------------------------
    1       -0.007  -0.016   0.000  -0.022
    2       -0.006  -0.015   0.000  -0.021
    3        0.002   0.008   0.000   0.010
    4        0.002   0.008   0.000   0.010
    5        0.005   0.012   0.000   0.017
    6        0.005   0.011   0.000   0.016
    7       -0.002  -0.002   0.000  -0.004
    8       -0.002  -0.002   0.000  -0.004
    9       -0.003  -0.008   0.000  -0.011
   10       -0.003  -0.008   0.000  -0.011
   11        0.004   0.010   0.000   0.014
   12        0.004   0.010   0.000   0.014
   13       -0.010  -0.020   0.000  -0.031
   14       -0.010  -0.020   0.000  -0.030
   15       -0.008  -0.019   0.000  -0.027
   16       -0.009  -0.020   0.000  -0.028
   17       -0.001  -0.001   0.000  -0.001
   18       -0.001  -0.001   0.000  -0.002
   19        0.016   0.031   2.029   2.076
   20       -0.026  -0.033  -2.306  -2.366
   21       -0.023  -0.015  -2.393  -2.431
   22       -0.023  -0.014  -2.345  -2.382
   23       -0.014  -0.027  -2.336  -2.378
   24        0.027   0.030   2.006   2.063
   25        0.016   0.005   2.201   2.222
   26        0.023   0.023   2.299   2.346
   27        0.040   0.019   2.433   2.493
   28        0.040   0.020   2.421   2.481
   29       -0.040  -0.013  -2.576  -2.630
   30       -0.046  -0.032  -2.486  -2.564
   31        0.016   0.006   2.250   2.271
   32        0.023   0.026   2.344   2.393
   33       -0.037  -0.018  -2.458  -2.512
   34       -0.036  -0.019  -2.458  -2.513
   35        0.037   0.028   2.320   2.384
   36        0.031   0.011   2.419   2.461
--------------------------------------------------
tot         -0.016  -0.044   3.364   3.304
 
    FORLOC:  cpu time    0.0278: real time    0.0278
    FORNL :  cpu time   13.5324: real time   13.7116
    STRESS:  cpu time   18.1313: real time   18.9927
    FORCOR:  cpu time    1.3162: real time    1.3580
    OFIELD:  cpu time    0.0016: real time    0.0016

  FORCE on cell =-STRESS in cart. coord.  units (eV):
  Direction    XX          YY          ZZ          XY          YZ          ZX
  --------------------------------------------------------------------------------------
  Alpha Z   532.25743   532.25743   532.25743
  Ewald   -2702.40749 -2702.40749 -3196.26924    -0.00000    -0.00000    -0.00000
  Hartree   718.59584   718.20499   229.18255     0.11956    -0.00000    -0.00000
  E(xc)    -760.38699  -760.22003  -761.33257    -0.09090    -0.00000    -0.00000
  Local     253.15766   254.46046  1253.87672    -0.35268    -0.00000    -0.00000
  n-local  -108.74122  -107.90319  -119.71381    -0.23930    -0.06604    -0.03575
  augment   520.46082   519.74401   517.64102     0.22835     0.00001     0.00001
  Kinetic  1552.74039  1551.18146  1548.27367     0.61007     0.17117    -0.10623
  Fock        0.00000     0.00000     0.00000     0.00000     0.00000     0.00000
  -------------------------------------------------------------------------------------
  Total       5.67643     5.31764     3.91575     0.27509     0.00000     0.00000
  in kB      19.21644    18.00182    13.25602     0.93128     0.00000     0.00000
  external pressure =       16.82 kB  Pullay stress =        0.00 kB


 VOLUME and BASIS-vectors are now :
 -----------------------------------------------------------------------------
  energy-cutoff  :      404.80
  volume of cell :      473.27
      direct lattice vectors                 reciprocal lattice vectors
     8.250148166  0.000000000  0.000000000     0.121209944  0.000000000  0.000000000
     0.000000000  8.250148166  0.000000000     0.000000000  0.121209944  0.000000000
     0.000000000  0.000000000  6.953274261     0.000000000  0.000000000  0.143817137

  length of vectors
     8.250148166  8.250148166  6.953274261     0.121209944  0.121209944  0.143817137


 FORCES acting on ions:
    Electron-Ion                     Ewald-Force                    Non-Local-Force
 -----------------------------------------------------------------------------------------------
   -.156E+00 0.352E-02 0.109E-01   -.239E-08 -.239E-08 0.411E-08   -.854E-02 -.217E-01 -.174E-01
   -.156E+00 0.352E-02 -.109E-01   -.239E-08 -.239E-08 0.411E-08   -.854E-02 -.217E-01 0.174E-01
   -.256E-01 -.119E+00 0.318E-02   -.239E-08 -.802E-09 0.411E-08   0.416E-01 0.137E+00 0.861E-02
   -.256E-01 -.119E+00 -.318E-02   -.239E-08 -.802E-09 0.411E-08   0.416E-01 0.137E+00 -.861E-02
   0.135E-01 0.113E+00 -.853E-01   -.239E-08 0.631E-08 0.411E-08   0.241E-01 -.169E+00 0.435E-01
   0.135E-01 0.113E+00 0.853E-01   -.239E-08 0.631E-08 0.411E-08   0.241E-01 -.169E+00 -.435E-01
   0.145E+00 0.571E-01 0.135E+00   -.802E-09 -.239E-08 0.411E-08   -.330E-01 -.416E-01 -.534E-01
   0.145E+00 0.571E-01 -.135E+00   -.802E-09 -.239E-08 0.411E-08   -.330E-01 -.416E-01 0.534E-01
   -.130E-01 -.458E-02 -.778E-02   -.802E-09 -.802E-09 0.411E-08   0.410E-01 0.170E-02 0.121E-01
   -.130E-01 -.458E-02 0.778E-02   -.802E-09 -.802E-09 0.411E-08   0.410E-01 0.170E-02 -.121E-01
   -.789E-01 -.828E-01 0.857E-01   -.802E-09 0.631E-08 0.411E-08   0.304E-01 0.101E+00 -.241E-01
   -.789E-01 -.828E-01 -.857E-01   -.802E-09 0.631E-08 0.411E-08   0.304E-01 0.101E+00 0.241E-01
   -.163E-01 0.299E-01 -.186E-01   0.631E-08 -.239E-08 0.411E-08   0.969E-01 0.506E-01 0.487E-02
   -.163E-01 0.299E-01 0.186E-01   0.631E-08 -.239E-08 0.411E-08   0.969E-01 0.506E-01 -.487E-02
   0.699E-01 -.771E-01 -.212E-01   0.631E-08 -.802E-09 0.411E-08   -.144E+00 -.890E-02 0.258E-01
   0.699E-01 -.771E-01 0.212E-01   0.631E-08 -.802E-09 0.411E-08   -.144E+00 -.890E-02 -.258E-01
   0.503E-01 0.145E-01 0.543E-02   0.631E-08 0.631E-08 0.411E-08   -.495E-01 0.303E-02 -.212E-01
   0.503E-01 0.145E-01 -.543E-02   0.631E-08 0.631E-08 0.411E-08   -.495E-01 0.303E-02 0.212E-01
   0.661E-01 0.243E+00 -.404E-08   -.169E-07 -.169E-07 -.411E-08   -.274E-01 -.143E+00 0.000E+00
   0.164E+00 0.601E+00 -.217E-08   -.169E-07 -.169E-07 -.411E-08   -.182E+00 -.368E+00 0.000E+00
   -.382E+00 0.689E+00 -.496E-08   -.169E-07 0.802E-09 -.411E-08   0.223E+00 -.433E+00 0.000E+00
   -.270E+00 -.307E+00 -.300E-08   -.169E-07 0.802E-09 -.411E-08   0.161E+00 0.151E+00 0.000E+00
   0.343E+00 -.722E+00 0.168E-09   -.169E-07 0.130E-07 -.411E-08   -.193E+00 0.511E+00 0.000E+00
   -.184E+00 -.207E+00 -.457E-08   -.169E-07 0.130E-07 -.411E-08   0.231E-01 0.193E+00 0.000E+00
   0.843E-01 0.377E+00 -.126E-08   0.802E-09 -.169E-07 -.411E-08   -.112E+00 -.346E+00 0.000E+00
   0.579E+00 0.356E+00 -.744E-09   0.802E-09 -.169E-07 -.411E-08   -.401E+00 -.249E+00 0.000E+00
   0.131E+00 -.510E+00 -.217E-08   0.802E-09 0.802E-09 -.411E-08   -.740E-01 0.144E+00 0.000E+00
   0.807E-01 -.389E+00 -.158E-08   0.802E-09 0.802E-09 -.411E-08   -.642E-01 0.158E+00 0.000E+00
   -.407E+00 -.150E+00 0.314E-08   0.802E-09 0.130E-07 -.411E-08   0.231E+00 0.957E-01 0.000E+00
   0.654E-01 -.242E+00 -.302E-08   0.802E-09 0.130E-07 -.411E-08   -.112E+00 0.221E+00 0.000E+00
   -.206E+00 -.397E+00 -.313E-08   0.130E-07 -.169E-07 -.411E-08   0.248E+00 0.336E+00 0.000E+00
   -.702E+00 -.504E+00 -.349E-08   0.130E-07 -.169E-07 -.411E-08   0.499E+00 0.372E+00 0.000E+00
   0.423E+00 0.128E+00 -.406E-08   0.130E-07 0.802E-09 -.411E-08   -.160E+00 -.397E-01 0.000E+00
   0.457E+00 0.338E+00 -.433E-08   0.130E-07 0.802E-09 -.411E-08   -.230E+00 -.330E+00 0.000E+00
   -.412E+00 0.521E+00 0.125E-08   0.130E-07 0.130E-07 -.411E-08   0.299E+00 -.242E+00 0.000E+00
   0.232E+00 0.320E+00 -.592E-08   0.130E-07 0.130E-07 -.411E-08   -.169E+00 -.140E+00 0.000E+00
 -----------------------------------------------------------------------------------------------
   0.422E-01 0.384E-02 -.800E-07   -.197E-14 0.275E-13 0.265E-14   -.422E-01 -.384E-02 0.000E+00
 
 
 POSITION                                       TOTAL-FORCE (eV/Angst)
 -----------------------------------------------------------------------------------
      0.00000      0.00000      0.00000        -0.163305     -0.016691     -0.005028
      0.00000      0.00000      3.47664        -0.163305     -0.016691      0.005028
      0.00000      2.75005      0.00000         0.013132      0.004884      0.010882
      0.00000      2.75005      3.47664         0.013132      0.004884     -0.010882
      0.00000      5.50010      0.00000         0.036388     -0.040861     -0.045860
      0.00000      5.50010      3.47664         0.036388     -0.040861      0.045860
      2.75005      0.00000      0.00000         0.114026      0.019297      0.085975
      2.75005      0.00000      3.47664         0.114026      0.019297     -0.085975
      2.75005      2.75005      0.00000         0.023284     -0.003341      0.002864
      2.75005      2.75005      3.47664         0.023284     -0.003341     -0.002864
      2.75005      5.50010      0.00000        -0.052285      0.009758      0.063035
      2.75005      5.50010      3.47664        -0.052285      0.009758     -0.063035
      5.50010      0.00000      0.00000         0.072157      0.076314     -0.014960
      5.50010      0.00000      3.47664         0.072157      0.076314      0.014960
      5.50010      2.75005      0.00000        -0.061339     -0.085658      0.001837
      5.50010      2.75005      3.47664        -0.061339     -0.085658     -0.001837
      5.50010      5.50010      0.00000         0.005063      0.017436     -0.014097
      5.50010      5.50010      3.47664         0.005063      0.017436      0.014097
      1.37502      1.37502      1.73832         0.037756      0.105145      0.000000
      1.37502      1.37502      5.21496        -0.016698      0.245237      0.000000
      1.37502      4.12507      1.73832        -0.166993      0.272825      0.000000
      1.37502      4.12507      5.21496        -0.113582     -0.165533      0.000000
      1.37502      6.87512      1.73832         0.146943     -0.225570      0.000000
      1.37502      6.87512      5.21496        -0.155789     -0.012778      0.000000
      4.12507      1.37502      1.73832        -0.022022      0.033616      0.000000
      4.12507      1.37502      5.21496         0.191739      0.108793      0.000000
      4.12507      4.12507      1.73832         0.063267     -0.375342      0.000000
      4.12507      4.12507      5.21496         0.020977     -0.239976      0.000000
      4.12507      6.87512      1.73832        -0.189556     -0.061444      0.000000
      4.12507      6.87512      5.21496        -0.045802     -0.029934      0.000000
      6.87512      1.37502      1.73832         0.035562     -0.064065      0.000000
      6.87512      1.37502      5.21496        -0.218143     -0.138865      0.000000
      6.87512      4.12507      1.73832         0.275817      0.091289      0.000000
      6.87512      4.12507      5.21496         0.241127      0.015414      0.000000
      6.87512      6.87512      1.73832        -0.122277      0.291402      0.000000
      6.87512      6.87512      5.21496         0.063434      0.187508      0.000000
 -----------------------------------------------------------------------------------
    total drift:                               -0.000013     -0.000003     -0.000000


--------------------------------------------------------------------------------------------------------



  FREE ENERGIE OF THE ION-ELECTRON SYSTEM (eV)
  ---------------------------------------------------
  free  energy   TOTEN  =      -236.20372585 eV

  energy  without entropy=     -236.22394173  energy(sigma->0) =     -236.21046448
 


--------------------------------------------------------------------------------------------------------


    POTLOK:  cpu time    0.5777: real time    0.5780


--------------------------------------------------------------------------------------------------------


     LOOP+:  cpu time 1108.0073: real time 1164.1866
    4ORBIT:  cpu time    0.0000: real time    0.0000
 


 total charge     
 
# of ion       s       p       d       tot
------------------------------------------
    1        0.406   0.426   0.000   0.832
    2        0.406   0.427   0.000   0.833
    3        0.406   0.426   0.000   0.832
    4        0.406   0.426   0.000   0.831
    5        0.406   0.424   0.000   0.830
    6        0.406   0.424   0.000   0.830
    7        0.405   0.429   0.000   0.834
    8        0.405   0.430   0.000   0.835
    9        0.406   0.425   0.000   0.831
   10        0.406   0.425   0.000   0.831
   11        0.405   0.428   0.000   0.833
   12        0.405   0.428   0.000   0.833
   13        0.405   0.425   0.000   0.830
   14        0.405   0.425   0.000   0.830
   15        0.405   0.425   0.000   0.831
   16        0.405   0.425   0.000   0.830
   17        0.404   0.431   0.000   0.835
   18        0.404   0.431   0.000   0.835
   19        0.330   0.356   5.140   5.826
   20        0.333   0.356   5.129   5.818
   21        0.337   0.353   5.129   5.819
   22        0.336   0.355   5.129   5.820
   23        0.334   0.355   5.126   5.815
   24        0.331   0.357   5.140   5.829
   25        0.333   0.351   5.146   5.829
   26        0.336   0.357   5.127   5.820
   27        0.337   0.355   5.127   5.819
   28        0.337   0.357   5.124   5.817
   29        0.340   0.352   5.122   5.815
   30        0.338   0.362   5.109   5.809
   31        0.333   0.350   5.144   5.827
   32        0.336   0.356   5.127   5.819
   33        0.338   0.356   5.122   5.816
   34        0.337   0.356   5.125   5.818
   35        0.336   0.356   5.129   5.820
   36        0.336   0.353   5.131   5.820
--------------------------------------------------
tot         13.331  14.074  92.325 119.730
 


 magnetization (x)
 
# of ion       s       p       d       tot
------------------------------------------
    1       -0.007  -0.016   0.000  -0.022
    2       -0.006  -0.015   0.000  -0.021
    3        0.002   0.008   0.000   0.010
    4        0.002   0.008   0.000   0.010
    5        0.005   0.012   0.000   0.017
    6        0.005   0.011   0.000   0.016
    7       -0.002  -0.002   0.000  -0.004
    8       -0.002  -0.002   0.000  -0.004
    9       -0.003  -0.008   0.000  -0.011
   10       -0.003  -0.008   0.000  -0.011
   11        0.004   0.010   0.000   0.014
   12        0.004   0.010   0.000   0.014
   13       -0.010  -0.020   0.000  -0.031
   14       -0.010  -0.020   0.000  -0.030
   15       -0.008  -0.019   0.000  -0.027
   16       -0.009  -0.020   0.000  -0.028
   17       -0.001  -0.001   0.000  -0.001
   18       -0.001  -0.001   0.000  -0.002
   19        0.016   0.031   2.029   2.076
   20       -0.026  -0.033  -2.306  -2.366
   21       -0.023  -0.015  -2.393  -2.431
   22       -0.023  -0.014  -2.345  -2.382
   23       -0.014  -0.027  -2.336  -2.378
   24        0.027   0.030   2.006   2.063
   25        0.016   0.005   2.201   2.222
   26        0.023   0.023   2.299   2.346
   27        0.040   0.019   2.433   2.493
   28        0.040   0.020   2.421   2.481
   29       -0.040  -0.013  -2.576  -2.630
   30       -0.046  -0.032  -2.486  -2.564
   31        0.016   0.006   2.250   2.271
   32        0.023   0.026   2.344   2.393
   33       -0.037  -0.018  -2.458  -2.512
   34       -0.036  -0.019  -2.458  -2.513
   35        0.037   0.028   2.320   2.384
   36        0.031   0.011   2.419   2.461
--------------------------------------------------
tot         -0.016  -0.044   3.364   3.304
 

 total amount of memory used by VASP MPI-rank0   751840. kBytes
=======================================================================

   base      :      30000. kBytes
   nonl-proj :      34307. kBytes
   fftplans  :      21726. kBytes
   grid      :      14732. kBytes
   one-center:        279. kBytes
   wavefun   :     650796. kBytes
 
  
  
 General timing and accounting informations for this job:
 ========================================================
  
                  Total CPU time used (sec):     1134.148
                            User time (sec):     1112.976
                          System time (sec):       21.172
                         Elapsed time (sec):     1193.885
  
                   Maximum memory used (kb):      889652.
                   Average memory used (kb):           0.
  
                          Minor page faults:       387987
                          Major page faults:           20
                 Voluntary context switches:         5083
