 vasp.5.4.4.18Apr17-6-g9f103f2a35 (build Dec 20 2018 12:05:58) complex          
  
 executed on             LinuxIFC date 2019.06.21  01:07:09
 running on   32 total cores
 distrk:  each k-point on    8 cores,    4 groups
 distr:  one band on NCORES_PER_BAND=   4 cores,    2 groups


--------------------------------------------------------------------------------------------------------


 INCAR:
 POTCAR:    PAW_PBE Al 04Jan2001                  
 POTCAR:    PAW_PBE Mn 06Sep2000                  

 ----------------------------------------------------------------------------- 
|                                                                             |
|           W    W    AA    RRRRR   N    N  II  N    N   GGGG   !!!           |
|           W    W   A  A   R    R  NN   N  II  NN   N  G    G  !!!           |
|           W    W  A    A  R    R  N N  N  II  N N  N  G       !!!           |
|           W WW W  AAAAAA  RRRRR   N  N N  II  N  N N  G  GGG   !            |
|           WW  WW  A    A  R   R   N   NN  II  N   NN  G    G                |
|           W    W  A    A  R    R  N    N  II  N    N   GGGG   !!!           |
|                                                                             |
|      You have enabled k-point parallelism (KPAR>1).                         |
|      This developmental code was originally  written by Paul Kent at ORNL,  |
|      and carefully double checked in Vienna.                                |
|      GW as well as linear response parallelism added by Martijn Marsman     |
|      and Georg Kresse.                                                      |
|      Carefully verify results versus KPAR=1.                                |
|      Report problems to Paul Kent and Vienna.                               |
|                                                                             |
 ----------------------------------------------------------------------------- 

 POTCAR:    PAW_PBE Al 04Jan2001                  
   VRHFIN =Al: s2p1                                                             
   LEXCH  = PE                                                                  
   EATOM  =    53.5387 eV,    3.9350 Ry                                         
                                                                                
   TITEL  = PAW_PBE Al 04Jan2001                                                
   LULTRA =        F    use ultrasoft PP ?                                      
   IUNSCR =        1    unscreen: 0-lin 1-nonlin 2-no                           
   RPACOR =    1.500    partial core radius                                     
   POMASS =   26.981; ZVAL   =    3.000    mass and valenz                      
   RCORE  =    1.900    outmost cutoff radius                                   
   RWIGS  =    2.650; RWIGS  =    1.402    wigner-seitz radius (au A)           
   ENMAX  =  240.300; ENMIN  =  180.225 eV                                      
   ICORE  =        2    local potential                                         
   LCOR   =        T    correct aug charges                                     
   LPAW   =        T    paw PP                                                  
   EAUG   =  291.052                                                            
   DEXC   =    0.000                                                            
   RMAX   =    1.939    core radius for proj-oper                               
   RAUG   =    1.300    factor for augmentation sphere                          
   RDEP   =    1.966    radius for radial grids                                 
   RDEPT  =    1.856    core radius for aug-charge                              
                                                                                
   Atomic configuration                                                         
    6 entries                                                                   
     n  l   j            E        occ.                                          
     1  0  0.50     -1511.1048   2.0000                                         
     2  0  0.50      -108.1629   2.0000                                         
     2  1  1.50       -69.6402   6.0000                                         
     3  0  0.50        -7.7528   2.0000                                         
     3  1  1.50        -2.7121   1.0000                                         
     3  2  2.50        -2.7212   0.0000                                         
   Description                                                                  
     l       E           TYP  RCUT    TYP  RCUT                                 
     0     -7.7528455     23  1.900                                             
     0     -3.3096929     23  1.900                                             
     1     -2.7120682     23  1.900                                             
     1     13.6058260     23  1.900                                             
     2     -2.7211652      7  1.900                                             
  local pseudopotential read in
  partial core-charges read in
  partial kinetic energy density read in
  atomic valenz-charges read in
  non local Contribution for L=           0  read in
    real space projection operators read in
  non local Contribution for L=           0  read in
    real space projection operators read in
  non local Contribution for L=           1  read in
    real space projection operators read in
  non local Contribution for L=           1  read in
    real space projection operators read in
    PAW grid and wavefunctions read in
 
   number of l-projection  operators is LMAX  =           4
   number of lm-projection operators is LMMAX =           8
 
 POTCAR:    PAW_PBE Mn 06Sep2000                  
   VRHFIN =Mn: d6 s1                                                            
   LEXCH  = PE                                                                  
   EATOM  =   416.7541 eV,   30.6306 Ry                                         
                                                                                
   TITEL  = PAW_PBE Mn 06Sep2000                                                
   LULTRA =        F    use ultrasoft PP ?                                      
   IUNSCR =        1    unscreen: 0-lin 1-nonlin 2-no                           
   RPACOR =    2.000    partial core radius                                     
   POMASS =   54.938; ZVAL   =    7.000    mass and valenz                      
   RCORE  =    2.300    outmost cutoff radius                                   
   RWIGS  =    2.500; RWIGS  =    1.323    wigner-seitz radius (au A)           
   ENMAX  =  269.864; ENMIN  =  202.398 eV                                      
   RCLOC  =    1.725    cutoff for local pot                                    
   LCOR   =        T    correct aug charges                                     
   LPAW   =        T    paw PP                                                  
   EAUG   =  500.711                                                            
   DEXC   =    0.000                                                            
   RMAX   =    2.343    core radius for proj-oper                               
   RAUG   =    1.300    factor for augmentation sphere                          
   RDEP   =    2.338    radius for radial grids                                 
   RDEPT  =    1.911    core radius for aug-charge                              
                                                                                
   Atomic configuration                                                         
    9 entries                                                                   
     n  l   j            E        occ.                                          
     1  0  0.50     -6424.8288   2.0000                                         
     2  0  0.50      -739.1154   2.0000                                         
     2  1  1.50      -625.3949   6.0000                                         
     3  0  0.50       -81.6100   2.0000                                         
     3  1  1.50       -50.4667   6.0000                                         
     3  2  2.50        -3.3745   6.0000                                         
     4  0  0.50        -4.1331   1.0000                                         
     4  1  0.50        -4.0817   0.0000                                         
     4  3  2.50        -1.3606   0.0000                                         
   Description                                                                  
     l       E           TYP  RCUT    TYP  RCUT                                 
     2     -3.3744664     23  2.300                                             
     2     -4.7350490     23  2.300                                             
     0     -4.1331408     23  2.300                                             
     0      7.6656614     23  2.300                                             
     1     -2.7211652     23  2.300                                             
     1     20.4087390     23  2.300                                             
  local pseudopotential read in
  partial core-charges read in
  partial kinetic energy density read in
  atomic valenz-charges read in
  non local Contribution for L=           2  read in
    real space projection operators read in
  non local Contribution for L=           2  read in
    real space projection operators read in
  non local Contribution for L=           0  read in
    real space projection operators read in
  non local Contribution for L=           0  read in
    real space projection operators read in
  non local Contribution for L=           1  read in
    real space projection operators read in
  non local Contribution for L=           1  read in
    real space projection operators read in
    PAW grid and wavefunctions read in
 
   number of l-projection  operators is LMAX  =           6
   number of lm-projection operators is LMMAX =          18
 

 ----------------------------------------------------------------------------- 
|                                                                             |
|  ADVICE TO THIS USER RUNNING 'VASP/VAMP'   (HEAR YOUR MASTER'S VOICE ...):  |
|                                                                             |
|      You have a (more or less) 'large supercell' and for larger cells       |
|      it might be more efficient to use real space projection opertators     |
|      So try LREAL= Auto  in the INCAR   file.                               |
|      Mind:          For very  accurate calculation you might also keep the  |
|      reciprocal projection scheme          (i.e. LREAL=.FALSE.)             |
|                                                                             |
 ----------------------------------------------------------------------------- 

  PAW_PBE Al 04Jan2001                  :
 energy of atom  1       EATOM=  -53.5387
 kinetic energy error for atom=    0.0005 (will be added to EATOM!!)
  PAW_PBE Mn 06Sep2000                  :
 energy of atom  2       EATOM= -416.7541
 kinetic energy error for atom=    0.0080 (will be added to EATOM!!)
 
 
 POSCAR: NewRef: 27, @ ['Mn', array([1.37502469, 
  positions in cartesian coordinates
  velocities in cartesian coordinates
  No initial velocities read in
 exchange correlation table for  LEXCH =        8
   RHO(1)=    0.500       N(1)  =     2000
   RHO(2)=  100.500       N(2)  =     4000
 


--------------------------------------------------------------------------------------------------------


 ion  position               nearest neighbor table
   1  0.000  0.000  0.000-  28 2.61  30 2.61  34 2.61  36 2.61  46 2.61  48 2.61  52 2.61  54 2.61
                             4 2.75  10 2.75   7 2.75  19 2.75
   2  0.000  0.000  0.333-  28 2.61  34 2.61  46 2.61  52 2.61  29 2.61  47 2.61  35 2.61  53 2.61
                             5 2.75  11 2.75   8 2.75  20 2.75
   3  0.000  0.000  0.667-  29 2.61  35 2.61  47 2.61  53 2.61  30 2.61  48 2.61  36 2.61  54 2.61
                             6 2.75  12 2.75   9 2.75  21 2.75
   4  0.000  0.333  0.000-  28 2.61  30 2.61  46 2.61  48 2.61  31 2.61  33 2.61  49 2.61  51 2.61
                            13 2.75   1 2.75   7 2.75  22 2.75
   5  0.000  0.333  0.333-  28 2.61  46 2.61  31 2.61  49 2.61  47 2.61  29 2.61  32 2.61  50 2.61
                            14 2.75   2 2.75   8 2.75  23 2.75
   6  0.000  0.333  0.667-  29 2.61  47 2.61  32 2.61  50 2.61  48 2.61  30 2.61  33 2.61  51 2.61
                            15 2.75   3 2.75   9 2.75  24 2.75
   7  0.000  0.667  0.000-  31 2.61  33 2.61  49 2.61  51 2.61  34 2.61  36 2.61  52 2.61  54 2.61
                             4 2.75  16 2.75   1 2.75  25 2.75
   8  0.000  0.667  0.333-  31 2.61  49 2.61  34 2.61  52 2.61  50 2.61  32 2.61  35 2.61  53 2.61
                             5 2.75  17 2.75   2 2.75  26 2.75
   9  0.000  0.667  0.667-  32 2.61  50 2.61  35 2.61  53 2.61  51 2.61  33 2.61  36 2.61  54 2.61
                             6 2.75  18 2.75   3 2.75  27 2.75
  10  0.333  0.000  0.000-  28 2.61  30 2.61  34 2.61  36 2.61  37 2.61  39 2.61  43 2.61  45 2.61
                            19 2.75   1 2.75  13 2.75  16 2.75
  11  0.333  0.000  0.333-  28 2.61  34 2.61  37 2.61  43 2.61  29 2.61  35 2.61  38 2.61  44 2.61
                            20 2.75   2 2.75  14 2.75  17 2.75
  12  0.333  0.000  0.667-  29 2.61  35 2.61  38 2.61  44 2.61  30 2.61  36 2.61  39 2.61  45 2.61
                            21 2.75   3 2.75  15 2.75  18 2.75
  13  0.333  0.333  0.000-  28 2.61  30 2.61  31 2.61  33 2.61  37 2.61  39 2.61  40 2.61  42 2.61
                             4 2.75  10 2.75  16 2.75  22 2.75
  14  0.333  0.333  0.333-  28 2.61  31 2.61  37 2.61  29 2.61  40 2.61  38 2.61  32 2.61  41 2.61
                             5 2.75  11 2.75  17 2.75  23 2.75
  15  0.333  0.333  0.667-  29 2.61  32 2.61  38 2.61  30 2.61  41 2.61  39 2.61  33 2.61  42 2.61
                             6 2.75  12 2.75  18 2.75  24 2.75
  16  0.333  0.667  0.000-  31 2.61  33 2.61  34 2.61  36 2.61  40 2.61  42 2.61  43 2.61  45 2.61
                            25 2.75   7 2.75  13 2.75  10 2.75
  17  0.333  0.667  0.333-  31 2.61  34 2.61  40 2.61  32 2.61  43 2.61  41 2.61  35 2.61  44 2.61
                            26 2.75   8 2.75  14 2.75  11 2.75
  18  0.333  0.667  0.667-  32 2.61  35 2.61  41 2.61  33 2.61  44 2.61  42 2.61  36 2.61  45 2.61
                            27 2.75   9 2.75  15 2.75  12 2.75
  19  0.667  0.000  0.000-  37 2.61  39 2.61  43 2.61  45 2.61  46 2.61  48 2.61  52 2.61  54 2.61
                            10 2.75  22 2.75   1 2.75  25 2.75
  20  0.667  0.000  0.333-  37 2.61  43 2.61  46 2.61  52 2.61  38 2.61  44 2.61  47 2.61  53 2.61
                            11 2.75  23 2.75   2 2.75  26 2.75
  21  0.667  0.000  0.667-  38 2.61  44 2.61  47 2.61  53 2.61  39 2.61  45 2.61  48 2.61  54 2.61
                            12 2.75  24 2.75   3 2.75  27 2.75
  22  0.667  0.333  0.000-  37 2.61  39 2.61  40 2.61  42 2.61  46 2.61  48 2.61  49 2.61  51 2.61
                            25 2.75  13 2.75  19 2.75   4 2.75
  23  0.667  0.333  0.333-  37 2.61  40 2.61  46 2.61  38 2.61  49 2.61  47 2.61  41 2.61  50 2.61
                            26 2.75  14 2.75  20 2.75   5 2.75
  24  0.667  0.333  0.667-  38 2.61  41 2.61  47 2.61  39 2.61  50 2.61  48 2.61  42 2.61  51 2.61
                            27 2.75  15 2.75  21 2.75   6 2.75
  25  0.667  0.667  0.000-  40 2.61  42 2.61  43 2.61  45 2.61  49 2.61  51 2.61  52 2.61  54 2.61
                            16 2.75  22 2.75  19 2.75   7 2.75
  26  0.667  0.667  0.333-  40 2.61  43 2.61  49 2.61  41 2.61  52 2.61  50 2.61  44 2.61  53 2.61
                            17 2.75  23 2.75  20 2.75   8 2.75
  27  0.667  0.667  0.667-  41 2.61  44 2.61  50 2.61  42 2.61  53 2.61  51 2.61  45 2.61  54 2.61
                            18 2.75  24 2.75  21 2.75   9 2.75
  28  0.167  0.167  0.167-  14 2.61  11 2.61   5 2.61  13 2.61   2 2.61  10 2.61   4 2.61   1 2.61
                            31 2.75  37 2.75  34 2.75  46 2.75
  29  0.167  0.167  0.500-  15 2.61  12 2.61   6 2.61  14 2.61   3 2.61  11 2.61   5 2.61   2 2.61
                            32 2.75  38 2.75  35 2.75  47 2.75
  30  0.167  0.167  0.833-  13 2.61  15 2.61  10 2.61  12 2.61   4 2.61   6 2.61   1 2.61   3 2.61
                            33 2.75  39 2.75  36 2.75  48 2.75
  31  0.167  0.500  0.167-  17 2.61  14 2.61   8 2.61  16 2.61   5 2.61  13 2.61   7 2.61   4 2.61
                            28 2.75  34 2.75  40 2.75  49 2.75
  32  0.167  0.500  0.500-  18 2.61  15 2.61   9 2.61  17 2.61   6 2.61  14 2.61   8 2.61   5 2.61
                            29 2.75  35 2.75  41 2.75  50 2.75
  33  0.167  0.500  0.833-  16 2.61  18 2.61  13 2.61  15 2.61   7 2.61   9 2.61   4 2.61   6 2.61
                            30 2.75  36 2.75  42 2.75  51 2.75
  34  0.167  0.833  0.167-  11 2.61  17 2.61   2 2.61   8 2.61  16 2.61  10 2.61   7 2.61   1 2.61
                            31 2.75  43 2.75  28 2.75  52 2.75
  35  0.167  0.833  0.500-  12 2.61  18 2.61   3 2.61   9 2.61  17 2.61  11 2.61   8 2.61   2 2.61
                            32 2.75  44 2.75  29 2.75  53 2.75
  36  0.167  0.833  0.833-  10 2.61  12 2.61  16 2.61  18 2.61   1 2.61   3 2.61   7 2.61   9 2.61
                            33 2.75  45 2.75  30 2.75  54 2.75
  37  0.500  0.167  0.167-  23 2.61  20 2.61  14 2.61  22 2.61  11 2.61  19 2.61  13 2.61  10 2.61
                            28 2.75  40 2.75  46 2.75  43 2.75
  38  0.500  0.167  0.500-  24 2.61  21 2.61  15 2.61  23 2.61  12 2.61  20 2.61  14 2.61  11 2.61
                            29 2.75  41 2.75  47 2.75  44 2.75
  39  0.500  0.167  0.833-  22 2.61  24 2.61  19 2.61  21 2.61  13 2.61  15 2.61  10 2.61  12 2.61
                            30 2.75  42 2.75  48 2.75  45 2.75
  40  0.500  0.500  0.167-  26 2.61  23 2.61  17 2.61  25 2.61  14 2.61  22 2.61  16 2.61  13 2.61
                            31 2.75  37 2.75  43 2.75  49 2.75
  41  0.500  0.500  0.500-  27 2.61  24 2.61  18 2.61  26 2.61  15 2.61  23 2.61  17 2.61  14 2.61
                            32 2.75  38 2.75  44 2.75  50 2.75
  42  0.500  0.500  0.833-  25 2.61  27 2.61  22 2.61  24 2.61  16 2.61  18 2.61  13 2.61  15 2.61
                            33 2.75  39 2.75  45 2.75  51 2.75
  43  0.500  0.833  0.167-  20 2.61  26 2.61  11 2.61  17 2.61  25 2.61  19 2.61  16 2.61  10 2.61
                            34 2.75  40 2.75  52 2.75  37 2.75
  44  0.500  0.833  0.500-  21 2.61  27 2.61  12 2.61  18 2.61  26 2.61  20 2.61  17 2.61  11 2.61
                            35 2.75  41 2.75  53 2.75  38 2.75
  45  0.500  0.833  0.833-  19 2.61  21 2.61  25 2.61  27 2.61  10 2.61  12 2.61  16 2.61  18 2.61
                            36 2.75  42 2.75  54 2.75  39 2.75
  46  0.833  0.167  0.167-   5 2.61  23 2.61  20 2.61   2 2.61  22 2.61   4 2.61  19 2.61   1 2.61
                            37 2.75  49 2.75  28 2.75  52 2.75
  47  0.833  0.167  0.500-   6 2.61  24 2.61  21 2.61   3 2.61  23 2.61   5 2.61  20 2.61   2 2.61
                            38 2.75  50 2.75  29 2.75  53 2.75
  48  0.833  0.167  0.833-   4 2.61   6 2.61  22 2.61  24 2.61  19 2.61  21 2.61   1 2.61   3 2.61
                            39 2.75  51 2.75  30 2.75  54 2.75
  49  0.833  0.500  0.167-   8 2.61  26 2.61  23 2.61   5 2.61  25 2.61   7 2.61  22 2.61   4 2.61
                            40 2.75  46 2.75  52 2.75  31 2.75
  50  0.833  0.500  0.500-   9 2.61  27 2.61  24 2.61   6 2.61  26 2.61   8 2.61  23 2.61   5 2.61
                            41 2.75  47 2.75  53 2.75  32 2.75
  51  0.833  0.500  0.833-   7 2.61   9 2.61  25 2.61  27 2.61  22 2.61  24 2.61   4 2.61   6 2.61
                            42 2.75  48 2.75  54 2.75  33 2.75
  52  0.833  0.833  0.167-   2 2.61   8 2.61  20 2.61  26 2.61  19 2.61   7 2.61  25 2.61   1 2.61
                            43 2.75  49 2.75  46 2.75  34 2.75
  53  0.833  0.833  0.500-   3 2.61   9 2.61  21 2.61  27 2.61  20 2.61   8 2.61  26 2.61   2 2.61
                            44 2.75  50 2.75  47 2.75  35 2.75
  54  0.833  0.833  0.833-   1 2.61   3 2.61   7 2.61   9 2.61  19 2.61  21 2.61  25 2.61  27 2.61
                            45 2.75  51 2.75  48 2.75  36 2.75
 
  LATTYP: Found a simple tetragonal cell.
 ALAT       =     8.2501481662
 C/A-ratio  =     1.2642089792
  
  Lattice vectors:
  
 A1 = (   8.2501481662,   0.0000000000,   0.0000000000)
 A2 = (   0.0000000000,   8.2501481662,   0.0000000000)
 A3 = (   0.0000000000,   0.0000000000,  10.4299113916)


Analysis of symmetry for initial positions (statically):
=====================================================================
 Subroutine PRICEL returns following result:
 
  LATTYP: Found a simple tetragonal cell.
 ALAT       =     2.7500493888
 C/A-ratio  =     1.2642089792
  
  Lattice vectors:
  
 A1 = (   2.7500493888,   0.0000000000,   0.0000000000)
 A2 = (   0.0000000000,   2.7500493888,   0.0000000000)
 A3 = (   0.0000000000,   0.0000000000,   3.4766371306)
 
  27 primitive cells build up your supercell.
 

 Routine SETGRP: Setting up the symmetry group for a 
 simple tetragonal supercell.


 Subroutine GETGRP returns: Found 16 space group operations
 (whereof 16 operations were pure point group operations)
 out of a pool of 16 trial point group operations.


The static configuration has the point symmetry D_4h.


Analysis of symmetry for dynamics (positions and initial velocities):
=====================================================================
 Subroutine PRICEL returns following result:
 
  LATTYP: Found a simple tetragonal cell.
 ALAT       =     2.7500493888
 C/A-ratio  =     1.2642089792
  
  Lattice vectors:
  
 A1 = (   2.7500493888,   0.0000000000,   0.0000000000)
 A2 = (   0.0000000000,   2.7500493888,   0.0000000000)
 A3 = (   0.0000000000,   0.0000000000,   3.4766371306)
 
  27 primitive cells build up your supercell.
 

 Routine SETGRP: Setting up the symmetry group for a 
 simple tetragonal supercell.


 Subroutine GETGRP returns: Found 16 space group operations
 (whereof 16 operations were pure point group operations)
 out of a pool of 16 trial point group operations.


The dynamic configuration has the point symmetry D_4h.


Analysis of structural, dynamic, and magnetic symmetry:
=====================================================================
 Subroutine PRICEL returns:
 Original cell was already a primitive cell.
 

 Routine SETGRP: Setting up the symmetry group for a 
 simple tetragonal supercell.


 Subroutine GETGRP returns: Found  2 space group operations
 (whereof  1 operations were pure point group operations)
 out of a pool of 16 trial point group operations.


The magnetic configuration has the point symmetry C_1 .
 The point group associated with its full space group is C_1h.


 Subroutine INISYM returns: Found  2 space group operations
 (whereof  1 operations are pure point group operations),
 and found     1 'primitive' translations

 
 
 KPOINTS: automatic KPOINTS                       

Automatic generation of k-mesh.
 generate k-points for:    5    5    4
Space group operators:
 irot       det(A)        alpha          n_x          n_y          n_z        tau_x        tau_y        tau_z
    1     1.000000     0.000001     1.000000     0.000000     0.000000     0.000000     0.000000     0.000000
    2    -1.000000   180.000000     1.000000     0.000000     0.000000     0.333333     0.000000     0.000000
 
 Subroutine IBZKPT returns following result:
 ===========================================
 
 Found     33 irreducible k-points:
 
 Following reciprocal coordinates:
            Coordinates               Weight
  0.000000  0.000000  0.000000      1.000000
  0.200000  0.000000  0.000000      2.000000
  0.400000  0.000000  0.000000      2.000000
  0.000000  0.200000  0.000000      2.000000
  0.200000  0.200000  0.000000      4.000000
  0.400000  0.200000  0.000000      4.000000
  0.000000  0.400000  0.000000      2.000000
  0.200000  0.400000  0.000000      4.000000
  0.400000  0.400000  0.000000      4.000000
  0.000000  0.000000  0.250000      2.000000
  0.200000  0.000000  0.250000      4.000000
  0.400000  0.000000  0.250000      4.000000
  0.000000  0.200000  0.250000      2.000000
  0.200000  0.200000  0.250000      4.000000
  0.400000  0.200000  0.250000      4.000000
  0.000000  0.400000  0.250000      2.000000
  0.200000  0.400000  0.250000      4.000000
  0.400000  0.400000  0.250000      4.000000
  0.000000 -0.400000  0.250000      2.000000
  0.200000 -0.400000  0.250000      4.000000
  0.400000 -0.400000  0.250000      4.000000
  0.000000 -0.200000  0.250000      2.000000
  0.200000 -0.200000  0.250000      4.000000
  0.400000 -0.200000  0.250000      4.000000
  0.000000  0.000000  0.500000      1.000000
  0.200000  0.000000  0.500000      2.000000
  0.400000  0.000000  0.500000      2.000000
  0.000000  0.200000  0.500000      2.000000
  0.200000  0.200000  0.500000      4.000000
  0.400000  0.200000  0.500000      4.000000
  0.000000  0.400000  0.500000      2.000000
  0.200000  0.400000  0.500000      4.000000
  0.400000  0.400000  0.500000      4.000000
 
 Following cartesian coordinates:
            Coordinates               Weight
  0.000000  0.000000  0.000000      1.000000
  0.024242  0.000000  0.000000      2.000000
  0.048484  0.000000  0.000000      2.000000
  0.000000  0.024242  0.000000      2.000000
  0.024242  0.024242  0.000000      4.000000
  0.048484  0.024242  0.000000      4.000000
  0.000000  0.048484  0.000000      2.000000
  0.024242  0.048484  0.000000      4.000000
  0.048484  0.048484  0.000000      4.000000
  0.000000  0.000000  0.023970      2.000000
  0.024242  0.000000  0.023970      4.000000
  0.048484  0.000000  0.023970      4.000000
  0.000000  0.024242  0.023970      2.000000
  0.024242  0.024242  0.023970      4.000000
  0.048484  0.024242  0.023970      4.000000
  0.000000  0.048484  0.023970      2.000000
  0.024242  0.048484  0.023970      4.000000
  0.048484  0.048484  0.023970      4.000000
  0.000000 -0.048484  0.023970      2.000000
  0.024242 -0.048484  0.023970      4.000000
  0.048484 -0.048484  0.023970      4.000000
  0.000000 -0.024242  0.023970      2.000000
  0.024242 -0.024242  0.023970      4.000000
  0.048484 -0.024242  0.023970      4.000000
  0.000000  0.000000  0.047939      1.000000
  0.024242  0.000000  0.047939      2.000000
  0.048484  0.000000  0.047939      2.000000
  0.000000  0.024242  0.047939      2.000000
  0.024242  0.024242  0.047939      4.000000
  0.048484  0.024242  0.047939      4.000000
  0.000000  0.048484  0.047939      2.000000
  0.024242  0.048484  0.047939      4.000000
  0.048484  0.048484  0.047939      4.000000
 


--------------------------------------------------------------------------------------------------------




 Dimension of arrays:
   k-points           NKPTS =     33   k-points in BZ     NKDIM =     33   number of bands    NBANDS=    174
   number of dos      NEDOS =    301   number of ions     NIONS =     54
   non local maximal  LDIM  =      6   non local SUM 2l+1 LMDIM =     18
   total plane-waves  NPLWV = 204120
   max r-space proj   IRMAX =      1   max aug-charges    IRDMAX=  89713
   dimension x,y,z NGX =    54 NGY =   54 NGZ =   70
   dimension x,y,z NGXF=   108 NGYF=  108 NGZF=  140
   support grid    NGXF=   216 NGYF=  216 NGZF=  280
   ions per type =              27  27
   NGX,Y,Z   is equivalent  to a cutoff of  10.88, 10.88, 11.16 a.u.
   NGXF,Y,Z  is equivalent  to a cutoff of  21.76, 21.76, 22.32 a.u.

 SYSTEM =  AlMn_pv                                 
 POSCAR =  NewRef: 27, @ ['Mn', array([1.37502469, 

 Startparameter for this run:
   NWRITE =      2    write-flag & timer
   PREC   = accura    normal or accurate (medium, high low for compatibility)
   ISTART =      0    job   : 0-new  1-cont  2-samecut
   ICHARG =      2    charge: 1-file 2-atom 10-const
   ISPIN  =      2    spin polarized calculation?
   LNONCOLLINEAR =      F non collinear calculations
   LSORBIT =      F    spin-orbit coupling
   INIWAV =      1    electr: 0-lowe 1-rand  2-diag
   LASPH  =      F    aspherical Exc in radial PAW
   METAGGA=      F    non-selfconsistent MetaGGA calc.

 Electronic Relaxation 1
   ENCUT  =  404.8 eV  29.75 Ry    5.45 a.u.  13.53 13.53 17.11*2*pi/ulx,y,z
   ENINI  =  404.8     initial cutoff
   ENAUG  =  500.7 eV  augmentation charge cutoff
   NELM   =    100;   NELMIN=  4; NELMDL= -8     # of ELM steps 
   EDIFF  = 0.1E-06   stopping-criterion for ELM
   LREAL  =      F    real-space projection
   NLSPLINE    = F    spline interpolate recip. space projectors
   LCOMPAT=      F    compatible to vasp.4.4
   GGA_COMPAT  = T    GGA compatible to vasp.4.4-vasp.4.6
   LMAXPAW     = -100 max onsite density
   LMAXMIX     =    2 max onsite mixed and CHGCAR
   VOSKOWN=      0    Vosko Wilk Nusair interpolation
   ROPT   =    0.00000   0.00000
 Ionic relaxation
   EDIFFG = 0.1E-05   stopping-criterion for IOM
   NSW    =      0    number of steps for IOM
   NBLOCK =      1;   KBLOCK =      1    inner block; outer block 
   IBRION =     -1    ionic relax: 0-MD 1-quasi-New 2-CG
   NFREE  =      0    steps in history (QN), initial steepest desc. (CG)
   ISIF   =      2    stress and relaxation
   IWAVPR =     10    prediction:  0-non 1-charg 2-wave 3-comb
   ISYM   =      2    0-nonsym 1-usesym 2-fastsym
   LCORR  =      T    Harris-Foulkes like correction to forces

   POTIM  = 0.2000    time-step for ionic-motion
   TEIN   =    0.0    initial temperature
   TEBEG  =    0.0;   TEEND  =   0.0 temperature during run
   SMASS  =  -3.00    Nose mass-parameter (am)
   estimated Nose-frequenzy (Omega)   =  0.10E-29 period in steps =****** mass=  -0.156E-26a.u.
   SCALEE = 1.0000    scale energy and forces
   NPACO  =    256;   APACO  = 16.0  distance and # of slots for P.C.
   PSTRESS=    0.0 pullay stress

  Mass of Ions in am
   POMASS =  26.98 54.94
  Ionic Valenz
   ZVAL   =   3.00  7.00
  Atomic Wigner-Seitz radii
   RWIGS  =  -1.00 -1.00
  virtual crystal weights 
   VCA    =   1.00  1.00
   NELECT =     270.0000    total number of electrons
   NUPDOWN=      -1.0000    fix difference up-down

 DOS related values:
   EMIN   =  10.00;   EMAX   =-10.00  energy-range for DOS
   EFERMI =   0.00
   ISMEAR =     1;   SIGMA  =   0.20  broadening in eV -4-tet -1-fermi 0-gaus

 Electronic relaxation 2 (details)
   IALGO  =     58    algorithm
   LDIAG  =      T    sub-space diagonalisation (order eigenvalues)
   LSUBROT=      F    optimize rotation matrix (better conditioning)
   TURBO    =      0    0=normal 1=particle mesh
   IRESTART =      0    0=no restart 2=restart with 2 vectors
   NREBOOT  =      0    no. of reboots
   NMIN     =      0    reboot dimension
   EREF     =   0.00    reference energy to select bands
   IMIX   =      4    mixing-type and parameters
     AMIX     =   0.40;   BMIX     =  1.00
     AMIX_MAG =   1.60;   BMIX_MAG =  1.00
     AMIN     =   0.10
     WC   =   100.;   INIMIX=   1;  MIXPRE=   1;  MAXMIX= -45

 Intra band minimization:
   WEIMIN = 0.0000     energy-eigenvalue tresh-hold
   EBREAK =  0.14E-09  absolut break condition
   DEPER  =   0.30     relativ break condition  

   TIME   =   0.40     timestep for ELM

  volume/ion in A,a.u.               =      13.15        88.72
  Fermi-wavevector in a.u.,A,eV,Ry     =   1.186118  2.241439 19.141722  1.406877
  Thomas-Fermi vector in A             =   2.322298
 
 Write flags
   LWAVE        =      F    write WAVECAR
   LDOWNSAMPLE  =      F    k-point downsampling of WAVECAR
   LCHARG       =      F    write CHGCAR
   LVTOT        =      F    write LOCPOT, total local potential
   LVHAR        =      F    write LOCPOT, Hartree potential only
   LELF         =      F    write electronic localiz. function (ELF)
   LORBIT       =     10    0 simple, 1 ext, 2 COOP (PROOUT), +10 PAW based schemes


 Dipole corrections
   LMONO  =      F    monopole corrections only (constant potential shift)
   LDIPOL =      F    correct potential (dipole corrections)
   IDIPOL =      0    1-x, 2-y, 3-z, 4-all directions 
   EPSILON=  1.0000000 bulk dielectric constant

 Exchange correlation treatment:
   GGA     =    --    GGA type
   LEXCH   =     8    internal setting for exchange type
   VOSKOWN=      0    Vosko Wilk Nusair interpolation
   LHFCALC =     F    Hartree Fock is set to
   LHFONE  =     F    Hartree Fock one center treatment
   AEXX    =    0.0000 exact exchange contribution

 Linear response parameters
   LEPSILON=     F    determine dielectric tensor
   LRPA    =     F    only Hartree local field effects (RPA)
   LNABLA  =     F    use nabla operator in PAW spheres
   LVEL    =     F    velocity operator in full k-point grid
   LINTERFAST=   F  fast interpolation
   KINTER  =     0    interpolate to denser k-point grid
   CSHIFT  =0.1000    complex shift for real part using Kramers Kronig
   OMEGAMAX=  -1.0    maximum frequency
   DEG_THRESHOLD= 0.2000000E-02 threshold for treating states as degnerate
   RTIME   =   -0.100 relaxation time in fs
  (WPLASMAI=    0.000 imaginary part of plasma frequency in eV, 0.658/RTIME)
   DFIELD  = 0.0000000 0.0000000 0.0000000 field for delta impulse in time
 
 Orbital magnetization related:
   ORBITALMAG=     F  switch on orbital magnetization
   LCHIMAG   =     F  perturbation theory with respect to B field
   DQ        =  0.001000  dq finite difference perturbation B field
   LLRAUG    =     F  two centre corrections for induced B field



--------------------------------------------------------------------------------------------------------


 Static calculation
 charge density and potential will be updated during run
 spin polarized calculation
 Conjugate gradient for all bands (Freysoldt, et al. PRB 79, 241103 (2009))
 preconditioned conjugated gradient                                        
 perform sub-space diagonalisation
    before iterative eigenvector-optimisation
 modified Broyden-mixing scheme, WC =      100.0
 initial mixing is a Kerker type mixing with AMIX =  0.4000 and BMIX =      1.0000
 Hartree-type preconditioning will be used
 using additional bands           39
 reciprocal scheme for non local part
 use partial core corrections
 no Harris-corrections to forces 
 use gradient corrections 
 use of overlap-Matrix (Vanderbilt PP)
 Methfessel and Paxton  Order N= 1 SIGMA  =   0.20


--------------------------------------------------------------------------------------------------------


  energy-cutoff  :      404.80
  volume of cell :      709.91
      direct lattice vectors                 reciprocal lattice vectors
     8.250148166  0.000000000  0.000000000     0.121209944  0.000000000  0.000000000
     0.000000000  8.250148166  0.000000000     0.000000000  0.121209944  0.000000000
     0.000000000  0.000000000 10.429911392     0.000000000  0.000000000  0.095878092

  length of vectors
     8.250148166  8.250148166 10.429911392     0.121209944  0.121209944  0.095878092


 
 k-points in units of 2pi/SCALE and weight: automatic KPOINTS                       
   0.00000000  0.00000000  0.00000000       0.010
   0.02424199  0.00000000  0.00000000       0.020
   0.04848398  0.00000000  0.00000000       0.020
   0.00000000  0.02424199  0.00000000       0.020
   0.02424199  0.02424199  0.00000000       0.040
   0.04848398  0.02424199  0.00000000       0.040
   0.00000000  0.04848398  0.00000000       0.020
   0.02424199  0.04848398  0.00000000       0.040
   0.04848398  0.04848398  0.00000000       0.040
   0.00000000  0.00000000  0.02396952       0.020
   0.02424199  0.00000000  0.02396952       0.040
   0.04848398  0.00000000  0.02396952       0.040
   0.00000000  0.02424199  0.02396952       0.020
   0.02424199  0.02424199  0.02396952       0.040
   0.04848398  0.02424199  0.02396952       0.040
   0.00000000  0.04848398  0.02396952       0.020
   0.02424199  0.04848398  0.02396952       0.040
   0.04848398  0.04848398  0.02396952       0.040
   0.00000000 -0.04848398  0.02396952       0.020
   0.02424199 -0.04848398  0.02396952       0.040
   0.04848398 -0.04848398  0.02396952       0.040
   0.00000000 -0.02424199  0.02396952       0.020
   0.02424199 -0.02424199  0.02396952       0.040
   0.04848398 -0.02424199  0.02396952       0.040
   0.00000000  0.00000000  0.04793905       0.010
   0.02424199  0.00000000  0.04793905       0.020
   0.04848398  0.00000000  0.04793905       0.020
   0.00000000  0.02424199  0.04793905       0.020
   0.02424199  0.02424199  0.04793905       0.040
   0.04848398  0.02424199  0.04793905       0.040
   0.00000000  0.04848398  0.04793905       0.020
   0.02424199  0.04848398  0.04793905       0.040
   0.04848398  0.04848398  0.04793905       0.040
 
 k-points in reciprocal lattice and weights: automatic KPOINTS                       
   0.00000000  0.00000000  0.00000000       0.010
   0.20000000  0.00000000  0.00000000       0.020
   0.40000000  0.00000000  0.00000000       0.020
   0.00000000  0.20000000  0.00000000       0.020
   0.20000000  0.20000000  0.00000000       0.040
   0.40000000  0.20000000  0.00000000       0.040
   0.00000000  0.40000000  0.00000000       0.020
   0.20000000  0.40000000  0.00000000       0.040
   0.40000000  0.40000000  0.00000000       0.040
   0.00000000  0.00000000  0.25000000       0.020
   0.20000000  0.00000000  0.25000000       0.040
   0.40000000  0.00000000  0.25000000       0.040
   0.00000000  0.20000000  0.25000000       0.020
   0.20000000  0.20000000  0.25000000       0.040
   0.40000000  0.20000000  0.25000000       0.040
   0.00000000  0.40000000  0.25000000       0.020
   0.20000000  0.40000000  0.25000000       0.040
   0.40000000  0.40000000  0.25000000       0.040
   0.00000000 -0.40000000  0.25000000       0.020
   0.20000000 -0.40000000  0.25000000       0.040
   0.40000000 -0.40000000  0.25000000       0.040
   0.00000000 -0.20000000  0.25000000       0.020
   0.20000000 -0.20000000  0.25000000       0.040
   0.40000000 -0.20000000  0.25000000       0.040
   0.00000000  0.00000000  0.50000000       0.010
   0.20000000  0.00000000  0.50000000       0.020
   0.40000000  0.00000000  0.50000000       0.020
   0.00000000  0.20000000  0.50000000       0.020
   0.20000000  0.20000000  0.50000000       0.040
   0.40000000  0.20000000  0.50000000       0.040
   0.00000000  0.40000000  0.50000000       0.020
   0.20000000  0.40000000  0.50000000       0.040
   0.40000000  0.40000000  0.50000000       0.040
 
 position of ions in fractional coordinates (direct lattice) 
   0.00000000  0.00000000  0.00000000
   0.00000000  0.00000000  0.33333333
   0.00000000  0.00000000  0.66666667
   0.00000000  0.33333333  0.00000000
   0.00000000  0.33333333  0.33333333
   0.00000000  0.33333333  0.66666667
   0.00000000  0.66666667  0.00000000
   0.00000000  0.66666667  0.33333333
   0.00000000  0.66666667  0.66666667
   0.33333333  0.00000000  0.00000000
   0.33333333  0.00000000  0.33333333
   0.33333333  0.00000000  0.66666667
   0.33333333  0.33333333  0.00000000
   0.33333333  0.33333333  0.33333333
   0.33333333  0.33333333  0.66666667
   0.33333333  0.66666667  0.00000000
   0.33333333  0.66666667  0.33333333
   0.33333333  0.66666667  0.66666667
   0.66666667  0.00000000  0.00000000
   0.66666667  0.00000000  0.33333333
   0.66666667  0.00000000  0.66666667
   0.66666667  0.33333333  0.00000000
   0.66666667  0.33333333  0.33333333
   0.66666667  0.33333333  0.66666667
   0.66666667  0.66666667  0.00000000
   0.66666667  0.66666667  0.33333333
   0.66666667  0.66666667  0.66666667
   0.16666667  0.16666667  0.16666667
   0.16666667  0.16666667  0.50000000
   0.16666667  0.16666667  0.83333333
   0.16666667  0.50000000  0.16666667
   0.16666667  0.50000000  0.50000000
   0.16666667  0.50000000  0.83333333
   0.16666667  0.83333333  0.16666667
   0.16666667  0.83333333  0.50000000
   0.16666667  0.83333333  0.83333333
   0.50000000  0.16666667  0.16666667
   0.50000000  0.16666667  0.50000000
   0.50000000  0.16666667  0.83333333
   0.50000000  0.50000000  0.16666667
   0.50000000  0.50000000  0.50000000
   0.50000000  0.50000000  0.83333333
   0.50000000  0.83333333  0.16666667
   0.50000000  0.83333333  0.50000000
   0.50000000  0.83333333  0.83333333
   0.83333333  0.16666667  0.16666667
   0.83333333  0.16666667  0.50000000
   0.83333333  0.16666667  0.83333333
   0.83333333  0.50000000  0.16666667
   0.83333333  0.50000000  0.50000000
   0.83333333  0.50000000  0.83333333
   0.83333333  0.83333333  0.16666667
   0.83333333  0.83333333  0.50000000
   0.83333333  0.83333333  0.83333333
 
 position of ions in cartesian coordinates  (Angst):
   0.00000000  0.00000000  0.00000000
   0.00000000  0.00000000  3.47663713
   0.00000000  0.00000000  6.95327426
   0.00000000  2.75004939  0.00000000
   0.00000000  2.75004939  3.47663713
   0.00000000  2.75004939  6.95327426
   0.00000000  5.50009878  0.00000000
   0.00000000  5.50009878  3.47663713
   0.00000000  5.50009878  6.95327426
   2.75004939  0.00000000  0.00000000
   2.75004939  0.00000000  3.47663713
   2.75004939  0.00000000  6.95327426
   2.75004939  2.75004939  0.00000000
   2.75004939  2.75004939  3.47663713
   2.75004939  2.75004939  6.95327426
   2.75004939  5.50009878  0.00000000
   2.75004939  5.50009878  3.47663713
   2.75004939  5.50009878  6.95327426
   5.50009878  0.00000000  0.00000000
   5.50009878  0.00000000  3.47663713
   5.50009878  0.00000000  6.95327426
   5.50009878  2.75004939  0.00000000
   5.50009878  2.75004939  3.47663713
   5.50009878  2.75004939  6.95327426
   5.50009878  5.50009878  0.00000000
   5.50009878  5.50009878  3.47663713
   5.50009878  5.50009878  6.95327426
   1.37502469  1.37502469  1.73831857
   1.37502469  1.37502469  5.21495570
   1.37502469  1.37502469  8.69159283
   1.37502469  4.12507408  1.73831857
   1.37502469  4.12507408  5.21495570
   1.37502469  4.12507408  8.69159283
   1.37502469  6.87512347  1.73831857
   1.37502469  6.87512347  5.21495570
   1.37502469  6.87512347  8.69159283
   4.12507408  1.37502469  1.73831857
   4.12507408  1.37502469  5.21495570
   4.12507408  1.37502469  8.69159283
   4.12507408  4.12507408  1.73831857
   4.12507408  4.12507408  5.21495570
   4.12507408  4.12507408  8.69159283
   4.12507408  6.87512347  1.73831857
   4.12507408  6.87512347  5.21495570
   4.12507408  6.87512347  8.69159283
   6.87512347  1.37502469  1.73831857
   6.87512347  1.37502469  5.21495570
   6.87512347  1.37502469  8.69159283
   6.87512347  4.12507408  1.73831857
   6.87512347  4.12507408  5.21495570
   6.87512347  4.12507408  8.69159283
   6.87512347  6.87512347  1.73831857
   6.87512347  6.87512347  5.21495570
   6.87512347  6.87512347  8.69159283
 


--------------------------------------------------------------------------------------------------------


 k-point  1 :   0.0000 0.0000 0.0000  plane waves:   13099
 k-point  2 :   0.2000 0.0000 0.0000  plane waves:   13101
 k-point  3 :   0.4000 0.0000 0.0000  plane waves:   13111
 k-point  4 :   0.0000 0.2000 0.0000  plane waves:   13101
 k-point  5 :   0.2000 0.2000 0.0000  plane waves:   13137
 k-point  6 :   0.4000 0.2000 0.0000  plane waves:   13119
 k-point  7 :   0.0000 0.4000 0.0000  plane waves:   13111
 k-point  8 :   0.2000 0.4000 0.0000  plane waves:   13119
 k-point  9 :   0.4000 0.4000 0.0000  plane waves:   13129
 k-point 10 :   0.0000 0.0000 0.2500  plane waves:   13134
 k-point 11 :   0.2000 0.0000 0.2500  plane waves:   13149
 k-point 12 :   0.4000 0.0000 0.2500  plane waves:   13119
 k-point 13 :   0.0000 0.2000 0.2500  plane waves:   13149
 k-point 14 :   0.2000 0.2000 0.2500  plane waves:   13145
 k-point 15 :   0.4000 0.2000 0.2500  plane waves:   13134
 k-point 16 :   0.0000 0.4000 0.2500  plane waves:   13119
 k-point 17 :   0.2000 0.4000 0.2500  plane waves:   13134
 k-point 18 :   0.4000 0.4000 0.2500  plane waves:   13108
 k-point 19 :   0.0000-0.4000 0.2500  plane waves:   13119
 k-point 20 :   0.2000-0.4000 0.2500  plane waves:   13134
 k-point 21 :   0.4000-0.4000 0.2500  plane waves:   13108
 k-point 22 :   0.0000-0.2000 0.2500  plane waves:   13149
 k-point 23 :   0.2000-0.2000 0.2500  plane waves:   13145
 k-point 24 :   0.4000-0.2000 0.2500  plane waves:   13134
 k-point 25 :   0.0000 0.0000 0.5000  plane waves:   13186
 k-point 26 :   0.2000 0.0000 0.5000  plane waves:   13124
 k-point 27 :   0.4000 0.0000 0.5000  plane waves:   13152
 k-point 28 :   0.0000 0.2000 0.5000  plane waves:   13124
 k-point 29 :   0.2000 0.2000 0.5000  plane waves:   13136
 k-point 30 :   0.4000 0.2000 0.5000  plane waves:   13128
 k-point 31 :   0.0000 0.4000 0.5000  plane waves:   13152
 k-point 32 :   0.2000 0.4000 0.5000  plane waves:   13128
 k-point 33 :   0.4000 0.4000 0.5000  plane waves:   13112

 maximum and minimum number of plane-waves per node :      3313     3254

 maximum number of plane-waves:     13186
 maximum index in each direction: 
   IXMAX=   13   IYMAX=   13   IZMAX=   17
   IXMIN=  -13   IYMIN=  -13   IZMIN=  -17


 parallel 3D FFT for wavefunctions:
    minimum data exchange during FFTs selected (reduces bandwidth)
 parallel 3D FFT for charge:
    minimum data exchange during FFTs selected (reduces bandwidth)


 total amount of memory used by VASP MPI-rank0  1077308. kBytes
=======================================================================

   base      :      30000. kBytes
   nonl-proj :      34214. kBytes
   fftplans  :      31580. kBytes
   grid      :      21385. kBytes
   one-center:        435. kBytes
   wavefun   :     959694. kBytes
 
     INWAV:  cpu time    0.0000: real time    0.0000
 Broyden mixing: mesh for mixing (old mesh)
   NGX = 27   NGY = 27   NGZ = 35
  (NGX  =108   NGY  =108   NGZ  =140)
  gives a total of  25515 points

 initial charge density was supplied:
 charge density of overlapping atoms calculated
 number of electron     270.0000000 magnetization      21.0000000
 keeping initial charge density in first step


--------------------------------------------------------------------------------------------------------


 Maximum index for augmentation-charges        10967 (set IRDMAX)


--------------------------------------------------------------------------------------------------------


 First call to EWALD:  gamma=   0.199
 Maximum number of real-space cells 3x 3x 2
 Maximum number of reciprocal cells 3x 3x 3

    FEWALD:  cpu time    0.0025: real time    0.0025


--------------------------------------- Iteration      1(   1)  ---------------------------------------


    POTLOK:  cpu time    0.3969: real time    0.3971
    SETDIJ:  cpu time    0.4761: real time    0.4761
    TRIAL :  cpu time   39.6438: real time   40.5940
    CORREC:  cpu time    0.0069: real time    0.0078
    --------------------------------------------
      LOOP:  cpu time   40.8505: real time   41.8076

 eigenvalue-minimisations  : 22968
 total energy-change (2. order) : 0.2035763E+04  (-0.8882024E+04)
 number of electron     270.0000000 magnetization      21.0000000
 augmentation part      270.0000000 magnetization      21.0000000

 Free energy of the ion-electron system (eV)
  ---------------------------------------------------
  alpha Z        PSCENC =       798.38614055
  Ewald energy   TEWEN  =    -12901.57693327
  -Hartree energ DENC   =     -2855.60785864
  -exchange      EXHF   =         0.00000000
  -V(xc)+E(xc)   XCENC  =      -996.22957871
  PAW double counting   =     12741.82587617   -11476.22345381
  entropy T*S    EENTRO =         0.00131556
  eigenvalues    EBANDS =      4027.51362942
  atomic energy  EATOM  =     12697.67401269
  ---------------------------------------------------
  free energy    TOTEN  =      2035.76314995 eV

  energy without entropy =     2035.76183439  energy(sigma->0) =     2035.76271143


--------------------------------------------------------------------------------------------------------




--------------------------------------- Iteration      1(   2)  ---------------------------------------


    TRIAL :  cpu time   39.6569: real time   40.1526
    CORREC:  cpu time    0.0087: real time    0.0096
    --------------------------------------------
      LOOP:  cpu time   39.6857: real time   40.1841

 eigenvalue-minimisations  : 22968
 total energy-change (2. order) :-0.2131228E+04  (-0.2073178E+04)
 number of electron     270.0000000 magnetization      21.0000000
 augmentation part      270.0000000 magnetization      21.0000000

 Free energy of the ion-electron system (eV)
  ---------------------------------------------------
  alpha Z        PSCENC =       798.38614055
  Ewald energy   TEWEN  =    -12901.57693327
  -Hartree energ DENC   =     -2855.60785864
  -exchange      EXHF   =         0.00000000
  -V(xc)+E(xc)   XCENC  =      -996.22957871
  PAW double counting   =     12741.82587617   -11476.22345381
  entropy T*S    EENTRO =         0.00055068
  eigenvalues    EBANDS =      1896.28603240
  atomic energy  EATOM  =     12697.67401269
  ---------------------------------------------------
  free energy    TOTEN  =       -95.46521195 eV

  energy without entropy =      -95.46576263  energy(sigma->0) =      -95.46539551


--------------------------------------------------------------------------------------------------------




--------------------------------------- Iteration      1(   3)  ---------------------------------------


    TRIAL :  cpu time   54.4943: real time   55.7013
    CORREC:  cpu time    0.0097: real time    0.0106
    --------------------------------------------
      LOOP:  cpu time   54.5049: real time   55.7154

 eigenvalue-minimisations  : 34494
 total energy-change (2. order) :-0.2610821E+03  (-0.2300215E+03)
 number of electron     270.0000000 magnetization      21.0000000
 augmentation part      270.0000000 magnetization      21.0000000

 Free energy of the ion-electron system (eV)
  ---------------------------------------------------
  alpha Z        PSCENC =       798.38614055
  Ewald energy   TEWEN  =    -12901.57693327
  -Hartree energ DENC   =     -2855.60785864
  -exchange      EXHF   =         0.00000000
  -V(xc)+E(xc)   XCENC  =      -996.22957871
  PAW double counting   =     12741.82587617   -11476.22345381
  entropy T*S    EENTRO =         0.00782029
  eigenvalues    EBANDS =      1635.19666522
  atomic energy  EATOM  =     12697.67401269
  ---------------------------------------------------
  free energy    TOTEN  =      -356.54730953 eV

  energy without entropy =     -356.55512981  energy(sigma->0) =     -356.54991629


--------------------------------------------------------------------------------------------------------




--------------------------------------- Iteration      1(   4)  ---------------------------------------


    TRIAL :  cpu time   58.1207: real time   59.3588
    CORREC:  cpu time    0.0105: real time    0.0105
    --------------------------------------------
      LOOP:  cpu time   58.1322: real time   59.3726

 eigenvalue-minimisations  : 37352
 total energy-change (2. order) :-0.4291263E+02  (-0.3755966E+02)
 number of electron     270.0000000 magnetization      21.0000000
 augmentation part      270.0000000 magnetization      21.0000000

 Free energy of the ion-electron system (eV)
  ---------------------------------------------------
  alpha Z        PSCENC =       798.38614055
  Ewald energy   TEWEN  =    -12901.57693327
  -Hartree energ DENC   =     -2855.60785864
  -exchange      EXHF   =         0.00000000
  -V(xc)+E(xc)   XCENC  =      -996.22957871
  PAW double counting   =     12741.82587617   -11476.22345381
  entropy T*S    EENTRO =         0.02021016
  eigenvalues    EBANDS =      1592.27164203
  atomic energy  EATOM  =     12697.67401269
  ---------------------------------------------------
  free energy    TOTEN  =      -399.45994284 eV

  energy without entropy =     -399.48015301  energy(sigma->0) =     -399.46667956


--------------------------------------------------------------------------------------------------------




--------------------------------------- Iteration      1(   5)  ---------------------------------------


    TRIAL :  cpu time   58.5881: real time   59.8159
    CORREC:  cpu time    0.0108: real time    0.0116
    --------------------------------------------
      LOOP:  cpu time   58.6005: real time   59.8314

 eigenvalue-minimisations  : 37912
 total energy-change (2. order) :-0.4375296E+01  (-0.4177787E+01)
 number of electron     270.0000000 magnetization      21.0000000
 augmentation part      270.0000000 magnetization      21.0000000

 Free energy of the ion-electron system (eV)
  ---------------------------------------------------
  alpha Z        PSCENC =       798.38614055
  Ewald energy   TEWEN  =    -12901.57693327
  -Hartree energ DENC   =     -2855.60785864
  -exchange      EXHF   =         0.00000000
  -V(xc)+E(xc)   XCENC  =      -996.22957871
  PAW double counting   =     12741.82587617   -11476.22345381
  entropy T*S    EENTRO =         0.02065308
  eigenvalues    EBANDS =      1587.89590339
  atomic energy  EATOM  =     12697.67401269
  ---------------------------------------------------
  free energy    TOTEN  =      -403.83523856 eV

  energy without entropy =     -403.85589164  energy(sigma->0) =     -403.84212292


--------------------------------------------------------------------------------------------------------




--------------------------------------- Iteration      1(   6)  ---------------------------------------


    TRIAL :  cpu time   58.7757: real time   59.9868
    CORREC:  cpu time    0.0107: real time    0.0116
    --------------------------------------------
      LOOP:  cpu time   58.7878: real time   60.0023

 eigenvalue-minimisations  : 37848
 total energy-change (2. order) :-0.3671228E+00  (-0.3596676E+00)
 number of electron     270.0000000 magnetization      21.0000000
 augmentation part      270.0000000 magnetization      21.0000000

 Free energy of the ion-electron system (eV)
  ---------------------------------------------------
  alpha Z        PSCENC =       798.38614055
  Ewald energy   TEWEN  =    -12901.57693327
  -Hartree energ DENC   =     -2855.60785864
  -exchange      EXHF   =         0.00000000
  -V(xc)+E(xc)   XCENC  =      -996.22957871
  PAW double counting   =     12741.82587617   -11476.22345381
  entropy T*S    EENTRO =         0.02157840
  eigenvalues    EBANDS =      1587.52785530
  atomic energy  EATOM  =     12697.67401269
  ---------------------------------------------------
  free energy    TOTEN  =      -404.20236133 eV

  energy without entropy =     -404.22393973  energy(sigma->0) =     -404.20955413


--------------------------------------------------------------------------------------------------------




--------------------------------------- Iteration      1(   7)  ---------------------------------------


    TRIAL :  cpu time   59.4207: real time   60.7302
    CORREC:  cpu time    0.0107: real time    0.0116
    --------------------------------------------
      LOOP:  cpu time   59.4328: real time   60.7459

 eigenvalue-minimisations  : 38416
 total energy-change (2. order) :-0.3884922E-01  (-0.3849230E-01)
 number of electron     270.0000000 magnetization      21.0000000
 augmentation part      270.0000000 magnetization      21.0000000

 Free energy of the ion-electron system (eV)
  ---------------------------------------------------
  alpha Z        PSCENC =       798.38614055
  Ewald energy   TEWEN  =    -12901.57693327
  -Hartree energ DENC   =     -2855.60785864
  -exchange      EXHF   =         0.00000000
  -V(xc)+E(xc)   XCENC  =      -996.22957871
  PAW double counting   =     12741.82587617   -11476.22345381
  entropy T*S    EENTRO =         0.02180974
  eigenvalues    EBANDS =      1587.48877474
  atomic energy  EATOM  =     12697.67401269
  ---------------------------------------------------
  free energy    TOTEN  =      -404.24121055 eV

  energy without entropy =     -404.26302029  energy(sigma->0) =     -404.24848046


--------------------------------------------------------------------------------------------------------




--------------------------------------- Iteration      1(   8)  ---------------------------------------


    TRIAL :  cpu time   58.1327: real time   59.3276
    CORREC:  cpu time    0.0112: real time    0.0120
    CHARGE:  cpu time    1.7981: real time    1.8457
    --------------------------------------------
      LOOP:  cpu time   59.9633: real time   61.2096

 eigenvalue-minimisations  : 37208
 total energy-change (2. order) :-0.3098654E-02  (-0.3081617E-02)
 number of electron     269.9999995 magnetization      15.0862700
 augmentation part       64.1427078 magnetization       8.6877078

 Free energy of the ion-electron system (eV)
  ---------------------------------------------------
  alpha Z        PSCENC =       798.38614055
  Ewald energy   TEWEN  =    -12901.57693327
  -Hartree energ DENC   =     -2855.60785864
  -exchange      EXHF   =         0.00000000
  -V(xc)+E(xc)   XCENC  =      -996.22957871
  PAW double counting   =     12741.82587617   -11476.22345381
  entropy T*S    EENTRO =         0.02186207
  eigenvalues    EBANDS =      1587.48562376
  atomic energy  EATOM  =     12697.67401269
  ---------------------------------------------------
  free energy    TOTEN  =      -404.24430920 eV

  energy without entropy =     -404.26617127  energy(sigma->0) =     -404.25159656


--------------------------------------------------------------------------------------------------------




--------------------------------------- Iteration      1(   9)  ---------------------------------------


    POTLOK:  cpu time    0.3987: real time    0.3987
    SETDIJ:  cpu time    0.4598: real time    0.4598
    TRIAL :  cpu time   20.0947: real time   20.8426
    CORREC:  cpu time    6.0384: real time    6.2078
    CHARGE:  cpu time    1.8230: real time    1.8249
    --------------------------------------------
      LOOP:  cpu time   28.8207: real time   29.7410

 eigenvalue-minimisations  :     0
 total energy-change (2. order) : 0.3021683E+03  (-0.2162227E+03)
 number of electron     269.9999993 magnetization      15.7492951
 augmentation part       82.1907079 magnetization      10.3082381

 Free energy of the ion-electron system (eV)
  ---------------------------------------------------
  alpha Z        PSCENC =       798.38614055
  Ewald energy   TEWEN  =    -12901.57693327
  -Hartree energ DENC   =     -1271.46424369
  -exchange      EXHF   =         0.00000000
  -V(xc)+E(xc)   XCENC  =     -1041.59581414
  PAW double counting   =     19164.80644859   -17745.17393433
  entropy T*S    EENTRO =         0.02540384
  eigenvalues    EBANDS =       196.84645871
  atomic energy  EATOM  =     12697.67401269
  ---------------------------------------------------
  free energy    TOTEN  =      -102.07600283 eV

  energy without entropy =     -102.10140667  energy(sigma->0) =     -102.08447078


--------------------------------------------------------------------------------------------------------




--------------------------------------- Iteration      1(  10)  ---------------------------------------


    POTLOK:  cpu time    0.4204: real time    0.4363
    SETDIJ:  cpu time    0.4531: real time    0.4533
    TRIAL :  cpu time   20.1849: real time   20.3277
    CORREC:  cpu time    6.1088: real time    6.1637
    CHARGE:  cpu time    1.8053: real time    1.8230
    --------------------------------------------
      LOOP:  cpu time   28.9747: real time   29.2063

 eigenvalue-minimisations  :     0
 total energy-change (2. order) :-0.2146094E+03  (-0.1332944E+02)
 number of electron     269.9999993 magnetization      16.1132198
 augmentation part       86.5382431 magnetization      10.8726024

 Free energy of the ion-electron system (eV)
  ---------------------------------------------------
  alpha Z        PSCENC =       798.38614055
  Ewald energy   TEWEN  =    -12901.57693327
  -Hartree energ DENC   =     -2091.82249929
  -exchange      EXHF   =         0.00000000
  -V(xc)+E(xc)   XCENC  =     -1012.99053666
  PAW double counting   =     20587.32208986   -19345.86258260
  entropy T*S    EENTRO =         0.01972474
  eigenvalues    EBANDS =       952.15952703
  atomic energy  EATOM  =     12697.67401269
  ---------------------------------------------------
  free energy    TOTEN  =      -316.68537783 eV

  energy without entropy =     -316.70510257  energy(sigma->0) =     -316.69195275


--------------------------------------------------------------------------------------------------------




--------------------------------------- Iteration      1(  11)  ---------------------------------------


    POTLOK:  cpu time    0.3906: real time    0.4243
    SETDIJ:  cpu time    0.4489: real time    0.4493
    TRIAL :  cpu time   20.1021: real time   20.1783
    CORREC:  cpu time    6.2410: real time    6.9932
    CHARGE:  cpu time    1.8145: real time    1.8798
    --------------------------------------------
      LOOP:  cpu time   29.0011: real time   29.9293

 eigenvalue-minimisations  :     0
 total energy-change (2. order) :-0.1288429E+02  (-0.1050989E+02)
 number of electron     269.9999993 magnetization      16.3617623
 augmentation part       88.7726112 magnetization      11.1991619

 Free energy of the ion-electron system (eV)
  ---------------------------------------------------
  alpha Z        PSCENC =       798.38614055
  Ewald energy   TEWEN  =    -12901.57693327
  -Hartree energ DENC   =     -2346.08406510
  -exchange      EXHF   =         0.00000000
  -V(xc)+E(xc)   XCENC  =     -1003.74709476
  PAW double counting   =     21603.07514143   -20405.44236169
  entropy T*S    EENTRO =         0.00583724
  eigenvalues    EBANDS =      1228.12576836
  atomic energy  EATOM  =     12697.67401269
  ---------------------------------------------------
  free energy    TOTEN  =      -329.56966705 eV

  energy without entropy =     -329.57550429  energy(sigma->0) =     -329.57161279


--------------------------------------------------------------------------------------------------------




--------------------------------------- Iteration      1(  12)  ---------------------------------------


    POTLOK:  cpu time    0.4198: real time    0.4197
    SETDIJ:  cpu time    0.4487: real time    0.4494
    TRIAL :  cpu time   20.1562: real time   20.3335
    CORREC:  cpu time    6.0330: real time    6.0453
    CHARGE:  cpu time    1.8150: real time    1.8620
    --------------------------------------------
      LOOP:  cpu time   28.8778: real time   29.1164

 eigenvalue-minimisations  :     0
 total energy-change (2. order) :-0.1067266E+02  (-0.1205625E+02)
 number of electron     269.9999993 magnetization      16.4465965
 augmentation part       87.1267992 magnetization      11.3162987

 Free energy of the ion-electron system (eV)
  ---------------------------------------------------
  alpha Z        PSCENC =       798.38614055
  Ewald energy   TEWEN  =    -12901.57693327
  -Hartree energ DENC   =     -2532.67938434
  -exchange      EXHF   =         0.00000000
  -V(xc)+E(xc)   XCENC  =      -997.49684635
  PAW double counting   =     21795.58220269   -20607.22958213
  entropy T*S    EENTRO =        -0.00609543
  eigenvalues    EBANDS =      1407.09222977
  atomic energy  EATOM  =     12697.67401269
  ---------------------------------------------------
  free energy    TOTEN  =      -340.24232315 eV

  energy without entropy =     -340.23622773  energy(sigma->0) =     -340.24029134


--------------------------------------------------------------------------------------------------------




--------------------------------------- Iteration      1(  13)  ---------------------------------------


    POTLOK:  cpu time    0.3921: real time    0.3921
    SETDIJ:  cpu time    0.4312: real time    0.4751
    TRIAL :  cpu time   19.9717: real time   20.1241
    CORREC:  cpu time    6.2100: real time    6.9637
    CHARGE:  cpu time    1.7351: real time    1.8587
    --------------------------------------------
      LOOP:  cpu time   28.7416: real time   29.8169

 eigenvalue-minimisations  :     0
 total energy-change (2. order) :-0.1192013E+02  (-0.9928780E+00)
 number of electron     269.9999993 magnetization      16.4865679
 augmentation part       86.4801021 magnetization      11.3182202

 Free energy of the ion-electron system (eV)
  ---------------------------------------------------
  alpha Z        PSCENC =       798.38614055
  Ewald energy   TEWEN  =    -12901.57693327
  -Hartree energ DENC   =     -2537.97098799
  -exchange      EXHF   =         0.00000000
  -V(xc)+E(xc)   XCENC  =      -998.14293866
  PAW double counting   =     21276.37116016   -20042.66526934
  entropy T*S    EENTRO =        -0.01164601
  eigenvalues    EBANDS =      1355.76845702
  atomic energy  EATOM  =     12697.67401269
  ---------------------------------------------------
  free energy    TOTEN  =      -352.16245427 eV

  energy without entropy =     -352.15080826  energy(sigma->0) =     -352.15857226


--------------------------------------------------------------------------------------------------------




--------------------------------------- Iteration      1(  14)  ---------------------------------------


    POTLOK:  cpu time    0.4306: real time    0.4306
    SETDIJ:  cpu time    0.4507: real time    0.4514
    TRIAL :  cpu time   20.1518: real time   20.3404
    CORREC:  cpu time    6.0472: real time    6.0592
    CHARGE:  cpu time    1.7559: real time    1.8397
    --------------------------------------------
      LOOP:  cpu time   28.8376: real time   29.1241

 eigenvalue-minimisations  :     0
 total energy-change (2. order) :-0.9535564E+00  (-0.1049472E+01)
 number of electron     269.9999993 magnetization      16.4963939
 augmentation part       85.7863094 magnetization      11.2198548

 Free energy of the ion-electron system (eV)
  ---------------------------------------------------
  alpha Z        PSCENC =       798.38614055
  Ewald energy   TEWEN  =    -12901.57693327
  -Hartree energ DENC   =     -2505.98224464
  -exchange      EXHF   =         0.00000000
  -V(xc)+E(xc)   XCENC  =      -999.32258892
  PAW double counting   =     21009.05697531   -19765.03223013
  entropy T*S    EENTRO =        -0.01246507
  eigenvalues    EBANDS =      1313.69250372
  atomic energy  EATOM  =     12697.67401269
  ---------------------------------------------------
  free energy    TOTEN  =      -353.11601070 eV

  energy without entropy =     -353.10354563  energy(sigma->0) =     -353.11185568


--------------------------------------------------------------------------------------------------------




--------------------------------------- Iteration      1(  15)  ---------------------------------------


    POTLOK:  cpu time    0.3910: real time    0.3913
    SETDIJ:  cpu time    0.5010: real time    0.5065
    TRIAL :  cpu time   20.0533: real time   20.2274
    CORREC:  cpu time    6.8102: real time    6.8481
    CHARGE:  cpu time    1.7638: real time    1.8763
    --------------------------------------------
      LOOP:  cpu time   29.5204: real time   29.8518

 eigenvalue-minimisations  :     0
 total energy-change (2. order) :-0.1046388E+01  (-0.1021740E+01)
 number of electron     269.9999992 magnetization      16.5579992
 augmentation part       86.6397581 magnetization      11.2496258

 Free energy of the ion-electron system (eV)
  ---------------------------------------------------
  alpha Z        PSCENC =       798.38614055
  Ewald energy   TEWEN  =    -12901.57693327
  -Hartree energ DENC   =     -2461.10835104
  -exchange      EXHF   =         0.00000000
  -V(xc)+E(xc)   XCENC  =     -1000.89399469
  PAW double counting   =     20377.60092422   -19121.28342824
  entropy T*S    EENTRO =        -0.01605553
  eigenvalues    EBANDS =      1257.05169614
  atomic energy  EATOM  =     12697.67401269
  ---------------------------------------------------
  free energy    TOTEN  =      -354.16239870 eV

  energy without entropy =     -354.14634318  energy(sigma->0) =     -354.15704686


--------------------------------------------------------------------------------------------------------




--------------------------------------- Iteration      1(  16)  ---------------------------------------


    POTLOK:  cpu time    0.3914: real time    0.3918
    SETDIJ:  cpu time    0.4252: real time    0.5039
    TRIAL :  cpu time   20.1632: real time   20.2561
    CORREC:  cpu time    6.1009: real time    6.1312
    CHARGE:  cpu time    1.8025: real time    1.8025
    --------------------------------------------
      LOOP:  cpu time   28.8986: real time   29.1012

 eigenvalue-minimisations  :     0
 total energy-change (2. order) :-0.1021677E+01  (-0.2272018E+00)
 number of electron     269.9999992 magnetization      16.5536332
 augmentation part       87.0314152 magnetization      11.2825885

 Free energy of the ion-electron system (eV)
  ---------------------------------------------------
  alpha Z        PSCENC =       798.38614055
  Ewald energy   TEWEN  =    -12901.57693327
  -Hartree energ DENC   =     -2489.10727615
  -exchange      EXHF   =         0.00000000
  -V(xc)+E(xc)   XCENC  =      -999.69334160
  PAW double counting   =     19750.85913235   -18499.73769025
  entropy T*S    EENTRO =        -0.01736640
  eigenvalues    EBANDS =      1288.02793505
  atomic energy  EATOM  =     12697.67401269
  ---------------------------------------------------
  free energy    TOTEN  =      -355.18407616 eV

  energy without entropy =     -355.16670976  energy(sigma->0) =     -355.17828736


--------------------------------------------------------------------------------------------------------




--------------------------------------- Iteration      1(  17)  ---------------------------------------


    POTLOK:  cpu time    0.3930: real time    0.3930
    SETDIJ:  cpu time    0.4590: real time    0.4593
    TRIAL :  cpu time   19.9919: real time   20.1659
    CORREC:  cpu time    6.0445: real time    6.7081
    CHARGE:  cpu time    1.7717: real time    1.8664
    --------------------------------------------
      LOOP:  cpu time   28.6677: real time   29.6014

 eigenvalue-minimisations  :     0
 total energy-change (2. order) :-0.2267683E+00  (-0.2251246E+00)
 number of electron     269.9999992 magnetization      16.4965808
 augmentation part       87.2933762 magnetization      11.3319923

 Free energy of the ion-electron system (eV)
  ---------------------------------------------------
  alpha Z        PSCENC =       798.38614055
  Ewald energy   TEWEN  =    -12901.57693327
  -Hartree energ DENC   =     -2505.29019287
  -exchange      EXHF   =         0.00000000
  -V(xc)+E(xc)   XCENC  =      -998.97215268
  PAW double counting   =     19642.96182922   -18395.54713270
  entropy T*S    EENTRO =        -0.01844192
  eigenvalues    EBANDS =      1306.97095099
  atomic energy  EATOM  =     12697.67401269
  ---------------------------------------------------
  free energy    TOTEN  =      -355.41084447 eV

  energy without entropy =     -355.39240255  energy(sigma->0) =     -355.40469716


--------------------------------------------------------------------------------------------------------




--------------------------------------- Iteration      1(  18)  ---------------------------------------


    POTLOK:  cpu time    0.4112: real time    0.4114
    SETDIJ:  cpu time    0.4586: real time    0.4587
    TRIAL :  cpu time   20.1849: real time   20.3844
    CORREC:  cpu time    6.0145: real time    6.0799
    CHARGE:  cpu time    1.8259: real time    1.8259
    --------------------------------------------
      LOOP:  cpu time   28.8964: real time   29.1630

 eigenvalue-minimisations  :     0
 total energy-change (2. order) :-0.2250851E+00  (-0.1799491E+00)
 number of electron     269.9999992 magnetization      16.5009913
 augmentation part       87.1897682 magnetization      11.3928978

 Free energy of the ion-electron system (eV)
  ---------------------------------------------------
  alpha Z        PSCENC =       798.38614055
  Ewald energy   TEWEN  =    -12901.57693327
  -Hartree energ DENC   =     -2515.06799573
  -exchange      EXHF   =         0.00000000
  -V(xc)+E(xc)   XCENC  =      -998.34335522
  PAW double counting   =     19563.41441162   -18318.74868362
  entropy T*S    EENTRO =        -0.01954814
  eigenvalues    EBANDS =      1318.64491529
  atomic energy  EATOM  =     12697.67401269
  ---------------------------------------------------
  free energy    TOTEN  =      -355.63592961 eV

  energy without entropy =     -355.61638146  energy(sigma->0) =     -355.62941356


--------------------------------------------------------------------------------------------------------




--------------------------------------- Iteration      1(  19)  ---------------------------------------


    POTLOK:  cpu time    0.3929: real time    0.3928
    SETDIJ:  cpu time    0.4598: real time    0.4598
    TRIAL :  cpu time   20.0922: real time   20.2108
    CORREC:  cpu time    6.0262: real time    6.7601
    CHARGE:  cpu time    1.8049: real time    1.8071
    --------------------------------------------
      LOOP:  cpu time   28.7816: real time   29.6369

 eigenvalue-minimisations  :     0
 total energy-change (2. order) :-0.1793279E+00  (-0.6027442E-01)
 number of electron     269.9999992 magnetization      16.5276940
 augmentation part       86.9727703 magnetization      11.4252599

 Free energy of the ion-electron system (eV)
  ---------------------------------------------------
  alpha Z        PSCENC =       798.38614055
  Ewald energy   TEWEN  =    -12901.57693327
  -Hartree energ DENC   =     -2507.08068007
  -exchange      EXHF   =         0.00000000
  -V(xc)+E(xc)   XCENC  =      -998.34694083
  PAW double counting   =     19505.31526343   -18259.63088542
  entropy T*S    EENTRO =        -0.02029215
  eigenvalues    EBANDS =      1309.46431352
  atomic energy  EATOM  =     12697.67401269
  ---------------------------------------------------
  free energy    TOTEN  =      -355.81525755 eV

  energy without entropy =     -355.79496541  energy(sigma->0) =     -355.80849350


--------------------------------------------------------------------------------------------------------




--------------------------------------- Iteration      1(  20)  ---------------------------------------


    POTLOK:  cpu time    0.4124: real time    0.4131
    SETDIJ:  cpu time    0.4464: real time    0.4473
    TRIAL :  cpu time   20.1951: real time   20.4705
    CORREC:  cpu time    6.0638: real time    6.1415
    CHARGE:  cpu time    1.8070: real time    1.8069
    --------------------------------------------
      LOOP:  cpu time   28.9343: real time   29.2906

 eigenvalue-minimisations  :     0
 total energy-change (2. order) :-0.6013895E-01  (-0.4896142E-01)
 number of electron     269.9999992 magnetization      16.5163577
 augmentation part       86.8150520 magnetization      11.4437564

 Free energy of the ion-electron system (eV)
  ---------------------------------------------------
  alpha Z        PSCENC =       798.38614055
  Ewald energy   TEWEN  =    -12901.57693327
  -Hartree energ DENC   =     -2495.98952182
  -exchange      EXHF   =         0.00000000
  -V(xc)+E(xc)   XCENC  =      -998.63134305
  PAW double counting   =     19483.14662739   -18235.25210191
  entropy T*S    EENTRO =        -0.02020712
  eigenvalues    EBANDS =      1296.38801507
  atomic energy  EATOM  =     12697.67401269
  ---------------------------------------------------
  free energy    TOTEN  =      -355.87539650 eV

  energy without entropy =     -355.85518938  energy(sigma->0) =     -355.86866079


--------------------------------------------------------------------------------------------------------




--------------------------------------- Iteration      1(  21)  ---------------------------------------


    POTLOK:  cpu time    0.3959: real time    0.3959
    SETDIJ:  cpu time    0.4835: real time    0.4835
    TRIAL :  cpu time   20.5821: real time   20.7143
    CORREC:  cpu time    5.9886: real time    6.6902
    CHARGE:  cpu time    1.8071: real time    1.8070
    --------------------------------------------
      LOOP:  cpu time   29.2880: real time   30.1239

 eigenvalue-minimisations  :     0
 total energy-change (2. order) :-0.4885922E-01  (-0.5774857E-01)
 number of electron     269.9999992 magnetization      16.5382597
 augmentation part       86.8127351 magnetization      11.5011684

 Free energy of the ion-electron system (eV)
  ---------------------------------------------------
  alpha Z        PSCENC =       798.38614055
  Ewald energy   TEWEN  =    -12901.57693327
  -Hartree energ DENC   =     -2489.30478654
  -exchange      EXHF   =         0.00000000
  -V(xc)+E(xc)   XCENC  =      -998.77072127
  PAW double counting   =     19475.88391273   -18226.55751845
  entropy T*S    EENTRO =        -0.02198219
  eigenvalues    EBANDS =      1288.36184496
  atomic energy  EATOM  =     12697.67401269
  ---------------------------------------------------
  free energy    TOTEN  =      -355.92425572 eV

  energy without entropy =     -355.90227353  energy(sigma->0) =     -355.91692832


--------------------------------------------------------------------------------------------------------




--------------------------------------- Iteration      1(  22)  ---------------------------------------


    POTLOK:  cpu time    0.3990: real time    0.3990
    SETDIJ:  cpu time    0.4559: real time    0.4562
    TRIAL :  cpu time   20.1640: real time   20.4331
    CORREC:  cpu time    6.0581: real time    6.0865
    CHARGE:  cpu time    1.8147: real time    1.8221
    --------------------------------------------
      LOOP:  cpu time   28.8993: real time   29.2047

 eigenvalue-minimisations  :     0
 total energy-change (2. order) :-0.5772642E-01  (-0.3483716E-01)
 number of electron     269.9999992 magnetization      16.5768852
 augmentation part       86.9317672 magnetization      11.5437867

 Free energy of the ion-electron system (eV)
  ---------------------------------------------------
  alpha Z        PSCENC =       798.38614055
  Ewald energy   TEWEN  =    -12901.57693327
  -Hartree energ DENC   =     -2492.05949417
  -exchange      EXHF   =         0.00000000
  -V(xc)+E(xc)   XCENC  =      -998.54111461
  PAW double counting   =     19491.54905682   -18242.74315768
  entropy T*S    EENTRO =        -0.02167754
  eigenvalues    EBANDS =      1291.35148972
  atomic energy  EATOM  =     12697.67401269
  ---------------------------------------------------
  free energy    TOTEN  =      -355.98198214 eV

  energy without entropy =     -355.96030460  energy(sigma->0) =     -355.97475630


--------------------------------------------------------------------------------------------------------




--------------------------------------- Iteration      1(  23)  ---------------------------------------


    POTLOK:  cpu time    0.3923: real time    0.3922
    SETDIJ:  cpu time    0.4891: real time    0.4891
    TRIAL :  cpu time   20.6595: real time   20.7724
    CORREC:  cpu time    6.0403: real time    6.7548
    CHARGE:  cpu time    1.8053: real time    1.8051
    --------------------------------------------
      LOOP:  cpu time   29.3921: real time   30.2195

 eigenvalue-minimisations  :     0
 total energy-change (2. order) :-0.3485430E-01  (-0.1478043E-01)
 number of electron     269.9999992 magnetization      16.5622599
 augmentation part       86.9873319 magnetization      11.5478958

 Free energy of the ion-electron system (eV)
  ---------------------------------------------------
  alpha Z        PSCENC =       798.38614055
[...]
   45        0.017   0.022   2.375   2.414
   46       -0.021  -0.024  -2.360  -2.405
   47        0.021   0.023   2.427   2.471
   48        0.017   0.022   2.353   2.392
   49       -0.011  -0.013  -2.254  -2.278
   50        0.021   0.019   2.359   2.400
   51        0.019   0.017   2.372   2.408
   52       -0.012  -0.009  -2.267  -2.289
   53        0.010   0.007   2.311   2.328
   54        0.017   0.021   2.371   2.409
--------------------------------------------------
tot         -0.015  -0.095  16.487  16.376
 
    FORLOC:  cpu time    0.0587: real time    0.0587
    FORNL :  cpu time   30.0505: real time   31.1246
    STRESS:  cpu time   41.1692: real time   41.6087
    FORCOR:  cpu time    0.4579: real time    0.4578
    OFIELD:  cpu time    0.0024: real time    0.0024

  FORCE on cell =-STRESS in cart. coord.  units (eV):
  Direction    XX          YY          ZZ          XY          YZ          ZX
  --------------------------------------------------------------------------------------
  Alpha Z   798.38614   798.38614   798.38614
  Ewald   -4053.61603 -4053.61603 -4794.40593    -0.00000    -0.00000    -0.00000
  Hartree  1083.36275  1084.59304   332.86173    -0.00000     0.19322    -0.00000
  E(xc)   -1141.45442 -1141.66026 -1139.91433     0.00000    -0.03654    -0.00000
  Local     370.26891   367.60885  1904.76266     0.00000    -0.62000    -0.00000
  n-local  -168.81246  -168.98224  -175.81320     0.05063    -0.17228    -0.21156
  augment   784.07860   784.84010   768.05215     0.00000     0.22349     0.00001
  Kinetic  2334.36200  2336.36336  2308.64553    -1.01625     0.54084    -1.35124
  Fock        0.00000     0.00000     0.00000     0.00000     0.00000     0.00000
  -------------------------------------------------------------------------------------
  Total       6.57550     7.53297     2.57475     0.00000     0.12874     0.00000
  in kB      14.84004    17.00093     5.81088     0.00000     0.29054     0.00000
  external pressure =       12.55 kB  Pullay stress =        0.00 kB


 VOLUME and BASIS-vectors are now :
 -----------------------------------------------------------------------------
  energy-cutoff  :      404.80
  volume of cell :      709.91
      direct lattice vectors                 reciprocal lattice vectors
     8.250148166  0.000000000  0.000000000     0.121209944  0.000000000  0.000000000
     0.000000000  8.250148166  0.000000000     0.000000000  0.121209944  0.000000000
     0.000000000  0.000000000 10.429911392     0.000000000  0.000000000  0.095878092

  length of vectors
     8.250148166  8.250148166 10.429911392     0.121209944  0.121209944  0.095878092


 FORCES acting on ions:
    Electron-Ion                     Ewald-Force                    Non-Local-Force
 -----------------------------------------------------------------------------------------------
   -.718E-01 -.112E+00 0.356E-01   -.239E-08 -.239E-08 -.210E-08   0.115E+00 0.111E+00 -.257E-01
   -.224E+00 -.277E+00 -.558E-01   -.239E-08 -.239E-08 0.171E-08   0.863E-01 0.911E-01 0.246E-01
   0.225E-01 -.360E-01 -.264E-02   -.239E-08 -.239E-08 0.861E-08   -.377E-01 -.333E-01 0.939E-02
   -.849E-01 0.496E-01 -.559E-01   -.239E-08 -.802E-09 -.210E-08   0.102E+00 -.816E-01 0.666E-02
   -.762E-01 0.106E+00 -.243E-03   -.239E-08 -.802E-09 0.171E-08   0.143E+00 0.275E-02 -.148E-01
   0.897E-01 -.252E-01 -.117E-01   -.239E-08 -.802E-09 0.861E-08   -.696E-01 -.344E-02 0.489E-01
   0.287E-01 0.236E-01 0.841E-01   -.239E-08 0.631E-08 -.210E-08   0.366E-02 -.102E-01 -.264E-01
   -.754E-01 0.153E+00 -.132E+00   -.239E-08 0.631E-08 0.171E-08   0.787E-01 -.738E-01 0.442E-01
   -.376E-01 0.855E-01 0.339E-01   -.239E-08 0.631E-08 0.861E-08   -.109E-01 0.245E-01 -.607E-02
   0.718E-01 -.112E+00 0.356E-01   -.802E-09 -.239E-08 -.210E-08   -.115E+00 0.111E+00 -.257E-01
   0.224E+00 -.277E+00 -.558E-01   -.802E-09 -.239E-08 0.171E-08   -.863E-01 0.911E-01 0.246E-01
   -.225E-01 -.360E-01 -.264E-02   -.803E-09 -.239E-08 0.861E-08   0.377E-01 -.333E-01 0.939E-02
   0.849E-01 0.496E-01 -.559E-01   -.802E-09 -.802E-09 -.210E-08   -.102E+00 -.816E-01 0.666E-02
   0.762E-01 0.106E+00 -.243E-03   -.802E-09 -.802E-09 0.171E-08   -.143E+00 0.275E-02 -.148E-01
   -.897E-01 -.252E-01 -.117E-01   -.803E-09 -.802E-09 0.861E-08   0.696E-01 -.344E-02 0.489E-01
   -.287E-01 0.236E-01 0.841E-01   -.802E-09 0.631E-08 -.210E-08   -.366E-02 -.102E-01 -.264E-01
   0.754E-01 0.153E+00 -.132E+00   -.802E-09 0.631E-08 0.171E-08   -.787E-01 -.738E-01 0.442E-01
   0.376E-01 0.855E-01 0.339E-01   -.803E-09 0.631E-08 0.861E-08   0.109E-01 0.245E-01 -.607E-02
   -.328E-08 0.301E-01 0.130E+00   0.631E-08 -.239E-08 -.210E-08   0.000E+00 -.150E-02 -.629E-01
   -.328E-08 0.239E-01 -.881E-01   0.631E-08 -.239E-08 0.171E-08   0.000E+00 -.173E-01 0.715E-01
   -.328E-08 0.151E-01 0.230E-01   0.631E-08 -.239E-08 0.861E-08   0.000E+00 0.845E-02 -.661E-01
   -.328E-08 -.344E-01 0.174E+00   0.631E-08 -.802E-09 -.210E-08   0.000E+00 0.800E-02 -.644E-01
   -.327E-08 0.128E-02 -.609E-01   0.631E-08 -.802E-09 0.171E-08   0.000E+00 0.647E-02 0.230E-01
   -.327E-08 0.410E-02 0.128E-01   0.631E-08 -.802E-09 0.861E-08   0.000E+00 -.887E-03 -.378E-01
   -.329E-08 0.832E-02 0.113E+00   0.631E-08 0.631E-08 -.210E-08   0.000E+00 -.655E-02 -.238E-01
   -.329E-08 -.300E-01 -.824E-01   0.631E-08 0.631E-08 0.171E-08   0.000E+00 0.177E-01 0.439E-01
   -.328E-08 -.257E-01 0.766E-02   0.631E-08 0.631E-08 0.861E-08   0.000E+00 -.265E-02 -.758E-01
   0.473E-08 0.122E+00 -.296E+00   -.169E-07 -.169E-07 -.180E-07   0.000E+00 -.983E-01 0.462E+00
   0.481E-08 0.549E+00 0.189E+00   -.169E-07 -.169E-07 -.170E-08   0.000E+00 -.277E+00 -.383E+00
   0.483E-08 0.956E-01 0.372E+00   -.169E-07 -.169E-07 0.115E-07   0.000E+00 -.144E-01 -.405E+00
   0.489E-08 0.392E+00 0.205E+00   -.169E-07 0.802E-09 -.180E-07   0.000E+00 -.156E+00 -.293E+00
   0.479E-08 -.551E+00 -.344E+00   -.169E-07 0.802E-09 -.170E-08   0.000E+00 0.258E+00 0.368E+00
   0.487E-08 -.763E-01 0.863E-01   -.169E-07 0.802E-09 0.115E-07   0.000E+00 0.284E-01 -.903E-01
   0.491E-08 -.384E+00 -.354E+00   -.169E-07 0.130E-07 -.180E-07   0.000E+00 0.212E+00 0.417E+00
   0.489E-08 -.108E+00 0.212E+00   -.169E-07 0.130E-07 -.170E-08   0.000E+00 0.611E-01 -.183E+00
   0.484E-08 -.168E-01 -.135E+00   -.169E-07 0.130E-07 0.115E-07   0.000E+00 -.202E-01 0.125E+00
   0.386E+00 0.376E-01 -.127E+00   0.802E-09 -.169E-07 -.180E-07   -.177E+00 -.244E-01 0.116E+00
   0.341E+00 -.122E-01 0.144E+00   0.802E-09 -.169E-07 -.170E-08   -.155E+00 -.590E-03 -.163E+00
   -.415E-01 0.112E-01 -.105E+00   0.802E-09 -.169E-07 0.115E-07   0.567E-01 -.316E-01 0.120E+00
   -.497E-01 -.108E+00 -.964E-01   0.802E-09 0.802E-09 -.180E-07   0.122E+00 0.988E-01 0.116E+00
   0.202E+00 0.674E-02 0.573E-01   0.802E-09 0.802E-09 -.170E-08   -.239E-01 0.330E-01 -.781E-01
   -.524E-01 -.440E-01 -.328E-01   0.802E-09 0.802E-09 0.115E-07   0.246E-01 0.490E-01 0.929E-01
   -.152E+00 0.841E-01 0.391E-01   0.802E-09 0.130E-07 -.180E-07   0.131E+00 -.115E+00 -.371E-01
   -.253E+00 -.105E-01 0.236E-01   0.802E-09 0.130E-07 -.170E-08   0.262E+00 0.180E-02 -.872E-01
   -.110E+00 0.274E-01 0.317E-01   0.802E-09 0.130E-07 0.115E-07   0.141E+00 -.440E-02 0.390E-01
   -.386E+00 0.376E-01 -.127E+00   0.130E-07 -.169E-07 -.180E-07   0.177E+00 -.244E-01 0.116E+00
   -.341E+00 -.122E-01 0.144E+00   0.130E-07 -.169E-07 -.170E-08   0.155E+00 -.590E-03 -.163E+00
   0.415E-01 0.112E-01 -.105E+00   0.130E-07 -.169E-07 0.115E-07   -.567E-01 -.316E-01 0.120E+00
   0.497E-01 -.108E+00 -.964E-01   0.130E-07 0.802E-09 -.180E-07   -.122E+00 0.988E-01 0.116E+00
   -.202E+00 0.674E-02 0.573E-01   0.130E-07 0.802E-09 -.170E-08   0.239E-01 0.330E-01 -.781E-01
   0.524E-01 -.440E-01 -.328E-01   0.130E-07 0.802E-09 0.115E-07   -.246E-01 0.490E-01 0.929E-01
   0.152E+00 0.841E-01 0.391E-01   0.130E-07 0.130E-07 -.180E-07   -.131E+00 -.115E+00 -.371E-01
   0.253E+00 -.105E-01 0.236E-01   0.130E-07 0.130E-07 -.170E-08   -.262E+00 0.180E-02 -.872E-01
   0.110E+00 0.274E-01 0.317E-01   0.130E-07 0.130E-07 0.115E-07   -.141E+00 -.440E-02 0.390E-01
 -----------------------------------------------------------------------------------------------
   -.404E-07 -.724E-01 -.185E+00   -.614E-13 -.142E-13 0.128E-13   0.833E-16 0.724E-01 0.185E+00
 
 
 POSITION                                       TOTAL-FORCE (eV/Angst)
 -----------------------------------------------------------------------------------
      0.00000      0.00000      0.00000         0.033847     -0.009999      0.013506
      0.00000      0.00000      3.47664        -0.144980     -0.194032     -0.033444
      0.00000      0.00000      6.95327        -0.011444     -0.066060      0.004431
      0.00000      2.75005      0.00000         0.009340     -0.025645     -0.049226
      0.00000      2.75005      3.47664         0.055754      0.108354     -0.013489
      0.00000      2.75005      6.95327         0.026635     -0.028377      0.031091
      0.00000      5.50010      0.00000         0.032738      0.014283      0.060844
      0.00000      5.50010      3.47664        -0.002558      0.086291     -0.091355
      0.00000      5.50010      6.95327        -0.046856      0.107758      0.027147
      2.75005      0.00000      0.00000        -0.033847     -0.009999      0.013506
      2.75005      0.00000      3.47664         0.144980     -0.194032     -0.033444
      2.75005      0.00000      6.95327         0.011444     -0.066060      0.004431
      2.75005      2.75005      0.00000        -0.009340     -0.025645     -0.049226
      2.75005      2.75005      3.47664        -0.055754      0.108354     -0.013489
      2.75005      2.75005      6.95327        -0.026635     -0.028377      0.031091
      2.75005      5.50010      0.00000        -0.032738      0.014283      0.060844
      2.75005      5.50010      3.47664         0.002558      0.086291     -0.091355
      2.75005      5.50010      6.95327         0.046856      0.107758      0.027147
      5.50010      0.00000      0.00000         0.000000      0.029442      0.073621
      5.50010      0.00000      3.47664         0.000000      0.008892     -0.023017
      5.50010      0.00000      6.95327         0.000000      0.023456     -0.037996
      5.50010      2.75005      0.00000         0.000000     -0.027619      0.117089
      5.50010      2.75005      3.47664         0.000000      0.006922     -0.039710
      5.50010      2.75005      6.95327         0.000000      0.002935     -0.022431
      5.50010      5.50010      0.00000         0.000000      0.002265      0.091836
      5.50010      5.50010      3.47664         0.000000     -0.014268     -0.042466
      5.50010      5.50010      6.95327         0.000000     -0.028550     -0.062163
      1.37502      1.37502      1.73832         0.000000      0.028252      0.162017
      1.37502      1.37502      5.21496         0.000000      0.278840     -0.188277
      1.37502      1.37502      8.69159         0.000000      0.080508     -0.026401
      1.37502      4.12507      1.73832         0.000000      0.242836     -0.083534
      1.37502      4.12507      5.21496         0.000000     -0.300213      0.017296
      1.37502      4.12507      8.69159         0.000000     -0.047793     -0.004281
      1.37502      6.87512      1.73832         0.000000     -0.177388      0.052552
      1.37502      6.87512      5.21496         0.000000     -0.052478      0.034661
      1.37502      6.87512      8.69159         0.000000     -0.036494     -0.017855
      4.12507      1.37502      1.73832         0.212591      0.013823     -0.012747
      4.12507      1.37502      5.21496         0.195297     -0.013753     -0.011624
      4.12507      1.37502      8.69159         0.016684     -0.020272      0.005087
      4.12507      4.12507      1.73832         0.069623     -0.011292      0.018154
      4.12507      4.12507      5.21496         0.179936      0.039115     -0.014927
      4.12507      4.12507      8.69159        -0.025421      0.004648      0.053253
      4.12507      6.87512      1.73832        -0.023621     -0.029373      0.004658
      4.12507      6.87512      5.21496         0.004952     -0.007962     -0.055555
      4.12507      6.87512      8.69159         0.030084      0.022722      0.063726
      6.87512      1.37502      1.73832        -0.212591      0.013823     -0.012747
      6.87512      1.37502      5.21496        -0.195297     -0.013753     -0.011624
      6.87512      1.37502      8.69159        -0.016684     -0.020272      0.005087
      6.87512      4.12507      1.73832        -0.069623     -0.011292      0.018154
      6.87512      4.12507      5.21496        -0.179936      0.039115     -0.014927
      6.87512      4.12507      8.69159         0.025421      0.004648      0.053253
      6.87512      6.87512      1.73832         0.023621     -0.029373      0.004658
      6.87512      6.87512      5.21496        -0.004952     -0.007962     -0.055555
      6.87512      6.87512      8.69159        -0.030084      0.022722      0.063726
 -----------------------------------------------------------------------------------
    total drift:                               -0.000000     -0.000013      0.000063


--------------------------------------------------------------------------------------------------------



  FREE ENERGIE OF THE ION-ELECTRON SYSTEM (eV)
  ---------------------------------------------------
  free  energy   TOTEN  =      -356.08677591 eV

  energy  without entropy=     -356.06671828  energy(sigma->0) =     -356.08009003
 


--------------------------------------------------------------------------------------------------------


    POTLOK:  cpu time    0.8397: real time    0.8482


--------------------------------------------------------------------------------------------------------


     LOOP+:  cpu time 2377.4863: real time 2426.1313
    4ORBIT:  cpu time    0.0000: real time    0.0000
 


 total charge     
 
# of ion       s       p       d       tot
------------------------------------------
    1        0.405   0.428   0.000   0.834
    2        0.406   0.430   0.000   0.836
    3        0.404   0.429   0.000   0.834
    4        0.405   0.429   0.000   0.834
    5        0.405   0.430   0.000   0.835
    6        0.405   0.429   0.000   0.834
    7        0.405   0.426   0.000   0.832
    8        0.405   0.427   0.000   0.832
    9        0.404   0.429   0.000   0.834
   10        0.405   0.428   0.000   0.833
   11        0.406   0.430   0.000   0.836
   12        0.404   0.429   0.000   0.834
   13        0.405   0.428   0.000   0.833
   14        0.406   0.430   0.000   0.836
   15        0.405   0.429   0.000   0.834
   16        0.405   0.426   0.000   0.831
   17        0.405   0.427   0.000   0.833
   18        0.404   0.430   0.000   0.834
   19        0.405   0.427   0.000   0.832
   20        0.405   0.425   0.000   0.831
   21        0.404   0.428   0.000   0.832
   22        0.405   0.426   0.000   0.831
   23        0.405   0.425   0.000   0.830
   24        0.404   0.427   0.000   0.831
   25        0.405   0.427   0.000   0.833
   26        0.405   0.426   0.000   0.831
   27        0.404   0.428   0.000   0.833
   28        0.334   0.352   5.140   5.826
   29        0.331   0.354   5.137   5.822
   30        0.332   0.350   5.139   5.821
   31        0.336   0.354   5.124   5.814
   32        0.335   0.355   5.125   5.815
   33        0.331   0.354   5.133   5.819
   34        0.335   0.356   5.125   5.816
   35        0.331   0.360   5.128   5.818
   36        0.333   0.350   5.137   5.820
   37        0.335   0.355   5.120   5.810
   38        0.334   0.355   5.124   5.814
   39        0.333   0.352   5.129   5.814
   40        0.333   0.353   5.130   5.816
   41        0.333   0.354   5.134   5.821
   42        0.334   0.350   5.132   5.816
   43        0.334   0.351   5.134   5.818
   44        0.331   0.352   5.144   5.827
   45        0.334   0.351   5.135   5.820
   46        0.335   0.355   5.131   5.821
   47        0.334   0.355   5.126   5.816
   48        0.333   0.352   5.140   5.825
   49        0.333   0.352   5.140   5.826
   50        0.333   0.354   5.131   5.818
   51        0.334   0.350   5.143   5.826
   52        0.334   0.351   5.143   5.827
   53        0.331   0.352   5.136   5.819
   54        0.334   0.351   5.136   5.821
--------------------------------------------------
tot         19.937  21.089 138.595 179.620
 


 magnetization (x)
 
# of ion       s       p       d       tot
------------------------------------------
    1       -0.004  -0.007   0.000  -0.011
    2        0.001   0.002   0.000   0.003
    3       -0.016  -0.030   0.000  -0.046
    4       -0.004  -0.006   0.000  -0.011
    5        0.005   0.011   0.000   0.016
    6       -0.012  -0.021   0.000  -0.033
    7       -0.001  -0.001   0.000  -0.002
    8        0.004   0.008   0.000   0.013
    9       -0.017  -0.029   0.000  -0.046
   10       -0.004  -0.007   0.000  -0.011
   11        0.001   0.002   0.000   0.003
   12       -0.016  -0.029   0.000  -0.046
   13       -0.004  -0.006   0.000  -0.011
   14        0.005   0.010   0.000   0.015
   15       -0.012  -0.020   0.000  -0.032
   16       -0.001  -0.001   0.000  -0.002
   17        0.004   0.008   0.000   0.012
   18       -0.017  -0.028   0.000  -0.045
   19       -0.001  -0.001   0.000  -0.002
   20       -0.001  -0.000   0.000  -0.001
   21       -0.022  -0.036   0.000  -0.058
   22       -0.001  -0.003   0.000  -0.004
   23        0.001   0.002   0.000   0.003
   24       -0.021  -0.034   0.000  -0.055
   25        0.000   0.000   0.000   0.001
   26        0.001   0.002   0.000   0.003
   27       -0.022  -0.037   0.000  -0.059
   28        0.027   0.029   2.141   2.197
   29       -0.018  -0.020  -2.232  -2.271
   30        0.019   0.017   2.323   2.358
   31       -0.025  -0.023  -2.448  -2.497
   32       -0.026  -0.017  -2.455  -2.497
   33        0.012   0.023   2.237   2.272
   34       -0.019  -0.028  -2.311  -2.358
   35        0.029   0.035   2.223   2.287
   36        0.019   0.018   2.390   2.427
   37       -0.021  -0.025  -2.372  -2.418
   38        0.021   0.023   2.431   2.475
   39        0.017   0.022   2.363   2.402
   40       -0.011  -0.014  -2.275  -2.300
   41        0.021   0.019   2.365   2.405
   42        0.019   0.017   2.390   2.426
   43       -0.013  -0.010  -2.276  -2.298
   44        0.010   0.008   2.305   2.323
   45        0.017   0.022   2.375   2.414
   46       -0.021  -0.024  -2.360  -2.405
   47        0.021   0.023   2.427   2.471
   48        0.017   0.022   2.353   2.392
   49       -0.011  -0.013  -2.254  -2.278
   50        0.021   0.019   2.359   2.400
   51        0.019   0.017   2.372   2.408
   52       -0.012  -0.009  -2.267  -2.289
   53        0.010   0.007   2.311   2.328
   54        0.017   0.021   2.371   2.409
--------------------------------------------------
tot         -0.015  -0.095  16.487  16.376
 

 total amount of memory used by VASP MPI-rank0  1077308. kBytes
=======================================================================

   base      :      30000. kBytes
   nonl-proj :      34214. kBytes
   fftplans  :      31580. kBytes
   grid      :      21385. kBytes
   one-center:        435. kBytes
   wavefun   :     959694. kBytes
 
  
  
 General timing and accounting informations for this job:
 ========================================================
  
                  Total CPU time used (sec):     2415.810
                            User time (sec):     2386.170
                          System time (sec):       29.640
                         Elapsed time (sec):     2468.043
  
                   Maximum memory used (kb):     1259088.
                   Average memory used (kb):           0.
  
                          Minor page faults:       862411
                          Major page faults:           17
                 Voluntary context switches:         3943
