   36   36    1    2
  0.1314651E+02  0.8250148E-09  0.8250148E-09  0.6953274E-09  0.2000000E-15
  1.000000000000000E-004
  CAR 
 AlMn_pv                                 
    180     52    116
 
  0.0000000E+00  0.0000000E+00  0.0000000E+00  0.6666667E-02
    1       -2.528947     -2.506672   1.000000   1.000000
    2       -0.367526     -0.365320   1.000000   1.000000
    3       -0.360395     -0.320229   1.000000   1.000000
    4       -0.339679     -0.307353   1.000000   1.000000
    5       -0.319965     -0.298147   1.000000   1.000000
    6       -0.112875     -0.121447   1.000000   1.000000
    7        1.349809      1.392749   1.000000   1.000000
    8        1.350761      1.406524   1.000000   1.000000
    9        1.373411      1.425303   1.000000   1.000000
   10        1.387798      1.428876   1.000000   1.000000
   11        1.396505      1.430372   1.000000   1.000000
   12        1.526778      1.559572   1.000000   1.000000
   13        1.553343      1.605296   1.000000   1.000000
   14        1.588653      1.625946   1.000000   1.000000
   15        1.616113      1.671252   1.000000   1.000000
   16        2.662140      2.753820   1.000000   1.000000
   17        2.728509      2.796742   1.000000   1.000000
   18        2.759823      2.863623   1.000000   1.000000
   19        2.821497      2.915427   1.000000   1.000000
   20        3.448727      3.503358   1.000000   1.000000
   21        3.460989      3.587964   1.000000   1.000000
   22        3.541798      3.623524   1.000000   1.000000
   23        3.566161      3.636225   1.000000   1.000000
   24        4.043645      4.142552   1.000000   1.000000
   25        4.147056      4.327438   1.000000   1.000000
   26        4.202886      4.396464   1.000000   1.000000
   27        4.372718      4.586957   1.000000   1.000000
   28        4.495522      4.595949   1.000000   1.000000
   29        4.518312      4.653213   1.000000   1.000000
   30        4.530618      4.690363   1.000000   1.000000
   31        4.557450      4.701039   1.000000   1.000000
   32        4.570727      4.703043   1.000000   1.000000
   33        4.580324      4.842981   1.000000   1.000000
   34        4.655694      4.850182   1.000000   1.000000
   35        4.760537      4.894712   1.000000   1.000000
   36        4.767670      4.940639   1.000000   1.000000
   37        4.847605      5.039758   1.000000   1.000000
   38        4.866416      5.145915   1.000000   1.000000
   39        4.878129      5.186188   1.000000   1.000000
   40        5.090324      5.348811   1.000000   1.000000
   41        5.182482      5.366300   1.000000   1.000000
   42        5.226197      5.424522   1.000000   1.000000
   43        5.259474      5.494139   1.000000   1.000000
   44        5.301487      5.513676   1.000000   1.000000
   45        5.335861      5.523719   1.000000   1.000000
   46        5.352851      5.550898   1.000000   1.000000
   47        5.400870      5.578728   1.000000   1.000000
   48        5.416592      5.595371   1.000000   1.000000
   49        5.458264      5.655181   1.000000   1.000000
   50        5.496283      5.662638   1.000000   1.000000
   51        5.528478      5.795244   1.000000   1.000000
   52        5.559322      5.913480   1.000000   1.000000
   53        5.599956      5.981933   1.000000   1.000000
   54        5.632439      6.048443   1.000000   1.000000
   55        5.667432      6.125800   1.000000   1.000000
   56        5.753941      6.151263   1.000000   1.000000
   57        5.774069      6.283923   1.000000   1.000000
   58        5.879248      6.346721   1.000000   1.000000
   59        5.882246      6.395651   1.000000   1.000000
   60        5.901295      6.415880   1.000000   1.000000
   61        5.982230      6.426093   1.000000   1.000000
   62        6.135352      6.455133   1.000000   1.000000
   63        6.317672      6.484120   1.000000   1.000000
   64        6.317777      6.557595   1.000000   1.000000
   65        6.354343      6.558747   1.000000   1.000000
   66        6.368128      6.622168   1.000000   1.000000
   67        6.376129      6.622934   1.000000   1.000000
   68        6.433548      6.640599   1.000000   1.000000
   69        6.453033      6.703239   1.000000   1.000000
   70        6.475937      6.752006   1.000000   1.000000
   71        6.508221      6.766367   1.000000   1.000000
   72        6.565694      6.785080   1.000000   1.000000
   73        6.567795      6.871430   1.000000   1.000000
   74        6.610335      6.921040   1.000000   1.000000
   75        6.615497      6.930466   1.000000   1.000000
   76        6.646720      6.974579   1.000000   1.000001
   77        6.666320      7.106709   1.000000   1.000058
   78        6.683019      7.204896   1.000000   1.000752
   79        6.695334      7.410746   1.000000   1.024678
   80        6.755660      7.431068   1.000000   1.029251
   81        6.775673      7.529217   1.000000   1.022065
   82        6.795983      7.704781   1.000000   0.579755
   83        6.813653      7.712043   1.000000   0.548852
   84        6.987252      7.736946   1.000001   0.443665
   85        7.139489      7.761438   1.000144   0.343576
   86        7.156557      7.834417   1.000227   0.102014
   87        7.249009      7.876173   1.001999   0.020354
   88        7.253592      7.885395   1.002198   0.007831
   89        7.323556      7.921185   1.007977  -0.023808
   90        7.400400      7.998014   1.022291  -0.032771
   91        7.426934      8.052113   1.028347  -0.021134
   92        7.478858      8.102497   1.035458  -0.011089
   93        7.535878      8.236692   1.017641  -0.000863
   94        7.642947      8.259954   0.812551  -0.000495
   95        7.794068      8.265389   0.221842  -0.000435
   96        7.863469      8.333672   0.040540  -0.000071
   97        7.921935      8.491041  -0.024212  -0.000000
   98        7.947487      8.506616  -0.033474  -0.000000
   99        8.058072      8.604245  -0.019789  -0.000000
  100        8.066987      8.625697  -0.017849  -0.000000
  101        8.109804      8.684508  -0.009943  -0.000000
  102        8.125936      8.730157  -0.007723  -0.000000
  103        8.181000      8.814895  -0.002846  -0.000000
  104        8.348207      8.834214  -0.000046  -0.000000
  105        8.436136      8.848285  -0.000003  -0.000000
  106        8.518219      8.862600  -0.000000  -0.000000
  107        8.593524      8.880341  -0.000000  -0.000000
  108        8.612124      8.889266  -0.000000  -0.000000
  109        8.695199      8.909931  -0.000000  -0.000000
  110        8.721997      8.945608  -0.000000  -0.000000
  111        8.762807      8.989519  -0.000000  -0.000000
  112        8.823151      9.020596  -0.000000  -0.000000
  113        8.826365      9.026877  -0.000000  -0.000000
  114        8.857032      9.082570  -0.000000  -0.000000
  115        8.911145      9.113765  -0.000000  -0.000000
  116        9.173793      9.138562  -0.000000  -0.000000
 
  0.2000000E+00  0.0000000E+00  0.0000000E+00  0.1333333E-01
    1       -2.438396     -2.416148   1.000000   1.000000
    2       -1.112621     -1.090133   1.000000   1.000000
    3       -0.265830     -0.253355   1.000000   1.000000
    4       -0.263028     -0.226243   1.000000   1.000000
    5       -0.047693     -0.055083   1.000000   1.000000
    6        0.555511      0.580970   1.000000   1.000000
    7        0.879235      0.894788   1.000000   1.000000
    8        0.918757      0.944915   1.000000   1.000000
    9        0.919803      0.962673   1.000000   1.000000
   10        1.425734      1.468965   1.000000   1.000000
   11        1.446456      1.487613   1.000000   1.000000
   12        1.449935      1.524040   1.000000   1.000000
   13        1.890963      1.956384   1.000000   1.000000
   14        2.279043      2.346853   1.000000   1.000000
   15        2.288728      2.357033   1.000000   1.000000
   16        2.293782      2.363622   1.000000   1.000000
   17        2.311835      2.372590   1.000000   1.000000
   18        2.785525      2.864240   1.000000   1.000000
   19        3.186294      3.291714   1.000000   1.000000
   20        3.199797      3.330396   1.000000   1.000000
   21        3.555844      3.629143   1.000000   1.000000
   22        3.580653      3.677222   1.000000   1.000000
   23        3.709474      3.773922   1.000000   1.000000
   24        4.020953      4.120725   1.000000   1.000000
   25        4.110141      4.256923   1.000000   1.000000
   26        4.176386      4.352459   1.000000   1.000000
   27        4.262317      4.380535   1.000000   1.000000
   28        4.319519      4.561547   1.000000   1.000000
   29        4.420338      4.609653   1.000000   1.000000
   30        4.461527      4.625544   1.000000   1.000000
   31        4.497565      4.705117   1.000000   1.000000
   32        4.554236      4.706736   1.000000   1.000000
   33        4.584391      4.721111   1.000000   1.000000
   34        4.607204      4.815027   1.000000   1.000000
   35        4.788502      4.916650   1.000000   1.000000
   36        4.835365      4.951704   1.000000   1.000000
   37        4.907749      5.124922   1.000000   1.000000
   38        4.917851      5.138357   1.000000   1.000000
   39        4.970977      5.147592   1.000000   1.000000
   40        4.987892      5.196114   1.000000   1.000000
   41        5.040152      5.340639   1.000000   1.000000
   42        5.207877      5.374260   1.000000   1.000000
   43        5.221080      5.404412   1.000000   1.000000
   44        5.274978      5.439139   1.000000   1.000000
   45        5.303625      5.532808   1.000000   1.000000
   46        5.341291      5.547924   1.000000   1.000000
   47        5.393434      5.569355   1.000000   1.000000
   48        5.479352      5.650495   1.000000   1.000000
   49        5.504203      5.687415   1.000000   1.000000
   50        5.521062      5.821362   1.000000   1.000000
   51        5.544414      5.867606   1.000000   1.000000
   52        5.602384      5.957022   1.000000   1.000000
   53        5.616012      6.032597   1.000000   1.000000
   54        5.663255      6.077324   1.000000   1.000000
   55        5.752971      6.138223   1.000000   1.000000
   56        5.781797      6.156770   1.000000   1.000000
   57        5.786330      6.256566   1.000000   1.000000
   58        5.842748      6.308565   1.000000   1.000000
   59        5.847100      6.346412   1.000000   1.000000
   60        5.909890      6.365979   1.000000   1.000000
   61        5.959477      6.387286   1.000000   1.000000
   62        6.126129      6.426691   1.000000   1.000000
   63        6.246573      6.440800   1.000000   1.000000
   64        6.277286      6.487040   1.000000   1.000000
   65        6.303878      6.505659   1.000000   1.000000
   66        6.331133      6.566807   1.000000   1.000000
   67        6.358117      6.630058   1.000000   1.000000
   68        6.407361      6.666804   1.000000   1.000000
   69        6.433388      6.701572   1.000000   1.000000
   70        6.448823      6.718511   1.000000   1.000000
   71        6.533769      6.747573   1.000000   1.000000
   72        6.556542      6.837320   1.000000   1.000000
   73        6.579300      6.907291   1.000000   1.000000
   74        6.599021      6.918794   1.000000   1.000000
   75        6.614793      6.967059   1.000000   1.000001
   76        6.648790      7.033074   1.000000   1.000006
   77        6.649415      7.134608   1.000000   1.000126
   78        6.700246      7.258365   1.000000   1.002423
   79        6.708810      7.299574   1.000000   1.005304
   80        6.755199      7.446239   1.000000   1.032218
   81        6.781230      7.480811   1.000000   1.035442
   82        6.786256      7.549001   1.000000   1.006608
   83        6.817488      7.679863   1.000000   0.680327
   84        6.868850      7.750995   1.000000   0.385971
   85        6.958929      7.759329   1.000000   0.351478
   86        7.104378      7.858531   1.000054   0.049552
   87        7.244405      7.883403   1.001815   0.010371
   88        7.245745      7.914144   1.001867  -0.019483
   89        7.348227      7.976282   1.011641  -0.035249
   90        7.402528      8.014419   1.022786  -0.029673
   91        7.494191      8.101561   1.034440  -0.011250
   92        7.508401      8.141461   1.031377  -0.005936
   93        7.607360      8.202322   0.911464  -0.001845
   94        7.610829      8.263008   0.903476  -0.000461
   95        7.800615      8.292597   0.199550  -0.000216
   96        7.852840      8.341066   0.060526  -0.000057
   97        7.947964      8.441298  -0.033565  -0.000002
   98        7.985248      8.500346  -0.034513  -0.000000
   99        7.996849      8.563849  -0.032953  -0.000000
  100        8.089936      8.611822  -0.013269  -0.000000
  101        8.143725      8.652917  -0.005718  -0.000000
  102        8.208333      8.668547  -0.001618  -0.000000
  103        8.246614      8.735771  -0.000685  -0.000000
  104        8.261063      8.797855  -0.000482  -0.000000
  105        8.407230      8.829239  -0.000007  -0.000000
  106        8.499085      8.857042  -0.000000  -0.000000
  107        8.532405      8.893835  -0.000000  -0.000000
  108        8.649198      9.004079  -0.000000  -0.000000
  109        8.672640      9.047725  -0.000000  -0.000000
  110        8.742293      9.050912  -0.000000  -0.000000
  111        8.838602      9.085168  -0.000000  -0.000000
  112        8.918963      9.107413  -0.000000  -0.000000
  113        8.926310      9.122293  -0.000000  -0.000000
  114        8.994513      9.152050  -0.000000  -0.000000
  115        9.114090      9.183527  -0.000000  -0.000000
  116        9.197460      9.364068  -0.000000  -0.000000
 
  0.4000000E+00  0.0000000E+00  0.0000000E+00  0.1333333E-01
    1       -2.168462     -2.146241   1.000000   1.000000
    2       -1.723355     -1.701185   1.000000   1.000000
    3       -0.021275     -0.007104   1.000000   1.000000
    4       -0.018924      0.018633   1.000000   1.000000
    5        0.145494      0.141827   1.000000   1.000000
    6        0.380207      0.397905   1.000000   1.000000
    7        0.383764      0.420975   1.000000   1.000000
    8        0.459570      0.463241   1.000000   1.000000
    9        1.563506      1.602294   1.000000   1.000000
   10        1.606604      1.651125   1.000000   1.000000
   11        1.626924      1.671592   1.000000   1.000000
   12        1.727625      1.803413   1.000000   1.000000
   13        1.901807      1.968792   1.000000   1.000000
   14        1.931600      1.976955   1.000000   1.000000
   15        2.182608      2.260931   1.000000   1.000000
   16        2.290064      2.389118   1.000000   1.000000
   17        2.662936      2.700614   1.000000   1.000000
   18        2.904203      2.998906   1.000000   1.000000
   19        2.943200      3.059115   1.000000   1.000000
   20        3.516313      3.647026   1.000000   1.000000
   21        3.569569      3.735868   1.000000   1.000000
   22        3.719488      3.806012   1.000000   1.000000
   23        3.743302      3.833424   1.000000   1.000000
   24        3.928298      4.039297   1.000000   1.000000
   25        3.997495      4.097259   1.000000   1.000000
   26        4.055517      4.182618   1.000000   1.000000
   27        4.094299      4.228928   1.000000   1.000000
   28        4.233979      4.413178   1.000000   1.000000
   29        4.266254      4.489424   1.000000   1.000000
   30        4.312593      4.526845   1.000000   1.000000
   31        4.344872      4.554988   1.000000   1.000000
   32        4.533703      4.595522   1.000000   1.000000
   33        4.611315      4.696442   1.000000   1.000000
   34        4.671555      4.815099   1.000000   1.000000
   35        4.751416      4.927701   1.000000   1.000000
   36        4.876087      5.005993   1.000000   1.000000
   37        4.902638      5.083669   1.000000   1.000000
   38        4.924793      5.135091   1.000000   1.000000
   39        5.010373      5.162553   1.000000   1.000000
   40        5.062705      5.265951   1.000000   1.000000
   41        5.085797      5.296326   1.000000   1.000000
   42        5.160241      5.333255   1.000000   1.000000
   43        5.213122      5.432615   1.000000   1.000000
   44        5.235631      5.433285   1.000000   1.000000
   45        5.332144      5.512041   1.000000   1.000000
   46        5.336420      5.545933   1.000000   1.000000
   47        5.463980      5.561749   1.000000   1.000000
   48        5.474111      5.654960   1.000000   1.000000
   49        5.525811      5.681919   1.000000   1.000000
   50        5.548349      5.884104   1.000000   1.000000
   51        5.568053      5.944141   1.000000   1.000000
   52        5.600634      5.967078   1.000000   1.000000
   53        5.626153      6.025036   1.000000   1.000000
   54        5.647700      6.104475   1.000000   1.000000
   55        5.694582      6.125417   1.000000   1.000000
   56        5.747320      6.205484   1.000000   1.000000
   57        5.758572      6.208794   1.000000   1.000000
   58        5.780670      6.247684   1.000000   1.000000
   59        5.895141      6.251124   1.000000   1.000000
   60        5.898303      6.300472   1.000000   1.000000
   61        6.083975      6.336632   1.000000   1.000000
   62        6.092187      6.354622   1.000000   1.000000
   63        6.174420      6.391848   1.000000   1.000000
   64        6.190888      6.429734   1.000000   1.000000
   65        6.218545      6.503325   1.000000   1.000000
   66        6.321900      6.510225   1.000000   1.000000
   67        6.339385      6.623134   1.000000   1.000000
   68        6.372085      6.634530   1.000000   1.000000
   69        6.383230      6.669692   1.000000   1.000000
   70        6.421195      6.755354   1.000000   1.000000
   71        6.453786      6.812590   1.000000   1.000000
   72        6.459197      6.896780   1.000000   1.000000
   73        6.531907      6.936855   1.000000   1.000000
   74        6.547004      6.960828   1.000000   1.000000
   75        6.624254      6.993123   1.000000   1.000002
   76        6.648020      7.112281   1.000000   1.000068
   77        6.660899      7.141492   1.000000   1.000152
   78        6.698638      7.164254   1.000000   1.000277
   79        6.720743      7.209230   1.000000   1.000832
   80        6.755889      7.335465   1.000000   1.009620
   81        6.780864      7.496874   1.000000   1.034043
   82        6.825001      7.577847   1.000000   0.969749
   83        6.847013      7.688328   1.000000   0.647039
   84        6.895259      7.716574   1.000000   0.529917
   85        6.981180      7.828732   1.000001   0.116609
   86        7.057729      7.882392   1.000013   0.011731
   87        7.151865      7.900811   1.000201  -0.008924
   88        7.225179      7.935764   1.001197  -0.030292
   89        7.295364      8.010807   1.004930  -0.030418
   90        7.472395      8.040850   1.035311  -0.023735
   91        7.482781      8.046958   1.035393  -0.022329
   92        7.511594      8.118335   1.030367  -0.008716
   93        7.609480      8.211959   0.906760  -0.001502
   94        7.687283      8.268858   0.651493  -0.000399
   95        7.694685      8.291792   0.621258  -0.000222
   96        7.847911      8.342443   0.070795  -0.000055
   97        7.915475      8.418982  -0.020322  -0.000005
   98        7.956236      8.423311  -0.034815  -0.000004
   99        8.033860      8.481125  -0.025355  -0.000001
  100        8.104158      8.534353  -0.010833  -0.000000
  101        8.124578      8.562840  -0.007870  -0.000000
  102        8.198274      8.612577  -0.002006  -0.000000
  103        8.260230      8.650060  -0.000494  -0.000000
  104        8.314674      8.698867  -0.000120  -0.000000
  105        8.373033      8.842510  -0.000022  -0.000000
  106        8.388860      8.857295  -0.000014  -0.000000
  107        8.443927      8.976733  -0.000002  -0.000000
  108        8.556468      9.076853  -0.000000  -0.000000
  109        8.657225      9.098142  -0.000000  -0.000000
  110        8.851991      9.114376  -0.000000  -0.000000
  111        8.992279      9.137047  -0.000000  -0.000000
  112        9.017004      9.152995  -0.000000  -0.000000
  113        9.069413      9.191887  -0.000000  -0.000000
  114        9.110904      9.254545  -0.000000  -0.000000
  115        9.186618      9.457582  -0.000000  -0.000000
  116        9.407479      9.694799  -0.000000  -0.000000
 
  0.0000000E+00  0.2000000E+00  0.0000000E+00  0.1333333E-01
    1       -2.438385     -2.416166   1.000000   1.000000
    2       -1.112729     -1.090110   1.000000   1.000000
    3       -0.274096     -0.247620   1.000000   1.000000
    4       -0.254238     -0.232395   1.000000   1.000000
    5       -0.047757     -0.054983   1.000000   1.000000
    6        0.554359      0.582240   1.000000   1.000000
    7        0.878381      0.896681   1.000000   1.000000
    8        0.912710      0.948816   1.000000   1.000000
    9        0.926494      0.957638   1.000000   1.000000
   10        1.426813      1.459273   1.000000   1.000000
   11        1.446382      1.490955   1.000000   1.000000
   12        1.451608      1.524089   1.000000   1.000000
   13        1.889548      1.961221   1.000000   1.000000
   14        2.279075      2.342583   1.000000   1.000000
   15        2.290224      2.357339   1.000000   1.000000
   16        2.294230      2.362246   1.000000   1.000000
   17        2.310827      2.375725   1.000000   1.000000
   18        2.784844      2.863150   1.000000   1.000000
   19        3.175361      3.297970   1.000000   1.000000
   20        3.208455      3.335137   1.000000   1.000000
   21        3.554148      3.633330   1.000000   1.000000
   22        3.586851      3.674477   1.000000   1.000000
   23        3.709298      3.773654   1.000000   1.000000
   24        4.022096      4.120952   1.000000   1.000000
   25        4.104469      4.254128   1.000000   1.000000
   26        4.177311      4.361532   1.000000   1.000000
   27        4.259664      4.380739   1.000000   1.000000
   28        4.327818      4.565335   1.000000   1.000000
   29        4.419637      4.614681   1.000000   1.000000
   30        4.459226      4.618176   1.000000   1.000000
   31        4.505336      4.675317   1.000000   1.000000
   32        4.539267      4.690111   1.000000   1.000000
   33        4.584671      4.768499   1.000000   1.000000
   34        4.599138      4.784260   1.000000   1.000000
   35        4.792895      4.928570   1.000000   1.000000
   36        4.831555      4.962319   1.000000   1.000000
   37        4.917872      5.116160   1.000000   1.000000
   38        4.933374      5.127400   1.000000   1.000000
   39        4.975461      5.153885   1.000000   1.000000
   40        4.978563      5.184338   1.000000   1.000000
   41        5.033399      5.334681   1.000000   1.000000
   42        5.210074      5.368236   1.000000   1.000000
   43        5.232229      5.400765   1.000000   1.000000
   44        5.247423      5.466701   1.000000   1.000000
   45        5.296981      5.532501   1.000000   1.000000
   46        5.341227      5.540488   1.000000   1.000000
   47        5.402335      5.587758   1.000000   1.000000
   48        5.418310      5.603709   1.000000   1.000000
   49        5.493085      5.676747   1.000000   1.000000
   50        5.525945      5.836619   1.000000   1.000000
   51        5.560357      5.850785   1.000000   1.000000
   52        5.600609      5.912279   1.000000   1.000000
   53        5.616646      6.036976   1.000000   1.000000
   54        5.679980      6.092013   1.000000   1.000000
   55        5.761479      6.138653   1.000000   1.000000
   56        5.770725      6.166837   1.000000   1.000000
   57        5.798168      6.272148   1.000000   1.000000
   58        5.857476      6.320084   1.000000   1.000000
   59        5.861873      6.348424   1.000000   1.000000
   60        5.962799      6.376459   1.000000   1.000000
   61        5.975004      6.409895   1.000000   1.000000
   62        6.124313      6.427609   1.000000   1.000000
   63        6.243166      6.457522   1.000000   1.000000
   64        6.294596      6.515775   1.000000   1.000000
   65        6.302483      6.520890   1.000000   1.000000
   66        6.320270      6.571456   1.000000   1.000000
   67        6.371220      6.634036   1.000000   1.000000
   68        6.405839      6.662357   1.000000   1.000000
   69        6.423587      6.692278   1.000000   1.000000
   70        6.483718      6.759111   1.000000   1.000000
   71        6.527926      6.765793   1.000000   1.000000
   72        6.556689      6.830054   1.000000   1.000000
   73        6.567576      6.874699   1.000000   1.000000
   74        6.586358      6.934807   1.000000   1.000000
   75        6.632319      6.980614   1.000000   1.000001
   76        6.635763      7.022726   1.000000   1.000004
   77        6.682392      7.109796   1.000000   1.000063
   78        6.695042      7.270975   1.000000   1.003114
   79        6.718412      7.301649   1.000000   1.005509
   80        6.734490      7.427338   1.000000   1.028444
   81        6.744311      7.481474   1.000000   1.035430
   82        6.779736      7.519531   1.000000   1.027176
   83        6.808038      7.701975   1.000000   0.591533
   84        6.863849      7.703608   1.000000   0.584074
   85        6.947859      7.739495   1.000000   0.433161
   86        7.068657      7.861014   1.000018   0.044939
   87        7.202109      7.906990   1.000704  -0.014082
   88        7.228290      7.923737   1.001281  -0.025181
   89        7.356048      7.961617   1.012994  -0.035256
   90        7.383462      8.021752   1.018491  -0.028091
   91        7.477917      8.022637   1.035455  -0.027894
   92        7.480907      8.152913   1.035440  -0.004850
   93        7.600189      8.213353   0.927794  -0.001454
   94        7.662660      8.214583   0.745415  -0.001418
   95        7.834716      8.317089   0.101255  -0.000112
   96        7.905540      8.324450  -0.012986  -0.000092
   97        7.931963      8.385631  -0.028889  -0.000015
   98        7.970171      8.458429  -0.035449  -0.000001
   99        8.010285      8.570344  -0.030501  -0.000000
  100        8.086357      8.623996  -0.013932  -0.000000
  101        8.169945      8.680956  -0.003539  -0.000000
  102        8.182964      8.684028  -0.002737  -0.000000
  103        8.286506      8.812810  -0.000255  -0.000000
  104        8.294115      8.839588  -0.000208  -0.000000
  105        8.372228      8.863712  -0.000023  -0.000000
  106        8.484251      8.879807  -0.000001  -0.000000
  107        8.552513      8.895797  -0.000000  -0.000000
  108        8.635354      9.008160  -0.000000  -0.000000
  109        8.647451      9.033402  -0.000000  -0.000000
  110        8.774098      9.043199  -0.000000  -0.000000
  111        8.855264      9.080885  -0.000000  -0.000000
  112        8.900662      9.088120  -0.000000  -0.000000
  113        8.927968      9.114201  -0.000000  -0.000000
  114        9.004241      9.154635  -0.000000  -0.000000
  115        9.080834      9.193580  -0.000000  -0.000000
  116        9.180457      9.338488  -0.000000  -0.000000
 
  0.2000000E+00  0.2000000E+00  0.0000000E+00  0.1333333E-01
    1       -2.348110     -2.325926   1.000000   1.000000
    2       -1.032823     -1.018625   1.000000   1.000000
    3       -1.020876     -0.989004   1.000000   1.000000
    4        0.017233      0.011296   1.000000   1.000000
    5        0.215624      0.242840   1.000000   1.000000
    6        0.628067      0.648310   1.000000   1.000000
    7        0.640885      0.675561   1.000000   1.000000
    8        0.930459      0.954737   1.000000   1.000000
    9        0.954008      0.965228   1.000000   1.000000
   10        1.540183      1.617782   1.000000   1.000000
   11        1.709502      1.762680   1.000000   1.000000
   12        1.744549      1.782536   1.000000   1.000000
   13        1.826763      1.870205   1.000000   1.000000
   14        1.950229      2.018485   1.000000   1.000000
   15        1.958587      2.035730   1.000000   1.000000
   16        2.772023      2.852847   1.000000   1.000000
   17        2.798564      2.911612   1.000000   1.000000
   18        2.824549      2.914567   1.000000   1.000000
   19        2.860286      2.930107   1.000000   1.000000
   20        2.873178      2.977381   1.000000   1.000000
   21        3.583915      3.737806   1.000000   1.000000
   22        3.743269      3.818332   1.000000   1.000000
   23        3.761184      3.830861   1.000000   1.000000
   24        3.782539      3.877741   1.000000   1.000000
   25        4.078517      4.284912   1.000000   1.000000
   26        4.261740      4.367247   1.000000   1.000000
   27        4.285460      4.396628   1.000000   1.000000
   28        4.313949      4.426197   1.000000   1.000000
   29        4.327560      4.508410   1.000000   1.000000
   30        4.353378      4.528014   1.000000   1.000000
   31        4.400871      4.536015   1.000000   1.000000
   32        4.450907      4.674935   1.000000   1.000000
   33        4.539406      4.739089   1.000000   1.000000
   34        4.574740      4.817689   1.000000   1.000000
   35        4.666878      4.853437   1.000000   1.000000
   36        4.859547      4.993271   1.000000   1.000000
   37        4.874039      5.019003   1.000000   1.000000
   38        4.886594      5.036872   1.000000   1.000000
   39        5.019496      5.174847   1.000000   1.000000
   40        5.059519      5.210051   1.000000   1.000000
   41        5.152697      5.338786   1.000000   1.000000
   42        5.205630      5.369051   1.000000   1.000000
   43        5.231532      5.417722   1.000000   1.000000
   44        5.274220      5.487079   1.000000   1.000000