       N       E                     dE             d eps       ncg     rms          ort
DAV:   1     0.133963606894E+04    0.13396E+04   -0.59224E+04  6032   0.139E+03
DAV:   2    -0.719868699764E+02   -0.14116E+04   -0.13718E+04  6032   0.423E+02
DAV:   3    -0.241131435844E+03   -0.16914E+03   -0.14952E+03  6032   0.160E+02
DAV:   4    -0.267145500787E+03   -0.26014E+02   -0.22888E+02  6032   0.690E+01
DAV:   5    -0.269680139627E+03   -0.25346E+01   -0.24179E+01  6032   0.202E+01
DAV:   6    -0.269877381993E+03   -0.19724E+00   -0.19336E+00  6032   0.529E+00
DAV:   7    -0.269898250649E+03   -0.20869E-01   -0.20677E-01  6032   0.149E+00
DAV:   8    -0.269899822809E+03   -0.15722E-02   -0.15630E-02  6032   0.392E-01
SDA:   9    -0.635364487130E+02    0.20636E+03   -0.15630E-02  6032   0.226E+04 0.000E+00
CGA:  10    -0.210116420403E+03   -0.14658E+03   -0.14870E+03  6032   0.940E+02 0.299E+03
CGA:  11    -0.218925876955E+03   -0.88095E+01   -0.87191E+01  6032   0.654E+02 0.126E+01
CGA:  12    -0.228003675552E+03   -0.90778E+01   -0.90142E+01  6032   0.882E+02-0.125E+00
CGA:  13    -0.233402881913E+03   -0.53992E+01   -0.54390E+01  6032   0.108E+02 0.938E+00
CGA:  14    -0.234257256548E+03   -0.85437E+00   -0.85982E+00  6032   0.550E+01-0.269E-01
CGA:  15    -0.234970540055E+03   -0.71328E+00   -0.71591E+00  6032   0.677E+01 0.140E-01
CGA:  16    -0.235539921924E+03   -0.56938E+00   -0.56645E+00  6032   0.165E+01 0.278E-01
CGA:  17    -0.235707608382E+03   -0.16769E+00   -0.16774E+00  6032   0.114E+01 0.675E-03
CGA:  18    -0.235879886626E+03   -0.17228E+00   -0.17232E+00  6032   0.110E+01 0.527E-03
CGA:  19    -0.235966829632E+03   -0.86943E-01   -0.87427E-01  6032   0.376E+00-0.410E-02
CGA:  20    -0.236001921340E+03   -0.35092E-01   -0.35180E-01  6032   0.314E+00-0.428E-03
CGA:  21    -0.236054345816E+03   -0.52424E-01   -0.52406E-01  6032   0.340E+00 0.889E-03
CGA:  22    -0.236083948642E+03   -0.29603E-01   -0.29630E-01  6032   0.119E+00-0.283E-03
CGA:  23    -0.236094305175E+03   -0.10357E-01   -0.10348E-01  6032   0.717E-01-0.913E-04
CGA:  24    -0.236108502192E+03   -0.14197E-01   -0.14211E-01  6032   0.934E-01-0.303E-03
CGA:  25    -0.236119156055E+03   -0.10654E-01   -0.10648E-01  6032   0.629E-01-0.254E-03
CGA:  26    -0.236125357841E+03   -0.62018E-02   -0.61978E-02  6032   0.522E-01-0.145E-03
CGA:  27    -0.236131775847E+03   -0.64180E-02   -0.64158E-02  6032   0.352E-01-0.646E-04
CGA:  28    -0.236135064025E+03   -0.32882E-02   -0.32854E-02  6032   0.167E-01 0.264E-04
CGA:  29    -0.236137030602E+03   -0.19666E-02   -0.19668E-02  6032   0.160E-01 0.220E-04
CGA:  30    -0.236139354086E+03   -0.23235E-02   -0.23235E-02  6032   0.143E-01 0.189E-04
CGA:  31    -0.236140908751E+03   -0.15547E-02   -0.15548E-02  6032   0.870E-02 0.107E-04
CGA:  32    -0.236142061311E+03   -0.11526E-02   -0.11526E-02  6032   0.837E-02 0.144E-04
CGA:  33    -0.236143046769E+03   -0.98546E-03   -0.98598E-03  6032   0.556E-02 0.346E-04
CGA:  34    -0.236143593737E+03   -0.54697E-03   -0.54824E-03  6032   0.274E-02 0.405E-04
CGA:  35    -0.236143959706E+03   -0.36597E-03   -0.36611E-03  6032   0.265E-02 0.322E-04
CGA:  36    -0.236144263881E+03   -0.30417E-03   -0.30469E-03  6032   0.229E-02 0.223E-04
CGA:  37    -0.236144542824E+03   -0.27894E-03   -0.27919E-03  6032   0.184E-02 0.162E-04
CGA:  38    -0.236144782084E+03   -0.23926E-03   -0.23936E-03  6032   0.134E-02 0.145E-04
CGA:  39    -0.236144913316E+03   -0.13123E-03   -0.13163E-03  6032   0.572E-03 0.112E-04
SDA:  40    -0.236144980794E+03   -0.67478E-04   -0.67562E-04  6032   0.482E-03 0.514E-05
CGA:  41    -0.236145024090E+03   -0.43296E-04   -0.43117E-04  6032   0.481E-03-0.428E-05
CGA:  42    -0.236145093278E+03   -0.69187E-04   -0.69365E-04  6032   0.333E-03-0.115E-04
CGA:  43    -0.236145130230E+03   -0.36952E-04   -0.36870E-04  6032   0.341E-03-0.485E-05
CGA:  44    -0.236145173522E+03   -0.43292E-04   -0.43285E-04  6032   0.191E-03-0.486E-05
CGA:  45    -0.236145190746E+03   -0.17224E-04   -0.17097E-04  6032   0.145E-03-0.327E-05
CGA:  46    -0.236145215795E+03   -0.25049E-04   -0.25363E-04  6032   0.132E-03-0.633E-05
CGA:  47    -0.236145230552E+03   -0.14757E-04   -0.14735E-04  6032   0.147E-03-0.153E-05
CGA:  48    -0.236145251639E+03   -0.21088E-04   -0.21074E-04  6032   0.907E-04 0.929E-06
CGA:  49    -0.236145260167E+03   -0.85273E-05   -0.85475E-05  6032   0.638E-04 0.553E-06
CGA:  50    -0.236145274761E+03   -0.14594E-04   -0.14558E-04  6032   0.534E-04 0.441E-06
CGA:  51    -0.236145278737E+03   -0.39760E-05   -0.39912E-05  6032   0.247E-04 0.275E-06
CGA:  52    -0.236145283873E+03   -0.51360E-05   -0.50491E-05  6032   0.450E-04 0.119E-05
CGA:  53    -0.236145288110E+03   -0.42370E-05   -0.42856E-05  6032   0.152E-04 0.118E-05
CGA:  54    -0.236145290292E+03   -0.21823E-05   -0.21788E-05  6032   0.273E-04 0.511E-06
CGA:  55    -0.236145294211E+03   -0.39185E-05   -0.39148E-05  6032   0.807E-05 0.707E-06
CGA:  56    -0.236145294911E+03   -0.70077E-06   -0.69351E-06  6032   0.526E-05-0.134E-06
CGA:  57    -0.236145296485E+03   -0.15734E-05   -0.17677E-05  6032   0.194E-04-0.923E-06
CGA:  58    -0.236145297554E+03   -0.10696E-05   -0.10361E-05  6032   0.511E-05-0.446E-06
CGA:  59    -0.236145298089E+03   -0.53462E-06   -0.54274E-06  6032   0.645E-05 0.250E-06
CGA:  60    -0.236145298639E+03   -0.54987E-06   -0.56632E-06  6032   0.409E-05 0.326E-06
CGA:  61    -0.236145299127E+03   -0.48801E-06   -0.48788E-06  6032   0.365E-05 0.228E-07
CGA:  62    -0.236145299508E+03   -0.38067E-06   -0.37718E-06  6032   0.304E-05-0.126E-06
CGA:  63    -0.236145299713E+03   -0.20578E-06   -0.20605E-06  6032   0.155E-05 0.789E-08
CGA:  64    -0.236145299935E+03   -0.22177E-06   -0.21865E-06  6032   0.212E-05 0.271E-06
CGA:  65    -0.236145300107E+03   -0.17174E-06   -0.18318E-06  6032   0.898E-06 0.217E-06
CGA:  66    -0.236145300234E+03   -0.12731E-06   -0.12665E-06  6032   0.842E-06 0.569E-07
CGA:  67    -0.236145300338E+03   -0.10392E-06   -0.10315E-06  6032   0.541E-06-0.894E-07
CGA:  68    -0.236145300381E+03   -0.43068E-07   -0.40909E-07  6032   0.512E-06-0.574E-07
CGA:  69    -0.236145300480E+03   -0.99257E-07   -0.10750E-06  6032   0.640E-06-0.621E-07
   1 F= -.23614530E+03 E0= -.23614208E+03  d E =-.967110E-02  mag=     9.1131
