 vasp.5.4.4.18Apr17-6-g9f103f2a35 (build Dec 20 2018 12:05:58) complex          
  
 executed on             LinuxIFC date 2019.06.20  15:57:37
 running on   32 total cores
 distrk:  each k-point on    8 cores,    4 groups
 distr:  one band on NCORES_PER_BAND=   4 cores,    2 groups


--------------------------------------------------------------------------------------------------------


 INCAR:
 POTCAR:    PAW_PBE Al 04Jan2001                  
 POTCAR:    PAW_PBE Mn 06Sep2000                  

 ----------------------------------------------------------------------------- 
|                                                                             |
|           W    W    AA    RRRRR   N    N  II  N    N   GGGG   !!!           |
|           W    W   A  A   R    R  NN   N  II  NN   N  G    G  !!!           |
|           W    W  A    A  R    R  N N  N  II  N N  N  G       !!!           |
|           W WW W  AAAAAA  RRRRR   N  N N  II  N  N N  G  GGG   !            |
|           WW  WW  A    A  R   R   N   NN  II  N   NN  G    G                |
|           W    W  A    A  R    R  N    N  II  N    N   GGGG   !!!           |
|                                                                             |
|      You have enabled k-point parallelism (KPAR>1).                         |
|      This developmental code was originally  written by Paul Kent at ORNL,  |
|      and carefully double checked in Vienna.                                |
|      GW as well as linear response parallelism added by Martijn Marsman     |
|      and Georg Kresse.                                                      |
|      Carefully verify results versus KPAR=1.                                |
|      Report problems to Paul Kent and Vienna.                               |
|                                                                             |
 ----------------------------------------------------------------------------- 

 POTCAR:    PAW_PBE Al 04Jan2001                  
   VRHFIN =Al: s2p1                                                             
   LEXCH  = PE                                                                  
   EATOM  =    53.5387 eV,    3.9350 Ry                                         
                                                                                
   TITEL  = PAW_PBE Al 04Jan2001                                                
   LULTRA =        F    use ultrasoft PP ?                                      
   IUNSCR =        1    unscreen: 0-lin 1-nonlin 2-no                           
   RPACOR =    1.500    partial core radius                                     
   POMASS =   26.981; ZVAL   =    3.000    mass and valenz                      
   RCORE  =    1.900    outmost cutoff radius                                   
   RWIGS  =    2.650; RWIGS  =    1.402    wigner-seitz radius (au A)           
   ENMAX  =  240.300; ENMIN  =  180.225 eV                                      
   ICORE  =        2    local potential                                         
   LCOR   =        T    correct aug charges                                     
   LPAW   =        T    paw PP                                                  
   EAUG   =  291.052                                                            
   DEXC   =    0.000                                                            
   RMAX   =    1.939    core radius for proj-oper                               
   RAUG   =    1.300    factor for augmentation sphere                          
   RDEP   =    1.966    radius for radial grids                                 
   RDEPT  =    1.856    core radius for aug-charge                              
                                                                                
   Atomic configuration                                                         
    6 entries                                                                   
     n  l   j            E        occ.                                          
     1  0  0.50     -1511.1048   2.0000                                         
     2  0  0.50      -108.1629   2.0000                                         
     2  1  1.50       -69.6402   6.0000                                         
     3  0  0.50        -7.7528   2.0000                                         
     3  1  1.50        -2.7121   1.0000                                         
     3  2  2.50        -2.7212   0.0000                                         
   Description                                                                  
     l       E           TYP  RCUT    TYP  RCUT                                 
     0     -7.7528455     23  1.900                                             
     0     -3.3096929     23  1.900                                             
     1     -2.7120682     23  1.900                                             
     1     13.6058260     23  1.900                                             
     2     -2.7211652      7  1.900                                             
  local pseudopotential read in
  partial core-charges read in
  partial kinetic energy density read in
  atomic valenz-charges read in
  non local Contribution for L=           0  read in
    real space projection operators read in
  non local Contribution for L=           0  read in
    real space projection operators read in
  non local Contribution for L=           1  read in
    real space projection operators read in
  non local Contribution for L=           1  read in
    real space projection operators read in
    PAW grid and wavefunctions read in
 
   number of l-projection  operators is LMAX  =           4
   number of lm-projection operators is LMMAX =           8
 
 POTCAR:    PAW_PBE Mn 06Sep2000                  
   VRHFIN =Mn: d6 s1                                                            
   LEXCH  = PE                                                                  
   EATOM  =   416.7541 eV,   30.6306 Ry                                         
                                                                                
   TITEL  = PAW_PBE Mn 06Sep2000                                                
   LULTRA =        F    use ultrasoft PP ?                                      
   IUNSCR =        1    unscreen: 0-lin 1-nonlin 2-no                           
   RPACOR =    2.000    partial core radius                                     
   POMASS =   54.938; ZVAL   =    7.000    mass and valenz                      
   RCORE  =    2.300    outmost cutoff radius                                   
   RWIGS  =    2.500; RWIGS  =    1.323    wigner-seitz radius (au A)           
   ENMAX  =  269.864; ENMIN  =  202.398 eV                                      
   RCLOC  =    1.725    cutoff for local pot                                    
   LCOR   =        T    correct aug charges                                     
   LPAW   =        T    paw PP                                                  
   EAUG   =  500.711                                                            
   DEXC   =    0.000                                                            
   RMAX   =    2.343    core radius for proj-oper                               
   RAUG   =    1.300    factor for augmentation sphere                          
   RDEP   =    2.338    radius for radial grids                                 
   RDEPT  =    1.911    core radius for aug-charge                              
                                                                                
   Atomic configuration                                                         
    9 entries                                                                   
     n  l   j            E        occ.                                          
     1  0  0.50     -6424.8288   2.0000                                         
     2  0  0.50      -739.1154   2.0000                                         
     2  1  1.50      -625.3949   6.0000                                         
     3  0  0.50       -81.6100   2.0000                                         
     3  1  1.50       -50.4667   6.0000                                         
     3  2  2.50        -3.3745   6.0000                                         
     4  0  0.50        -4.1331   1.0000                                         
     4  1  0.50        -4.0817   0.0000                                         
     4  3  2.50        -1.3606   0.0000                                         
   Description                                                                  
     l       E           TYP  RCUT    TYP  RCUT                                 
     2     -3.3744664     23  2.300                                             
     2     -4.7350490     23  2.300                                             
     0     -4.1331408     23  2.300                                             
     0      7.6656614     23  2.300                                             
     1     -2.7211652     23  2.300                                             
     1     20.4087390     23  2.300                                             
  local pseudopotential read in
  partial core-charges read in
  partial kinetic energy density read in
  atomic valenz-charges read in
  non local Contribution for L=           2  read in
    real space projection operators read in
  non local Contribution for L=           2  read in
    real space projection operators read in
  non local Contribution for L=           0  read in
    real space projection operators read in
  non local Contribution for L=           0  read in
    real space projection operators read in
  non local Contribution for L=           1  read in
    real space projection operators read in
  non local Contribution for L=           1  read in
    real space projection operators read in
    PAW grid and wavefunctions read in
 
   number of l-projection  operators is LMAX  =           6
   number of lm-projection operators is LMMAX =          18
 

 ----------------------------------------------------------------------------- 
|                                                                             |
|  ADVICE TO THIS USER RUNNING 'VASP/VAMP'   (HEAR YOUR MASTER'S VOICE ...):  |
|                                                                             |
|      You have a (more or less) 'large supercell' and for larger cells       |
|      it might be more efficient to use real space projection opertators     |
|      So try LREAL= Auto  in the INCAR   file.                               |
|      Mind:          For very  accurate calculation you might also keep the  |
|      reciprocal projection scheme          (i.e. LREAL=.FALSE.)             |
|                                                                             |
 ----------------------------------------------------------------------------- 

  PAW_PBE Al 04Jan2001                  :
 energy of atom  1       EATOM=  -53.5387
 kinetic energy error for atom=    0.0005 (will be added to EATOM!!)
  PAW_PBE Mn 06Sep2000                  :
 energy of atom  2       EATOM= -416.7541
 kinetic energy error for atom=    0.0080 (will be added to EATOM!!)
 
 
 POSCAR: NewRef: 18, @ ['Mn', array([1.37502469, 
  positions in cartesian coordinates
  velocities in cartesian coordinates
  No initial velocities read in
 exchange correlation table for  LEXCH =        8
   RHO(1)=    0.500       N(1)  =     2000
   RHO(2)=  100.500       N(2)  =     4000
 


--------------------------------------------------------------------------------------------------------


 ion  position               nearest neighbor table
   1  0.000  0.000  0.000-  20 2.61  24 2.61  32 2.61  36 2.61  31 2.61  23 2.61  35 2.61  19 2.61
                             3 2.75   7 2.75   5 2.75  13 2.75
   2  0.000  0.000  0.500-  19 2.61  23 2.61  31 2.61  35 2.61  20 2.61  32 2.61  24 2.61  36 2.61
                             4 2.75   8 2.75   6 2.75  14 2.75
   3  0.000  0.333  0.000-  20 2.61  32 2.61  22 2.61  34 2.61  19 2.61  31 2.61  33 2.61  21 2.61
                             9 2.75   1 2.75   5 2.75  15 2.75
   4  0.000  0.333  0.500-  19 2.61  31 2.61  21 2.61  33 2.61  32 2.61  20 2.61  22 2.61  34 2.61
                            10 2.75   2 2.75   6 2.75  16 2.75
   5  0.000  0.667  0.000-  22 2.61  34 2.61  24 2.61  36 2.61  21 2.61  33 2.61  35 2.61  23 2.61
                             3 2.75  11 2.75   1 2.75  17 2.75
   6  0.000  0.667  0.500-  21 2.61  33 2.61  23 2.61  35 2.61  34 2.61  22 2.61  24 2.61  36 2.61
                             4 2.75  12 2.75   2 2.75  18 2.75
   7  0.333  0.000  0.000-  20 2.61  24 2.61  26 2.61  30 2.61  23 2.61  19 2.61  29 2.61  25 2.61
                            13 2.75   1 2.75   9 2.75  11 2.75
   8  0.333  0.000  0.500-  19 2.61  23 2.61  25 2.61  29 2.61  20 2.61  24 2.61  26 2.61  30 2.61
                            14 2.75   2 2.75  10 2.75  12 2.75
   9  0.333  0.333  0.000-  20 2.61  22 2.61  26 2.61  19 2.61  28 2.61  21 2.61  25 2.61  27 2.61
                             3 2.75   7 2.75  11 2.75  15 2.75
  10  0.333  0.333  0.500-  19 2.61  21 2.61  25 2.61  20 2.61  27 2.61  26 2.61  22 2.61  28 2.61
                             4 2.75   8 2.75  12 2.75  16 2.75
  11  0.333  0.667  0.000-  22 2.61  24 2.61  28 2.61  21 2.61  30 2.61  23 2.61  27 2.61  29 2.61
                            17 2.75   5 2.75   9 2.75   7 2.75
  12  0.333  0.667  0.500-  21 2.61  23 2.61  27 2.61  22 2.61  29 2.61  28 2.61  24 2.61  30 2.61
                            18 2.75   6 2.75  10 2.75   8 2.75
  13  0.667  0.000  0.000-  26 2.61  30 2.61  32 2.61  36 2.61  29 2.61  25 2.61  35 2.61  31 2.61
                             7 2.75  15 2.75   1 2.75  17 2.75
  14  0.667  0.000  0.500-  25 2.61  29 2.61  31 2.61  35 2.61  26 2.61  30 2.61  32 2.61  36 2.61
                             8 2.75  16 2.75   2 2.75  18 2.75
  15  0.667  0.333  0.000-  26 2.61  28 2.61  32 2.61  25 2.61  34 2.61  27 2.61  31 2.61  33 2.61
                            17 2.75   9 2.75  13 2.75   3 2.75
  16  0.667  0.333  0.500-  25 2.61  27 2.61  31 2.61  26 2.61  33 2.61  32 2.61  28 2.61  34 2.61
                            18 2.75  10 2.75  14 2.75   4 2.75
  17  0.667  0.667  0.000-  28 2.61  30 2.61  34 2.61  27 2.61  36 2.61  29 2.61  33 2.61  35 2.61
                            11 2.75  15 2.75  13 2.75   5 2.75
  18  0.667  0.667  0.500-  27 2.61  29 2.61  33 2.61  28 2.61  35 2.61  34 2.61  30 2.61  36 2.61
                            12 2.75  16 2.75  14 2.75   6 2.75
  19  0.167  0.167  0.250-  10 2.61   8 2.61   4 2.61   9 2.61   2 2.61   7 2.61   3 2.61   1 2.61
                            21 2.75  25 2.75  23 2.75  31 2.75
  20  0.167  0.167  0.750-   9 2.61   7 2.61   3 2.61  10 2.61   1 2.61   4 2.61   8 2.61   2 2.61
                            22 2.75  26 2.75  24 2.75  32 2.75
  21  0.167  0.500  0.250-  12 2.61  10 2.61   6 2.61  11 2.61   4 2.61   9 2.61   5 2.61   3 2.61
                            19 2.75  23 2.75  27 2.75  33 2.75
  22  0.167  0.500  0.750-  11 2.61   9 2.61   5 2.61  12 2.61   3 2.61   6 2.61  10 2.61   4 2.61
                            20 2.75  24 2.75  28 2.75  34 2.75
  23  0.167  0.833  0.250-   8 2.61  12 2.61   2 2.61   6 2.61  11 2.61   7 2.61   5 2.61   1 2.61
                            21 2.75  29 2.75  19 2.75  35 2.75
  24  0.167  0.833  0.750-   7 2.61  11 2.61   1 2.61   5 2.61   8 2.61  12 2.61   2 2.61   6 2.61
                            22 2.75  30 2.75  20 2.75  36 2.75
  25  0.500  0.167  0.250-  16 2.61  14 2.61  10 2.61  15 2.61   8 2.61  13 2.61   9 2.61   7 2.61
                            19 2.75  27 2.75  31 2.75  29 2.75
  26  0.500  0.167  0.750-  15 2.61  13 2.61   9 2.61  16 2.61   7 2.61  10 2.61  14 2.61   8 2.61
                            20 2.75  28 2.75  32 2.75  30 2.75
  27  0.500  0.500  0.250-  18 2.61  16 2.61  12 2.61  17 2.61  10 2.61  15 2.61  11 2.61   9 2.61
                            21 2.75  25 2.75  29 2.75  33 2.75
  28  0.500  0.500  0.750-  17 2.61  15 2.61  11 2.61  18 2.61   9 2.61  12 2.61  16 2.61  10 2.61
                            22 2.75  26 2.75  30 2.75  34 2.75
  29  0.500  0.833  0.250-  14 2.61  18 2.61   8 2.61  12 2.61  17 2.61  13 2.61  11 2.61   7 2.61
                            23 2.75  27 2.75  35 2.75  25 2.75
  30  0.500  0.833  0.750-  13 2.61  17 2.61   7 2.61  11 2.61  14 2.61  18 2.61   8 2.61  12 2.61
                            24 2.75  28 2.75  36 2.75  26 2.75
  31  0.833  0.167  0.250-   4 2.61  16 2.61  14 2.61   2 2.61  15 2.61   3 2.61  13 2.61   1 2.61
                            25 2.75  33 2.75  19 2.75  35 2.75
  32  0.833  0.167  0.750-   3 2.61  15 2.61  13 2.61   1 2.61   4 2.61  16 2.61   2 2.61  14 2.61
                            26 2.75  34 2.75  20 2.75  36 2.75
  33  0.833  0.500  0.250-   6 2.61  18 2.61  16 2.61   4 2.61  17 2.61   5 2.61  15 2.61   3 2.61
                            27 2.75  31 2.75  35 2.75  21 2.75
  34  0.833  0.500  0.750-   5 2.61  17 2.61  15 2.61   3 2.61   6 2.61  18 2.61   4 2.61  16 2.61
                            28 2.75  32 2.75  36 2.75  22 2.75
  35  0.833  0.833  0.250-   2 2.61   6 2.61  14 2.61  18 2.61  13 2.61   5 2.61  17 2.61   1 2.61
                            29 2.75  33 2.75  31 2.75  23 2.75
  36  0.833  0.833  0.750-   1 2.61   5 2.61  13 2.61  17 2.61   2 2.61  14 2.61   6 2.61  18 2.61
                            30 2.75  34 2.75  32 2.75  24 2.75
 
  LATTYP: Found a simple tetragonal cell.
 ALAT       =     8.2501481662
 C/A-ratio  =     0.8428059861
  
  Lattice vectors:
  
 A1 = (   8.2501481662,   0.0000000000,   0.0000000000)
 A2 = (   0.0000000000,   8.2501481662,   0.0000000000)
 A3 = (   0.0000000000,   0.0000000000,   6.9532742610)


Analysis of symmetry for initial positions (statically):
=====================================================================
 Subroutine PRICEL returns following result:
 
  LATTYP: Found a simple tetragonal cell.
 ALAT       =     2.7500493888
 C/A-ratio  =     1.2642089792
  
  Lattice vectors:
  
 A1 = (   2.7500493888,   0.0000000000,   0.0000000000)
 A2 = (   0.0000000000,   2.7500493888,   0.0000000000)
 A3 = (   0.0000000000,   0.0000000000,   3.4766371305)
 
  18 primitive cells build up your supercell.
 

 Routine SETGRP: Setting up the symmetry group for a 
 simple tetragonal supercell.


 Subroutine GETGRP returns: Found 16 space group operations
 (whereof 16 operations were pure point group operations)
 out of a pool of 16 trial point group operations.


The static configuration has the point symmetry D_4h.


Analysis of symmetry for dynamics (positions and initial velocities):
=====================================================================
 Subroutine PRICEL returns following result:
 
  LATTYP: Found a simple tetragonal cell.
 ALAT       =     2.7500493888
 C/A-ratio  =     1.2642089792
  
  Lattice vectors:
  
 A1 = (   2.7500493888,   0.0000000000,   0.0000000000)
 A2 = (   0.0000000000,   2.7500493888,   0.0000000000)
 A3 = (   0.0000000000,   0.0000000000,   3.4766371305)
 
  18 primitive cells build up your supercell.
 

 Routine SETGRP: Setting up the symmetry group for a 
 simple tetragonal supercell.


 Subroutine GETGRP returns: Found 16 space group operations
 (whereof 16 operations were pure point group operations)
 out of a pool of 16 trial point group operations.


The dynamic configuration has the point symmetry D_4h.


Analysis of structural, dynamic, and magnetic symmetry:
=====================================================================
 Subroutine PRICEL returns:
 Original cell was already a primitive cell.
 

 Routine SETGRP: Setting up the symmetry group for a 
 simple tetragonal supercell.


 Subroutine GETGRP returns: Found  2 space group operations
 (whereof  1 operations were pure point group operations)
 out of a pool of 16 trial point group operations.


The magnetic configuration has the point symmetry C_1 .
 The point group associated with its full space group is C_1h.


 Subroutine INISYM returns: Found  2 space group operations
 (whereof  1 operations are pure point group operations),
 and found     1 'primitive' translations

 
 
 KPOINTS: automatic KPOINTS                       

Automatic generation of k-mesh.
 generate k-points for:    5    5    6
Space group operators:
 irot       det(A)        alpha          n_x          n_y          n_z        tau_x        tau_y        tau_z
    1     1.000000     0.000001     1.000000     0.000000     0.000000     0.000000     0.000000     0.000000
    2    -1.000000   179.999999     0.000000     0.000000     1.000000     0.000000     0.000000     0.500000
 
 Subroutine IBZKPT returns following result:
 ===========================================
 
 Found     52 irreducible k-points:
 
 Following reciprocal coordinates:
            Coordinates               Weight
  0.000000  0.000000  0.000000      1.000000
  0.200000  0.000000  0.000000      2.000000
  0.400000  0.000000  0.000000      2.000000
  0.000000  0.200000  0.000000      2.000000
  0.200000  0.200000  0.000000      2.000000
  0.400000  0.200000  0.000000      2.000000
 -0.400000  0.200000  0.000000      2.000000
 -0.200000  0.200000  0.000000      2.000000
  0.000000  0.400000  0.000000      2.000000
  0.200000  0.400000  0.000000      2.000000
  0.400000  0.400000  0.000000      2.000000
 -0.400000  0.400000  0.000000      2.000000
 -0.200000  0.400000  0.000000      2.000000
  0.000000  0.000000  0.166667      2.000000
  0.200000  0.000000  0.166667      4.000000
  0.400000  0.000000  0.166667      4.000000
  0.000000  0.200000  0.166667      4.000000
  0.200000  0.200000  0.166667      4.000000
  0.400000  0.200000  0.166667      4.000000
 -0.400000  0.200000  0.166667      4.000000
 -0.200000  0.200000  0.166667      4.000000
  0.000000  0.400000  0.166667      4.000000
  0.200000  0.400000  0.166667      4.000000
  0.400000  0.400000  0.166667      4.000000
 -0.400000  0.400000  0.166667      4.000000
 -0.200000  0.400000  0.166667      4.000000
  0.000000  0.000000  0.333333      2.000000
  0.200000  0.000000  0.333333      4.000000
  0.400000  0.000000  0.333333      4.000000
  0.000000  0.200000  0.333333      4.000000
  0.200000  0.200000  0.333333      4.000000
  0.400000  0.200000  0.333333      4.000000
 -0.400000  0.200000  0.333333      4.000000
 -0.200000  0.200000  0.333333      4.000000
  0.000000  0.400000  0.333333      4.000000
  0.200000  0.400000  0.333333      4.000000
  0.400000  0.400000  0.333333      4.000000
 -0.400000  0.400000  0.333333      4.000000
 -0.200000  0.400000  0.333333      4.000000
  0.000000  0.000000  0.500000      1.000000
  0.200000  0.000000  0.500000      2.000000
  0.400000  0.000000  0.500000      2.000000
  0.000000  0.200000  0.500000      2.000000
  0.200000  0.200000  0.500000      2.000000
  0.400000  0.200000  0.500000      2.000000
 -0.400000  0.200000  0.500000      2.000000
 -0.200000  0.200000  0.500000      2.000000
  0.000000  0.400000  0.500000      2.000000
  0.200000  0.400000  0.500000      2.000000
  0.400000  0.400000  0.500000      2.000000
 -0.400000  0.400000  0.500000      2.000000
 -0.200000  0.400000  0.500000      2.000000
 
 Following cartesian coordinates:
            Coordinates               Weight
  0.000000  0.000000  0.000000      1.000000
  0.024242  0.000000  0.000000      2.000000
  0.048484  0.000000  0.000000      2.000000
  0.000000  0.024242  0.000000      2.000000
  0.024242  0.024242  0.000000      2.000000
  0.048484  0.024242  0.000000      2.000000
 -0.048484  0.024242  0.000000      2.000000
 -0.024242  0.024242  0.000000      2.000000
  0.000000  0.048484  0.000000      2.000000
  0.024242  0.048484  0.000000      2.000000
  0.048484  0.048484  0.000000      2.000000
 -0.048484  0.048484  0.000000      2.000000
 -0.024242  0.048484  0.000000      2.000000
  0.000000  0.000000  0.023970      2.000000
  0.024242  0.000000  0.023970      4.000000
  0.048484  0.000000  0.023970      4.000000
  0.000000  0.024242  0.023970      4.000000
  0.024242  0.024242  0.023970      4.000000
  0.048484  0.024242  0.023970      4.000000
 -0.048484  0.024242  0.023970      4.000000
 -0.024242  0.024242  0.023970      4.000000
  0.000000  0.048484  0.023970      4.000000
  0.024242  0.048484  0.023970      4.000000
  0.048484  0.048484  0.023970      4.000000
 -0.048484  0.048484  0.023970      4.000000
 -0.024242  0.048484  0.023970      4.000000
  0.000000  0.000000  0.047939      2.000000
  0.024242  0.000000  0.047939      4.000000
  0.048484  0.000000  0.047939      4.000000
  0.000000  0.024242  0.047939      4.000000
  0.024242  0.024242  0.047939      4.000000
  0.048484  0.024242  0.047939      4.000000
 -0.048484  0.024242  0.047939      4.000000
 -0.024242  0.024242  0.047939      4.000000
  0.000000  0.048484  0.047939      4.000000
  0.024242  0.048484  0.047939      4.000000
  0.048484  0.048484  0.047939      4.000000
 -0.048484  0.048484  0.047939      4.000000
 -0.024242  0.048484  0.047939      4.000000
  0.000000  0.000000  0.071909      1.000000
  0.024242  0.000000  0.071909      2.000000
  0.048484  0.000000  0.071909      2.000000
  0.000000  0.024242  0.071909      2.000000
  0.024242  0.024242  0.071909      2.000000
  0.048484  0.024242  0.071909      2.000000
 -0.048484  0.024242  0.071909      2.000000
 -0.024242  0.024242  0.071909      2.000000
  0.000000  0.048484  0.071909      2.000000
  0.024242  0.048484  0.071909      2.000000
  0.048484  0.048484  0.071909      2.000000
 -0.048484  0.048484  0.071909      2.000000
 -0.024242  0.048484  0.071909      2.000000
 


--------------------------------------------------------------------------------------------------------




 Dimension of arrays:
   k-points           NKPTS =     52   k-points in BZ     NKDIM =     52   number of bands    NBANDS=    116
   number of dos      NEDOS =    301   number of ions     NIONS =     36
   non local maximal  LDIM  =      6   non local SUM 2l+1 LMDIM =     18
   total plane-waves  NPLWV = 139968
   max r-space proj   IRMAX =      1   max aug-charges    IRDMAX=  92271
   dimension x,y,z NGX =    54 NGY =   54 NGZ =   48
   dimension x,y,z NGXF=   108 NGYF=  108 NGZF=   96
   support grid    NGXF=   216 NGYF=  216 NGZF=  192
   ions per type =              18  18
   NGX,Y,Z   is equivalent  to a cutoff of  10.88, 10.88, 11.48 a.u.
   NGXF,Y,Z  is equivalent  to a cutoff of  21.76, 21.76, 22.95 a.u.

 SYSTEM =  AlMn_pv                                 
 POSCAR =  NewRef: 18, @ ['Mn', array([1.37502469, 

 Startparameter for this run:
   NWRITE =      2    write-flag & timer
   PREC   = accura    normal or accurate (medium, high low for compatibility)
   ISTART =      0    job   : 0-new  1-cont  2-samecut
   ICHARG =      2    charge: 1-file 2-atom 10-const
   ISPIN  =      2    spin polarized calculation?
   LNONCOLLINEAR =      F non collinear calculations
   LSORBIT =      F    spin-orbit coupling
   INIWAV =      1    electr: 0-lowe 1-rand  2-diag
   LASPH  =      F    aspherical Exc in radial PAW
   METAGGA=      F    non-selfconsistent MetaGGA calc.

 Electronic Relaxation 1
   ENCUT  =  404.8 eV  29.75 Ry    5.45 a.u.  13.53 13.53 11.41*2*pi/ulx,y,z
   ENINI  =  404.8     initial cutoff
   ENAUG  =  500.7 eV  augmentation charge cutoff
   NELM   =    100;   NELMIN=  4; NELMDL= -8     # of ELM steps 
   EDIFF  = 0.1E-06   stopping-criterion for ELM
   LREAL  =      F    real-space projection
   NLSPLINE    = F    spline interpolate recip. space projectors
   LCOMPAT=      F    compatible to vasp.4.4
   GGA_COMPAT  = T    GGA compatible to vasp.4.4-vasp.4.6
   LMAXPAW     = -100 max onsite density
   LMAXMIX     =    2 max onsite mixed and CHGCAR
   VOSKOWN=      0    Vosko Wilk Nusair interpolation
   ROPT   =    0.00000   0.00000
 Ionic relaxation
   EDIFFG = 0.1E-05   stopping-criterion for IOM
   NSW    =      0    number of steps for IOM
   NBLOCK =      1;   KBLOCK =      1    inner block; outer block 
   IBRION =     -1    ionic relax: 0-MD 1-quasi-New 2-CG
   NFREE  =      0    steps in history (QN), initial steepest desc. (CG)
   ISIF   =      2    stress and relaxation
   IWAVPR =     10    prediction:  0-non 1-charg 2-wave 3-comb
   ISYM   =      2    0-nonsym 1-usesym 2-fastsym
   LCORR  =      T    Harris-Foulkes like correction to forces

   POTIM  = 0.2000    time-step for ionic-motion
   TEIN   =    0.0    initial temperature
   TEBEG  =    0.0;   TEEND  =   0.0 temperature during run
   SMASS  =  -3.00    Nose mass-parameter (am)
   estimated Nose-frequenzy (Omega)   =  0.10E-29 period in steps =****** mass=  -0.156E-26a.u.
   SCALEE = 1.0000    scale energy and forces
   NPACO  =    256;   APACO  = 16.0  distance and # of slots for P.C.
   PSTRESS=    0.0 pullay stress

  Mass of Ions in am
   POMASS =  26.98 54.94
  Ionic Valenz
   ZVAL   =   3.00  7.00
  Atomic Wigner-Seitz radii
   RWIGS  =  -1.00 -1.00
  virtual crystal weights 
   VCA    =   1.00  1.00
   NELECT =     180.0000    total number of electrons
   NUPDOWN=      -1.0000    fix difference up-down

 DOS related values:
   EMIN   =  10.00;   EMAX   =-10.00  energy-range for DOS
   EFERMI =   0.00
   ISMEAR =     1;   SIGMA  =   0.20  broadening in eV -4-tet -1-fermi 0-gaus

 Electronic relaxation 2 (details)
   IALGO  =     58    algorithm
   LDIAG  =      T    sub-space diagonalisation (order eigenvalues)
   LSUBROT=      F    optimize rotation matrix (better conditioning)
   TURBO    =      0    0=normal 1=particle mesh
   IRESTART =      0    0=no restart 2=restart with 2 vectors
   NREBOOT  =      0    no. of reboots
   NMIN     =      0    reboot dimension
   EREF     =   0.00    reference energy to select bands
   IMIX   =      4    mixing-type and parameters
     AMIX     =   0.40;   BMIX     =  1.00
     AMIX_MAG =   1.60;   BMIX_MAG =  1.00
     AMIN     =   0.10
     WC   =   100.;   INIMIX=   1;  MIXPRE=   1;  MAXMIX= -45

 Intra band minimization:
   WEIMIN = 0.0000     energy-eigenvalue tresh-hold
   EBREAK =  0.22E-09  absolut break condition
   DEPER  =   0.30     relativ break condition  

   TIME   =   0.40     timestep for ELM

  volume/ion in A,a.u.               =      13.15        88.72
  Fermi-wavevector in a.u.,A,eV,Ry     =   1.186118  2.241439 19.141722  1.406877
  Thomas-Fermi vector in A             =   2.322298
 
 Write flags
   LWAVE        =      F    write WAVECAR
   LDOWNSAMPLE  =      F    k-point downsampling of WAVECAR
   LCHARG       =      F    write CHGCAR
   LVTOT        =      F    write LOCPOT, total local potential
   LVHAR        =      F    write LOCPOT, Hartree potential only
   LELF         =      F    write electronic localiz. function (ELF)
   LORBIT       =     10    0 simple, 1 ext, 2 COOP (PROOUT), +10 PAW based schemes


 Dipole corrections
   LMONO  =      F    monopole corrections only (constant potential shift)
   LDIPOL =      F    correct potential (dipole corrections)
   IDIPOL =      0    1-x, 2-y, 3-z, 4-all directions 
   EPSILON=  1.0000000 bulk dielectric constant

 Exchange correlation treatment:
   GGA     =    --    GGA type
   LEXCH   =     8    internal setting for exchange type
   VOSKOWN=      0    Vosko Wilk Nusair interpolation
   LHFCALC =     F    Hartree Fock is set to
   LHFONE  =     F    Hartree Fock one center treatment
   AEXX    =    0.0000 exact exchange contribution

 Linear response parameters
   LEPSILON=     F    determine dielectric tensor
   LRPA    =     F    only Hartree local field effects (RPA)
   LNABLA  =     F    use nabla operator in PAW spheres
   LVEL    =     F    velocity operator in full k-point grid
   LINTERFAST=   F  fast interpolation
   KINTER  =     0    interpolate to denser k-point grid
   CSHIFT  =0.1000    complex shift for real part using Kramers Kronig
   OMEGAMAX=  -1.0    maximum frequency
   DEG_THRESHOLD= 0.2000000E-02 threshold for treating states as degnerate
   RTIME   =   -0.100 relaxation time in fs
  (WPLASMAI=    0.000 imaginary part of plasma frequency in eV, 0.658/RTIME)
   DFIELD  = 0.0000000 0.0000000 0.0000000 field for delta impulse in time
 
 Orbital magnetization related:
   ORBITALMAG=     F  switch on orbital magnetization
   LCHIMAG   =     F  perturbation theory with respect to B field
   DQ        =  0.001000  dq finite difference perturbation B field
   LLRAUG    =     F  two centre corrections for induced B field



--------------------------------------------------------------------------------------------------------


 Static calculation
 charge density and potential will be updated during run
 spin polarized calculation
 Conjugate gradient for all bands (Freysoldt, et al. PRB 79, 241103 (2009))
 preconditioned conjugated gradient                                        
 perform sub-space diagonalisation
    before iterative eigenvector-optimisation
 modified Broyden-mixing scheme, WC =      100.0
 initial mixing is a Kerker type mixing with AMIX =  0.4000 and BMIX =      1.0000
 Hartree-type preconditioning will be used
 using additional bands           26
 reciprocal scheme for non local part
 use partial core corrections
 no Harris-corrections to forces 
 use gradient corrections 
 use of overlap-Matrix (Vanderbilt PP)
 Methfessel and Paxton  Order N= 1 SIGMA  =   0.20


--------------------------------------------------------------------------------------------------------


  energy-cutoff  :      404.80
  volume of cell :      473.27
      direct lattice vectors                 reciprocal lattice vectors
     8.250148166  0.000000000  0.000000000     0.121209944  0.000000000  0.000000000
     0.000000000  8.250148166  0.000000000     0.000000000  0.121209944  0.000000000
     0.000000000  0.000000000  6.953274261     0.000000000  0.000000000  0.143817137

  length of vectors
     8.250148166  8.250148166  6.953274261     0.121209944  0.121209944  0.143817137


 
 k-points in units of 2pi/SCALE and weight: automatic KPOINTS                       
   0.00000000  0.00000000  0.00000000       0.007
   0.02424199  0.00000000  0.00000000       0.013
   0.04848398  0.00000000  0.00000000       0.013
   0.00000000  0.02424199  0.00000000       0.013
   0.02424199  0.02424199  0.00000000       0.013
   0.04848398  0.02424199  0.00000000       0.013
  -0.04848398  0.02424199  0.00000000       0.013
  -0.02424199  0.02424199  0.00000000       0.013
   0.00000000  0.04848398  0.00000000       0.013
   0.02424199  0.04848398  0.00000000       0.013
   0.04848398  0.04848398  0.00000000       0.013
  -0.04848398  0.04848398  0.00000000       0.013
  -0.02424199  0.04848398  0.00000000       0.013
   0.00000000  0.00000000  0.02396952       0.013
   0.02424199  0.00000000  0.02396952       0.027
   0.04848398  0.00000000  0.02396952       0.027
   0.00000000  0.02424199  0.02396952       0.027
   0.02424199  0.02424199  0.02396952       0.027
   0.04848398  0.02424199  0.02396952       0.027
  -0.04848398  0.02424199  0.02396952       0.027
  -0.02424199  0.02424199  0.02396952       0.027
   0.00000000  0.04848398  0.02396952       0.027
   0.02424199  0.04848398  0.02396952       0.027
   0.04848398  0.04848398  0.02396952       0.027
  -0.04848398  0.04848398  0.02396952       0.027
  -0.02424199  0.04848398  0.02396952       0.027
   0.00000000  0.00000000  0.04793905       0.013
   0.02424199  0.00000000  0.04793905       0.027
   0.04848398  0.00000000  0.04793905       0.027
   0.00000000  0.02424199  0.04793905       0.027
   0.02424199  0.02424199  0.04793905       0.027
   0.04848398  0.02424199  0.04793905       0.027
  -0.04848398  0.02424199  0.04793905       0.027
  -0.02424199  0.02424199  0.04793905       0.027
   0.00000000  0.04848398  0.04793905       0.027
   0.02424199  0.04848398  0.04793905       0.027
   0.04848398  0.04848398  0.04793905       0.027
  -0.04848398  0.04848398  0.04793905       0.027
  -0.02424199  0.04848398  0.04793905       0.027
   0.00000000  0.00000000  0.07190857       0.007
   0.02424199  0.00000000  0.07190857       0.013
   0.04848398  0.00000000  0.07190857       0.013
   0.00000000  0.02424199  0.07190857       0.013
   0.02424199  0.02424199  0.07190857       0.013
   0.04848398  0.02424199  0.07190857       0.013
  -0.04848398  0.02424199  0.07190857       0.013
  -0.02424199  0.02424199  0.07190857       0.013
   0.00000000  0.04848398  0.07190857       0.013
   0.02424199  0.04848398  0.07190857       0.013
   0.04848398  0.04848398  0.07190857       0.013
  -0.04848398  0.04848398  0.07190857       0.013
  -0.02424199  0.04848398  0.07190857       0.013
 
 k-points in reciprocal lattice and weights: automatic KPOINTS                       
   0.00000000  0.00000000  0.00000000       0.007
   0.20000000  0.00000000  0.00000000       0.013
   0.40000000  0.00000000  0.00000000       0.013
   0.00000000  0.20000000  0.00000000       0.013
   0.20000000  0.20000000  0.00000000       0.013
   0.40000000  0.20000000  0.00000000       0.013
  -0.40000000  0.20000000  0.00000000       0.013
  -0.20000000  0.20000000  0.00000000       0.013
   0.00000000  0.40000000  0.00000000       0.013
   0.20000000  0.40000000  0.00000000       0.013
   0.40000000  0.40000000  0.00000000       0.013
  -0.40000000  0.40000000  0.00000000       0.013
  -0.20000000  0.40000000  0.00000000       0.013
   0.00000000  0.00000000  0.16666667       0.013
   0.20000000  0.00000000  0.16666667       0.027
   0.40000000  0.00000000  0.16666667       0.027
   0.00000000  0.20000000  0.16666667       0.027
   0.20000000  0.20000000  0.16666667       0.027
   0.40000000  0.20000000  0.16666667       0.027
  -0.40000000  0.20000000  0.16666667       0.027
  -0.20000000  0.20000000  0.16666667       0.027
   0.00000000  0.40000000  0.16666667       0.027
   0.20000000  0.40000000  0.16666667       0.027
   0.40000000  0.40000000  0.16666667       0.027
  -0.40000000  0.40000000  0.16666667       0.027
  -0.20000000  0.40000000  0.16666667       0.027
   0.00000000  0.00000000  0.33333333       0.013
   0.20000000  0.00000000  0.33333333       0.027
   0.40000000  0.00000000  0.33333333       0.027
   0.00000000  0.20000000  0.33333333       0.027
   0.20000000  0.20000000  0.33333333       0.027
   0.40000000  0.20000000  0.33333333       0.027
  -0.40000000  0.20000000  0.33333333       0.027
  -0.20000000  0.20000000  0.33333333       0.027
   0.00000000  0.40000000  0.33333333       0.027
   0.20000000  0.40000000  0.33333333       0.027
   0.40000000  0.40000000  0.33333333       0.027
  -0.40000000  0.40000000  0.33333333       0.027
  -0.20000000  0.40000000  0.33333333       0.027
   0.00000000  0.00000000  0.50000000       0.007
   0.20000000  0.00000000  0.50000000       0.013
   0.40000000  0.00000000  0.50000000       0.013
   0.00000000  0.20000000  0.50000000       0.013
   0.20000000  0.20000000  0.50000000       0.013
   0.40000000  0.20000000  0.50000000       0.013
  -0.40000000  0.20000000  0.50000000       0.013
  -0.20000000  0.20000000  0.50000000       0.013
   0.00000000  0.40000000  0.50000000       0.013
   0.20000000  0.40000000  0.50000000       0.013
   0.40000000  0.40000000  0.50000000       0.013
  -0.40000000  0.40000000  0.50000000       0.013
  -0.20000000  0.40000000  0.50000000       0.013
 
 position of ions in fractional coordinates (direct lattice) 
   0.00000000  0.00000000  0.00000000
   0.00000000  0.00000000  0.50000000
   0.00000000  0.33333333  0.00000000
   0.00000000  0.33333333  0.50000000
   0.00000000  0.66666667  0.00000000
   0.00000000  0.66666667  0.50000000
   0.33333333  0.00000000  0.00000000
   0.33333333  0.00000000  0.50000000
   0.33333333  0.33333333  0.00000000
   0.33333333  0.33333333  0.50000000
   0.33333333  0.66666667  0.00000000
   0.33333333  0.66666667  0.50000000
   0.66666667  0.00000000  0.00000000
   0.66666667  0.00000000  0.50000000
   0.66666667  0.33333333  0.00000000
   0.66666667  0.33333333  0.50000000
   0.66666667  0.66666667  0.00000000
   0.66666667  0.66666667  0.50000000
   0.16666667  0.16666667  0.25000000
   0.16666667  0.16666667  0.75000000
   0.16666667  0.50000000  0.25000000
   0.16666667  0.50000000  0.75000000
   0.16666667  0.83333333  0.25000000
   0.16666667  0.83333333  0.75000000
   0.50000000  0.16666667  0.25000000
   0.50000000  0.16666667  0.75000000
   0.50000000  0.50000000  0.25000000
   0.50000000  0.50000000  0.75000000
   0.50000000  0.83333333  0.25000000
   0.50000000  0.83333333  0.75000000
   0.83333333  0.16666667  0.25000000
   0.83333333  0.16666667  0.75000000
   0.83333333  0.50000000  0.25000000
   0.83333333  0.50000000  0.75000000
   0.83333333  0.83333333  0.25000000
   0.83333333  0.83333333  0.75000000
 
 position of ions in cartesian coordinates  (Angst):
   0.00000000  0.00000000  0.00000000
   0.00000000  0.00000000  3.47663713
   0.00000000  2.75004939  0.00000000
   0.00000000  2.75004939  3.47663713
   0.00000000  5.50009878  0.00000000
   0.00000000  5.50009878  3.47663713
   2.75004939  0.00000000  0.00000000
   2.75004939  0.00000000  3.47663713
   2.75004939  2.75004939  0.00000000
   2.75004939  2.75004939  3.47663713
   2.75004939  5.50009878  0.00000000
   2.75004939  5.50009878  3.47663713
   5.50009878  0.00000000  0.00000000
   5.50009878  0.00000000  3.47663713
   5.50009878  2.75004939  0.00000000
   5.50009878  2.75004939  3.47663713
   5.50009878  5.50009878  0.00000000
   5.50009878  5.50009878  3.47663713
   1.37502469  1.37502469  1.73831857
   1.37502469  1.37502469  5.21495570
   1.37502469  4.12507408  1.73831857
   1.37502469  4.12507408  5.21495570
   1.37502469  6.87512347  1.73831857
   1.37502469  6.87512347  5.21495570
   4.12507408  1.37502469  1.73831857
   4.12507408  1.37502469  5.21495570
   4.12507408  4.12507408  1.73831857
   4.12507408  4.12507408  5.21495570
   4.12507408  6.87512347  1.73831857
   4.12507408  6.87512347  5.21495570
   6.87512347  1.37502469  1.73831857
   6.87512347  1.37502469  5.21495570
   6.87512347  4.12507408  1.73831857
   6.87512347  4.12507408  5.21495570
   6.87512347  6.87512347  1.73831857
   6.87512347  6.87512347  5.21495570
 


--------------------------------------------------------------------------------------------------------


 k-point  1 :   0.0000 0.0000 0.0000  plane waves:    8799
 k-point  2 :   0.2000 0.0000 0.0000  plane waves:    8753
 k-point  3 :   0.4000 0.0000 0.0000  plane waves:    8757
 k-point  4 :   0.0000 0.2000 0.0000  plane waves:    8753
 k-point  5 :   0.2000 0.2000 0.0000  plane waves:    8767
 k-point  6 :   0.4000 0.2000 0.0000  plane waves:    8761
 k-point  7 :  -0.4000 0.2000 0.0000  plane waves:    8761
 k-point  8 :  -0.2000 0.2000 0.0000  plane waves:    8767
 k-point  9 :   0.0000 0.4000 0.0000  plane waves:    8757
 k-point 10 :   0.2000 0.4000 0.0000  plane waves:    8761
 k-point 11 :   0.4000 0.4000 0.0000  plane waves:    8731
 k-point 12 :  -0.4000 0.4000 0.0000  plane waves:    8731
 k-point 13 :  -0.2000 0.4000 0.0000  plane waves:    8761
 k-point 14 :   0.0000 0.0000 0.1667  plane waves:    8763
 k-point 15 :   0.2000 0.0000 0.1667  plane waves:    8771
 k-point 16 :   0.4000 0.0000 0.1667  plane waves:    8747
 k-point 17 :   0.0000 0.2000 0.1667  plane waves:    8771
 k-point 18 :   0.2000 0.2000 0.1667  plane waves:    8764
 k-point 19 :   0.4000 0.2000 0.1667  plane waves:    8768
 k-point 20 :  -0.4000 0.2000 0.1667  plane waves:    8768
 k-point 21 :  -0.2000 0.2000 0.1667  plane waves:    8764
 k-point 22 :   0.0000 0.4000 0.1667  plane waves:    8747
 k-point 23 :   0.2000 0.4000 0.1667  plane waves:    8768
 k-point 24 :   0.4000 0.4000 0.1667  plane waves:    8740
 k-point 25 :  -0.4000 0.4000 0.1667  plane waves:    8740
 k-point 26 :  -0.2000 0.4000 0.1667  plane waves:    8768
 k-point 27 :   0.0000 0.0000 0.3333  plane waves:    8743
 k-point 28 :   0.2000 0.0000 0.3333  plane waves:    8736
 k-point 29 :   0.4000 0.0000 0.3333  plane waves:    8753
 k-point 30 :   0.0000 0.2000 0.3333  plane waves:    8736
 k-point 31 :   0.2000 0.2000 0.3333  plane waves:    8753
 k-point 32 :   0.4000 0.2000 0.3333  plane waves:    8743
 k-point 33 :  -0.4000 0.2000 0.3333  plane waves:    8743
 k-point 34 :  -0.2000 0.2000 0.3333  plane waves:    8753
 k-point 35 :   0.0000 0.4000 0.3333  plane waves:    8753
 k-point 36 :   0.2000 0.4000 0.3333  plane waves:    8743
 k-point 37 :   0.4000 0.4000 0.3333  plane waves:    8755
 k-point 38 :  -0.4000 0.4000 0.3333  plane waves:    8755
 k-point 39 :  -0.2000 0.4000 0.3333  plane waves:    8743
 k-point 40 :   0.0000 0.0000 0.5000  plane waves:    8742
 k-point 41 :   0.2000 0.0000 0.5000  plane waves:    8756
 k-point 42 :   0.4000 0.0000 0.5000  plane waves:    8744
 k-point 43 :   0.0000 0.2000 0.5000  plane waves:    8756
 k-point 44 :   0.2000 0.2000 0.5000  plane waves:    8762
 k-point 45 :   0.4000 0.2000 0.5000  plane waves:    8732
 k-point 46 :  -0.4000 0.2000 0.5000  plane waves:    8732
 k-point 47 :  -0.2000 0.2000 0.5000  plane waves:    8762
 k-point 48 :   0.0000 0.4000 0.5000  plane waves:    8744
 k-point 49 :   0.2000 0.4000 0.5000  plane waves:    8732
 k-point 50 :   0.4000 0.4000 0.5000  plane waves:    8736
 k-point 51 :  -0.4000 0.4000 0.5000  plane waves:    8736
 k-point 52 :  -0.2000 0.4000 0.5000  plane waves:    8732

 maximum and minimum number of plane-waves per node :      2210     2164

 maximum number of plane-waves:      8799
 maximum index in each direction: 
   IXMAX=   13   IYMAX=   13   IZMAX=   11
   IXMIN=  -13   IYMIN=  -13   IZMIN=  -11


 parallel 3D FFT for wavefunctions:
    minimum data exchange during FFTs selected (reduces bandwidth)
 parallel 3D FFT for charge:
    minimum data exchange during FFTs selected (reduces bandwidth)


 total amount of memory used by VASP MPI-rank0   775081. kBytes
=======================================================================

   base      :      30000. kBytes
   nonl-proj :      34307. kBytes
   fftplans  :      21726. kBytes
   grid      :      14732. kBytes
   one-center:        279. kBytes
   wavefun   :     674037. kBytes
 
     INWAV:  cpu time    0.0001: real time    0.0001
 Broyden mixing: mesh for mixing (old mesh)
   NGX = 27   NGY = 27   NGZ = 23
  (NGX  =108   NGY  =108   NGZ  = 96)
  gives a total of  16767 points

 initial charge density was supplied:
 charge density of overlapping atoms calculated
 number of electron     180.0000000 magnetization      12.0000000
 keeping initial charge density in first step


--------------------------------------------------------------------------------------------------------


 Maximum index for augmentation-charges        11261 (set IRDMAX)


--------------------------------------------------------------------------------------------------------


 First call to EWALD:  gamma=   0.227
 Maximum number of real-space cells 3x 3x 3
 Maximum number of reciprocal cells 3x 3x 3

    FEWALD:  cpu time    0.0030: real time    0.0030


--------------------------------------- Iteration      1(   1)  ---------------------------------------


    POTLOK:  cpu time    0.2518: real time    0.2518
    SETDIJ:  cpu time    0.3475: real time    0.3485
    TRIAL :  cpu time   19.1504: real time   19.3928
    CORREC:  cpu time    0.0070: real time    0.0072
    --------------------------------------------
      LOOP:  cpu time   19.9838: real time   20.2356

 eigenvalue-minimisations  : 24128
 total energy-change (2. order) : 0.1339636E+04  (-0.5922403E+04)
 number of electron     180.0000000 magnetization      12.0000000
 augmentation part      180.0000000 magnetization      12.0000000

 Free energy of the ion-electron system (eV)
  ---------------------------------------------------
  alpha Z        PSCENC =       532.25742704
  Ewald energy   TEWEN  =     -8601.05107233
  -Hartree energ DENC   =     -1903.73857242
  -exchange      EXHF   =         0.00000000
  -V(xc)+E(xc)   XCENC  =      -664.63275919
  PAW double counting   =      8494.55058411    -7650.81563588
  entropy T*S    EENTRO =         0.00323756
  eigenvalues    EBANDS =      2667.94685159
  atomic energy  EATOM  =      8465.11600846
  ---------------------------------------------------
  free energy    TOTEN  =      1339.63606894 eV

  energy without entropy =     1339.63283138  energy(sigma->0) =     1339.63498975


--------------------------------------------------------------------------------------------------------




--------------------------------------- Iteration      1(   2)  ---------------------------------------


    TRIAL :  cpu time   20.1951: real time   20.4159
    CORREC:  cpu time    0.0090: real time    0.0099
    --------------------------------------------
      LOOP:  cpu time   20.2050: real time   20.4288

 eigenvalue-minimisations  : 24128
 total energy-change (2. order) :-0.1411623E+04  (-0.1371818E+04)
 number of electron     180.0000000 magnetization      12.0000000
 augmentation part      180.0000000 magnetization      12.0000000

 Free energy of the ion-electron system (eV)
  ---------------------------------------------------
  alpha Z        PSCENC =       532.25742704
  Ewald energy   TEWEN  =     -8601.05107233
  -Hartree energ DENC   =     -1903.73857242
  -exchange      EXHF   =         0.00000000
  -V(xc)+E(xc)   XCENC  =      -664.63275919
  PAW double counting   =      8494.55058411    -7650.81563588
  entropy T*S    EENTRO =         0.00306630
  eigenvalues    EBANDS =      1256.32408393
  atomic energy  EATOM  =      8465.11600846
  ---------------------------------------------------
  free energy    TOTEN  =       -71.98686998 eV

  energy without entropy =      -71.98993628  energy(sigma->0) =      -71.98789208


--------------------------------------------------------------------------------------------------------




--------------------------------------- Iteration      1(   3)  ---------------------------------------


    TRIAL :  cpu time   26.5875: real time   26.8014
    CORREC:  cpu time    0.0104: real time    0.0105
    --------------------------------------------
      LOOP:  cpu time   26.6006: real time   26.8152

 eigenvalue-minimisations  : 36580
 total energy-change (2. order) :-0.1691446E+03  (-0.1495231E+03)
 number of electron     180.0000000 magnetization      12.0000000
 augmentation part      180.0000000 magnetization      12.0000000

 Free energy of the ion-electron system (eV)
  ---------------------------------------------------
  alpha Z        PSCENC =       532.25742704
  Ewald energy   TEWEN  =     -8601.05107233
  -Hartree energ DENC   =     -1903.73857242
  -exchange      EXHF   =         0.00000000
  -V(xc)+E(xc)   XCENC  =      -664.63275919
  PAW double counting   =      8494.55058411    -7650.81563588
  entropy T*S    EENTRO =         0.00601983
  eigenvalues    EBANDS =      1087.17656454
  atomic energy  EATOM  =      8465.11600846
  ---------------------------------------------------
  free energy    TOTEN  =      -241.13143584 eV

  energy without entropy =     -241.13745567  energy(sigma->0) =     -241.13344245


--------------------------------------------------------------------------------------------------------




--------------------------------------- Iteration      1(   4)  ---------------------------------------


    TRIAL :  cpu time   28.9672: real time   29.2784
    CORREC:  cpu time    0.0109: real time    0.0114
    --------------------------------------------
      LOOP:  cpu time   28.9804: real time   29.2925

 eigenvalue-minimisations  : 39144
 total energy-change (2. order) :-0.2601406E+02  (-0.2288776E+02)
 number of electron     180.0000000 magnetization      12.0000000
 augmentation part      180.0000000 magnetization      12.0000000

 Free energy of the ion-electron system (eV)
  ---------------------------------------------------
  alpha Z        PSCENC =       532.25742704
  Ewald energy   TEWEN  =     -8601.05107233
  -Hartree energ DENC   =     -1903.73857242
  -exchange      EXHF   =         0.00000000
  -V(xc)+E(xc)   XCENC  =      -664.63275919
  PAW double counting   =      8494.55058411    -7650.81563588
  entropy T*S    EENTRO =         0.03752086
  eigenvalues    EBANDS =      1061.13099856
  atomic energy  EATOM  =      8465.11600846
  ---------------------------------------------------
  free energy    TOTEN  =      -267.14550079 eV

  energy without entropy =     -267.18302165  energy(sigma->0) =     -267.15800774


--------------------------------------------------------------------------------------------------------




--------------------------------------- Iteration      1(   5)  ---------------------------------------


    TRIAL :  cpu time   29.1608: real time   29.3655
    CORREC:  cpu time    0.0111: real time    0.0113
    --------------------------------------------
      LOOP:  cpu time   29.4867: real time   29.6939

 eigenvalue-minimisations  : 39864
 total energy-change (2. order) :-0.2534639E+01  (-0.2417908E+01)
 number of electron     180.0000000 magnetization      12.0000000
 augmentation part      180.0000000 magnetization      12.0000000

 Free energy of the ion-electron system (eV)
  ---------------------------------------------------
  alpha Z        PSCENC =       532.25742704
  Ewald energy   TEWEN  =     -8601.05107233
  -Hartree energ DENC   =     -1903.73857242
  -exchange      EXHF   =         0.00000000
  -V(xc)+E(xc)   XCENC  =      -664.63275919
  PAW double counting   =      8494.55058411    -7650.81563588
  entropy T*S    EENTRO =         0.04258633
  eigenvalues    EBANDS =      1058.59129425
  atomic energy  EATOM  =      8465.11600846
  ---------------------------------------------------
  free energy    TOTEN  =      -269.68013963 eV

  energy without entropy =     -269.72272596  energy(sigma->0) =     -269.69433507


--------------------------------------------------------------------------------------------------------




--------------------------------------- Iteration      1(   6)  ---------------------------------------


    TRIAL :  cpu time   29.4507: real time   29.7470
    CORREC:  cpu time    0.0111: real time    0.0120
    --------------------------------------------
      LOOP:  cpu time   29.4626: real time   29.7624

 eigenvalue-minimisations  : 39656
 total energy-change (2. order) :-0.1972424E+00  (-0.1933607E+00)
 number of electron     180.0000000 magnetization      12.0000000
 augmentation part      180.0000000 magnetization      12.0000000

 Free energy of the ion-electron system (eV)
  ---------------------------------------------------
  alpha Z        PSCENC =       532.25742704
  Ewald energy   TEWEN  =     -8601.05107233
  -Hartree energ DENC   =     -1903.73857242
  -exchange      EXHF   =         0.00000000
  -V(xc)+E(xc)   XCENC  =      -664.63275919
  PAW double counting   =      8494.55058411    -7650.81563588
  entropy T*S    EENTRO =         0.04358664
  eigenvalues    EBANDS =      1058.39305157
  atomic energy  EATOM  =      8465.11600846
  ---------------------------------------------------
  free energy    TOTEN  =      -269.87738199 eV

  energy without entropy =     -269.92096864  energy(sigma->0) =     -269.89191087


--------------------------------------------------------------------------------------------------------




--------------------------------------- Iteration      1(   7)  ---------------------------------------


    TRIAL :  cpu time   29.4399: real time   29.6563
    CORREC:  cpu time    0.0111: real time    0.0113
    --------------------------------------------
      LOOP:  cpu time   29.4519: real time   29.6711

 eigenvalue-minimisations  : 40544
 total energy-change (2. order) :-0.2086866E-01  (-0.2067661E-01)
 number of electron     180.0000000 magnetization      12.0000000
 augmentation part      180.0000000 magnetization      12.0000000

 Free energy of the ion-electron system (eV)
  ---------------------------------------------------
  alpha Z        PSCENC =       532.25742704
  Ewald energy   TEWEN  =     -8601.05107233
  -Hartree energ DENC   =     -1903.73857242
  -exchange      EXHF   =         0.00000000
  -V(xc)+E(xc)   XCENC  =      -664.63275919
  PAW double counting   =      8494.55058411    -7650.81563588
  entropy T*S    EENTRO =         0.04381835
  eigenvalues    EBANDS =      1058.37195122
  atomic energy  EATOM  =      8465.11600846
  ---------------------------------------------------
  free energy    TOTEN  =      -269.89825065 eV

  energy without entropy =     -269.94206899  energy(sigma->0) =     -269.91285676


--------------------------------------------------------------------------------------------------------




--------------------------------------- Iteration      1(   8)  ---------------------------------------


    TRIAL :  cpu time   28.8444: real time   29.2237
    CORREC:  cpu time    0.0114: real time    0.0123
    CHARGE:  cpu time    1.1438: real time    1.1625
    --------------------------------------------
      LOOP:  cpu time   30.0006: real time   30.4020

 eigenvalue-minimisations  : 38952
 total energy-change (2. order) :-0.1572160E-02  (-0.1563013E-02)
 number of electron     179.9999997 magnetization       8.9888694
 augmentation part       42.5176540 magnetization       5.1737895

 Free energy of the ion-electron system (eV)
  ---------------------------------------------------
  alpha Z        PSCENC =       532.25742704
  Ewald energy   TEWEN  =     -8601.05107233
  -Hartree energ DENC   =     -1903.73857242
  -exchange      EXHF   =         0.00000000
  -V(xc)+E(xc)   XCENC  =      -664.63275919
  PAW double counting   =      8494.55058411    -7650.81563588
  entropy T*S    EENTRO =         0.04387836
  eigenvalues    EBANDS =      1058.37031904
  atomic energy  EATOM  =      8465.11600846
  ---------------------------------------------------
  free energy    TOTEN  =      -269.89982281 eV

  energy without entropy =     -269.94370117  energy(sigma->0) =     -269.91444893


--------------------------------------------------------------------------------------------------------




--------------------------------------- Iteration      1(   9)  ---------------------------------------


    POTLOK:  cpu time    0.2622: real time    0.2701
    SETDIJ:  cpu time    0.7598: real time    0.7599
    TRIAL :  cpu time    9.9843: real time   10.1172
    CORREC:  cpu time    3.5849: real time    3.5977
    CHARGE:  cpu time    1.1100: real time    1.1104
    --------------------------------------------
      LOOP:  cpu time   15.7034: real time   15.8590

 eigenvalue-minimisations  :     0
 total energy-change (2. order) : 0.2063634E+03  (-0.1486972E+03)
 number of electron     179.9999996 magnetization       9.2801224
 augmentation part       54.9520673 magnetization       6.0401470

 Free energy of the ion-electron system (eV)
  ---------------------------------------------------
  alpha Z        PSCENC =       532.25742704
  Ewald energy   TEWEN  =     -8601.05107233
  -Hartree energ DENC   =      -835.79417280
  -exchange      EXHF   =         0.00000000
  -V(xc)+E(xc)   XCENC  =      -694.54975828
  PAW double counting   =     12755.65702687   -11808.50986779
  entropy T*S    EENTRO =         0.01916117
  eigenvalues    EBANDS =       123.29408175
  atomic energy  EATOM  =      8465.11600846
  ---------------------------------------------------
  free energy    TOTEN  =       -63.53644871 eV

  energy without entropy =      -63.55560988  energy(sigma->0) =      -63.54283577


--------------------------------------------------------------------------------------------------------




--------------------------------------- Iteration      1(  10)  ---------------------------------------


    POTLOK:  cpu time    0.2478: real time    0.2480
    SETDIJ:  cpu time    0.3609: real time    0.3649
    TRIAL :  cpu time    9.5162: real time    9.5425
    CORREC:  cpu time    3.4785: real time    3.5266
    CHARGE:  cpu time    1.0988: real time    1.0990
    --------------------------------------------
      LOOP:  cpu time   14.7069: real time   14.7871

 eigenvalue-minimisations  :     0
 total energy-change (2. order) :-0.1465800E+03  (-0.8719113E+01)
 number of electron     179.9999996 magnetization       9.2962429
 augmentation part       58.0236226 magnetization       6.2913262

 Free energy of the ion-electron system (eV)
  ---------------------------------------------------
  alpha Z        PSCENC =       532.25742704
  Ewald energy   TEWEN  =     -8601.05107233
  -Hartree energ DENC   =     -1400.13644463
  -exchange      EXHF   =         0.00000000
  -V(xc)+E(xc)   XCENC  =      -675.12481360
  PAW double counting   =     13808.43628442   -12984.51758450
  entropy T*S    EENTRO =         0.00939961
  eigenvalues    EBANDS =       644.88461358
  atomic energy  EATOM  =      8465.11600846
  ---------------------------------------------------
  free energy    TOTEN  =      -210.11642040 eV

  energy without entropy =     -210.12582001  energy(sigma->0) =     -210.11955361


--------------------------------------------------------------------------------------------------------




--------------------------------------- Iteration      1(  11)  ---------------------------------------


    POTLOK:  cpu time    0.2572: real time    0.2671
    SETDIJ:  cpu time    0.3145: real time    0.3145
    TRIAL :  cpu time    9.6235: real time    9.7432
    CORREC:  cpu time    3.4721: real time    3.4996
    CHARGE:  cpu time    1.1620: real time    1.1679
    --------------------------------------------
      LOOP:  cpu time   14.8441: real time   15.0084

 eigenvalue-minimisations  :     0
 total energy-change (2. order) :-0.8809457E+01  (-0.9014192E+01)
 number of electron     179.9999996 magnetization       9.5188143
 augmentation part       59.1780538 magnetization       6.5759078

 Free energy of the ion-electron system (eV)
  ---------------------------------------------------
  alpha Z        PSCENC =       532.25742704
  Ewald energy   TEWEN  =     -8601.05107233
  -Hartree energ DENC   =     -1584.04278333
  -exchange      EXHF   =         0.00000000
  -V(xc)+E(xc)   XCENC  =      -668.68936328
  PAW double counting   =     14522.53180621   -13728.76106532
  entropy T*S    EENTRO =        -0.00855705
  eigenvalues    EBANDS =       843.70376599
  atomic energy  EATOM  =      8465.11600846
  ---------------------------------------------------
  free energy    TOTEN  =      -218.92587695 eV

  energy without entropy =     -218.91731990  energy(sigma->0) =     -218.92302460


--------------------------------------------------------------------------------------------------------




--------------------------------------- Iteration      1(  12)  ---------------------------------------


    POTLOK:  cpu time    0.2480: real time    0.2480
    SETDIJ:  cpu time    0.3218: real time    0.3218
    TRIAL :  cpu time   10.3606: real time   10.4820
    CORREC:  cpu time    3.5493: real time    3.6064
    CHARGE:  cpu time    1.7479: real time    1.7517
    --------------------------------------------
      LOOP:  cpu time   16.2349: real time   16.4175

 eigenvalue-minimisations  :     0
 total energy-change (2. order) :-0.9077799E+01  (-0.5438975E+01)
 number of electron     179.9999996 magnetization       9.4923231
 augmentation part       58.1491355 magnetization       6.5553515

 Free energy of the ion-electron system (eV)
  ---------------------------------------------------
  alpha Z        PSCENC =       532.25742704
  Ewald energy   TEWEN  =     -8601.05107233
  -Hartree energ DENC   =     -1711.23020458
  -exchange      EXHF   =         0.00000000
  -V(xc)+E(xc)   XCENC  =      -664.62762687
  PAW double counting   =     14450.76591285   -13653.86157942
  entropy T*S    EENTRO =        -0.01517646
  eigenvalues    EBANDS =       954.63601635
  atomic energy  EATOM  =      8465.11600846
  ---------------------------------------------------
  free energy    TOTEN  =      -228.00367555 eV

  energy without entropy =     -227.98849909  energy(sigma->0) =     -227.99861673


--------------------------------------------------------------------------------------------------------




--------------------------------------- Iteration      1(  13)  ---------------------------------------


    POTLOK:  cpu time    0.2454: real time    0.2505
    SETDIJ:  cpu time    0.3199: real time    0.3199
    TRIAL :  cpu time    9.4478: real time    9.5757
    CORREC:  cpu time    3.5943: real time    3.6044
    CHARGE:  cpu time    1.1346: real time    1.1373
    --------------------------------------------
      LOOP:  cpu time   14.7482: real time   14.8956

 eigenvalue-minimisations  :     0
 total energy-change (2. order) :-0.5399206E+01  (-0.8598191E+00)
 number of electron     179.9999997 magnetization       9.4106642
 augmentation part       57.3505526 magnetization       6.4660320

 Free energy of the ion-electron system (eV)
  ---------------------------------------------------
  alpha Z        PSCENC =       532.25742704
  Ewald energy   TEWEN  =     -8601.05107233
  -Hartree energ DENC   =     -1698.72228245
  -exchange      EXHF   =         0.00000000
  -V(xc)+E(xc)   XCENC  =      -665.48482301
  PAW double counting   =     14175.10684548   -13353.54187981
  entropy T*S    EENTRO =        -0.01739768
  eigenvalues    EBANDS =       912.93207117
  atomic energy  EATOM  =      8465.11600846
  ---------------------------------------------------
  free energy    TOTEN  =      -233.40288191 eV

  energy without entropy =     -233.38548423  energy(sigma->0) =     -233.39708268


--------------------------------------------------------------------------------------------------------




--------------------------------------- Iteration      1(  14)  ---------------------------------------


    POTLOK:  cpu time    0.2503: real time    0.2508
    SETDIJ:  cpu time    0.3177: real time    0.3180
    TRIAL :  cpu time    9.5670: real time    9.5951
    CORREC:  cpu time    3.5085: real time    3.5238
    CHARGE:  cpu time    1.1012: real time    1.1539
    --------------------------------------------
      LOOP:  cpu time   14.7481: real time   14.8469

 eigenvalue-minimisations  :     0
 total energy-change (2. order) :-0.8543746E+00  (-0.7159140E+00)
 number of electron     179.9999996 magnetization       9.4041279
 augmentation part       57.2138019 magnetization       6.3930141

 Free energy of the ion-electron system (eV)
  ---------------------------------------------------
  alpha Z        PSCENC =       532.25742704
  Ewald energy   TEWEN  =     -8601.05107233
  -Hartree energ DENC   =     -1656.49230057
  -exchange      EXHF   =         0.00000000
  -V(xc)+E(xc)   XCENC  =      -667.01497671
  PAW double counting   =     13872.41150345   -13038.98025028
  entropy T*S    EENTRO =        -0.01631465
  eigenvalues    EBANDS =       859.51380207
  atomic energy  EATOM  =      8465.11600846
  ---------------------------------------------------
  free energy    TOTEN  =      -234.25725655 eV

  energy without entropy =     -234.24094190  energy(sigma->0) =     -234.25181833


--------------------------------------------------------------------------------------------------------




--------------------------------------- Iteration      1(  15)  ---------------------------------------


    POTLOK:  cpu time    0.2494: real time    0.2494
    SETDIJ:  cpu time    0.3323: real time    0.3399
    TRIAL :  cpu time    9.5499: real time    9.6344
    CORREC:  cpu time    3.5108: real time    3.5474
    CHARGE:  cpu time    1.0933: real time    1.0985
    --------------------------------------------
      LOOP:  cpu time   14.7382: real time   14.8728

 eigenvalue-minimisations  :     0
 total energy-change (2. order) :-0.7132835E+00  (-0.5664474E+00)
 number of electron     179.9999996 magnetization       9.2788139
 augmentation part       57.7330267 magnetization       6.3116358

 Free energy of the ion-electron system (eV)
  ---------------------------------------------------
  alpha Z        PSCENC =       532.25742704
  Ewald energy   TEWEN  =     -8601.05107233
  -Hartree energ DENC   =     -1639.34941139
  -exchange      EXHF   =         0.00000000
  -V(xc)+E(xc)   XCENC  =      -667.51251663
  PAW double counting   =     13410.16636400   -12572.34682342
  entropy T*S    EENTRO =        -0.01815836
  eigenvalues    EBANDS =       837.76579887
  atomic energy  EATOM  =      8465.11600846
  ---------------------------------------------------
  free energy    TOTEN  =      -234.97054006 eV

  energy without entropy =     -234.95238170  energy(sigma->0) =     -234.96448727


--------------------------------------------------------------------------------------------------------




--------------------------------------- Iteration      1(  16)  ---------------------------------------


    POTLOK:  cpu time    0.2484: real time    0.2484
    SETDIJ:  cpu time    0.3236: real time    0.3236
    TRIAL :  cpu time   10.3971: real time   10.5468
    CORREC:  cpu time    4.1805: real time    4.2117
    CHARGE:  cpu time    1.0902: real time    1.1238
    --------------------------------------------
      LOOP:  cpu time   16.2632: real time   16.4790

 eigenvalue-minimisations  :     0
 total energy-change (2. order) :-0.5693819E+00  (-0.1677361E+00)
 number of electron     179.9999996 magnetization       9.2555744
 augmentation part       58.1253088 magnetization       6.3421587

 Free energy of the ion-electron system (eV)
  ---------------------------------------------------
  alpha Z        PSCENC =       532.25742704
  Ewald energy   TEWEN  =     -8601.05107233
  -Hartree energ DENC   =     -1655.74952076
  -exchange      EXHF   =         0.00000000
  -V(xc)+E(xc)   XCENC  =      -666.76939971
  PAW double counting   =     13089.74285887   -12255.60213152
  entropy T*S    EENTRO =        -0.01812255
  eigenvalues    EBANDS =       856.53406638
  atomic energy  EATOM  =      8465.11600846
  ---------------------------------------------------
  free energy    TOTEN  =      -235.53992192 eV

  energy without entropy =     -235.52179937  energy(sigma->0) =     -235.53388107


--------------------------------------------------------------------------------------------------------




--------------------------------------- Iteration      1(  17)  ---------------------------------------


    POTLOK:  cpu time    0.2478: real time    0.2478
    SETDIJ:  cpu time    0.3220: real time    0.3220
    TRIAL :  cpu time    9.5009: real time    9.6100
    CORREC:  cpu time    3.5190: real time    3.5230
    CHARGE:  cpu time    1.1417: real time    1.1419
    --------------------------------------------
      LOOP:  cpu time   14.7412: real time   14.8557

 eigenvalue-minimisations  :     0
 total energy-change (2. order) :-0.1676865E+00  (-0.1723177E+00)
 number of electron     179.9999996 magnetization       9.1978496
 augmentation part       58.2216403 magnetization       6.3746333

 Free energy of the ion-electron system (eV)
  ---------------------------------------------------
  alpha Z        PSCENC =       532.25742704
  Ewald energy   TEWEN  =     -8601.05107233
  -Hartree energ DENC   =     -1673.12589333
  -exchange      EXHF   =         0.00000000
  -V(xc)+E(xc)   XCENC  =      -666.02264055
  PAW double counting   =     13035.41092703   -12205.39043848
  entropy T*S    EENTRO =        -0.01752176
  eigenvalues    EBANDS =       877.11619634
  atomic energy  EATOM  =      8465.11600846
  ---------------------------------------------------
  free energy    TOTEN  =      -235.70760838 eV

  energy without entropy =     -235.69008662  energy(sigma->0) =     -235.70176779


--------------------------------------------------------------------------------------------------------




--------------------------------------- Iteration      1(  18)  ---------------------------------------


    POTLOK:  cpu time    0.2494: real time    0.2494
    SETDIJ:  cpu time    0.3175: real time    0.3174
    TRIAL :  cpu time    9.5842: real time    9.6461
    CORREC:  cpu time    3.4711: real time    3.5239
    CHARGE:  cpu time    1.0967: real time    1.1052
    --------------------------------------------
      LOOP:  cpu time   14.7213: real time   14.8455

 eigenvalue-minimisations  :     0
 total energy-change (2. order) :-0.1722782E+00  (-0.8742675E-01)
 number of electron     179.9999996 magnetization       9.1867720
 augmentation part       58.0359184 magnetization       6.3951524

 Free energy of the ion-electron system (eV)
  ---------------------------------------------------
  alpha Z        PSCENC =       532.25742704
  Ewald energy   TEWEN  =     -8601.05107233
  -Hartree energ DENC   =     -1675.75756376
  -exchange      EXHF   =         0.00000000
  -V(xc)+E(xc)   XCENC  =      -665.71098500
  PAW double counting   =     12999.17504241   -12170.40229944
  entropy T*S    EENTRO =        -0.01650703
  eigenvalues    EBANDS =       880.51107776
  atomic energy  EATOM  =      8465.11600846
  ---------------------------------------------------
  free energy    TOTEN  =      -235.87988663 eV

  energy without entropy =     -235.86337960  energy(sigma->0) =     -235.87438428


--------------------------------------------------------------------------------------------------------




--------------------------------------- Iteration      1(  19)  ---------------------------------------


    POTLOK:  cpu time    0.2490: real time    0.2520
    SETDIJ:  cpu time    0.3478: real time    0.3480
    TRIAL :  cpu time    9.5799: real time    9.6675
    CORREC:  cpu time    3.4969: real time    3.5838
    CHARGE:  cpu time    1.1171: real time    1.1172
    --------------------------------------------
      LOOP:  cpu time   14.7950: real time   14.9739

 eigenvalue-minimisations  :     0
 total energy-change (2. order) :-0.8694301E-01  (-0.3518044E-01)
 number of electron     179.9999996 magnetization       9.1706214
 augmentation part       57.8806926 magnetization       6.3946007

 Free energy of the ion-electron system (eV)
  ---------------------------------------------------
  alpha Z        PSCENC =       532.25742704
  Ewald energy   TEWEN  =     -8601.05107233
  -Hartree energ DENC   =     -1665.49818153
  -exchange      EXHF   =         0.00000000
  -V(xc)+E(xc)   XCENC  =      -665.95086396
  PAW double counting   =     12979.46655610   -12148.84328662
  entropy T*S    EENTRO =        -0.01620698
  eigenvalues    EBANDS =       868.55309024
  atomic energy  EATOM  =      8465.11600846
  ---------------------------------------------------
  free energy    TOTEN  =      -235.96682963 eV

  energy without entropy =     -235.95062265  energy(sigma->0) =     -235.96142731


--------------------------------------------------------------------------------------------------------




--------------------------------------- Iteration      1(  20)  ---------------------------------------


    POTLOK:  cpu time    0.2478: real time    0.2478
    SETDIJ:  cpu time    0.3214: real time    0.3214
    TRIAL :  cpu time   10.4711: real time   10.5804
    CORREC:  cpu time    4.2759: real time    4.3311
    CHARGE:  cpu time    1.1172: real time    1.1172
    --------------------------------------------
      LOOP:  cpu time   16.4376: real time   16.6038

 eigenvalue-minimisations  :     0
 total energy-change (2. order) :-0.3509171E-01  (-0.5240600E-01)
 number of electron     179.9999996 magnetization       9.1169886
 augmentation part       57.7858707 magnetization       6.3839283

 Free energy of the ion-electron system (eV)
  ---------------------------------------------------
  alpha Z        PSCENC =       532.25742704
  Ewald energy   TEWEN  =     -8601.05107233
  -Hartree energ DENC   =     -1658.09340955
  -exchange      EXHF   =         0.00000000
  -V(xc)+E(xc)   XCENC  =      -666.15758837
  PAW double counting   =     12971.81376629   -12139.67355210
  entropy T*S    EENTRO =        -0.01479411
  eigenvalues    EBANDS =       859.80270622
  atomic energy  EATOM  =      8465.11600846
  ---------------------------------------------------
  free energy    TOTEN  =      -236.00192134 eV

  energy without entropy =     -235.98712723  energy(sigma->0) =     -235.99698997


--------------------------------------------------------------------------------------------------------




--------------------------------------- Iteration      1(  21)  ---------------------------------------


    POTLOK:  cpu time    0.2480: real time    0.2480
    SETDIJ:  cpu time    0.3225: real time    0.3225
    TRIAL :  cpu time    9.6131: real time    9.7181
    CORREC:  cpu time    3.5050: real time    3.5090
    CHARGE:  cpu time    1.1121: real time    1.1234
    --------------------------------------------
      LOOP:  cpu time   14.8062: real time   14.9285

 eigenvalue-minimisations  :     0
 total energy-change (2. order) :-0.5242448E-01  (-0.2963040E-01)
 number of electron     179.9999996 magnetization       9.1078169
 augmentation part       57.8683158 magnetization       6.3888562

 Free energy of the ion-electron system (eV)
  ---------------------------------------------------
  alpha Z        PSCENC =       532.25742704
  Ewald energy   TEWEN  =     -8601.05107233
  -Hartree energ DENC   =     -1655.69016062
  -exchange      EXHF   =         0.00000000
  -V(xc)+E(xc)   XCENC  =      -666.13938612
  PAW double counting   =     12981.44757422   -12148.72287990
  entropy T*S    EENTRO =        -0.01408579
  eigenvalues    EBANDS =       856.74293755
  atomic energy  EATOM  =      8465.11600846
  ---------------------------------------------------
  free energy    TOTEN  =      -236.05434582 eV

  energy without entropy =     -236.04026003  energy(sigma->0) =     -236.04965055


--------------------------------------------------------------------------------------------------------




--------------------------------------- Iteration      1(  22)  ---------------------------------------


    POTLOK:  cpu time    0.2496: real time    0.2496
    SETDIJ:  cpu time    0.3364: real time    0.3364
    TRIAL :  cpu time    9.5082: real time    9.5688
    CORREC:  cpu time    3.4762: real time    3.5356
    CHARGE:  cpu time    1.0958: real time    1.0982
    --------------------------------------------
      LOOP:  cpu time   14.6674: real time   14.7912

 eigenvalue-minimisations  :     0
 total energy-change (2. order) :-0.2960283E-01  (-0.1034847E-01)
 number of electron     179.9999996 magnetization       9.0936815
 augmentation part       57.9437400 magnetization       6.3872280

 Free energy of the ion-electron system (eV)
  ---------------------------------------------------
  alpha Z        PSCENC =       532.25742704
  Ewald energy   TEWEN  =     -8601.05107233
  -Hartree energ DENC   =     -1661.67972730
  -exchange      EXHF   =         0.00000000
  -V(xc)+E(xc)   XCENC  =      -665.86365753
  PAW double counting   =     13001.00269581   -12169.47976269
  entropy T*S    EENTRO =        -0.01385806
  eigenvalues    EBANDS =       863.62822569
  atomic energy  EATOM  =      8465.11600846
  ---------------------------------------------------
  free energy    TOTEN  =      -236.08394864 eV

  energy without entropy =     -236.07009058  energy(sigma->0) =     -236.07932929


--------------------------------------------------------------------------------------------------------




--------------------------------------- Iteration      1(  23)  ---------------------------------------


    POTLOK:  cpu time    0.2482: real time    0.2483
    SETDIJ:  cpu time    0.3082: real time    0.3286
    TRIAL :  cpu time    9.5928: real time    9.6584
    CORREC:  cpu time    3.5353: real time    3.5523
    CHARGE:  cpu time    1.0985: real time    1.0988
    --------------------------------------------
[...]
  8.439  14.381  -0.000   0.000   0.000  -0.001   0.001   0.001
 14.381  24.508  -0.000   0.000   0.001  -0.001   0.001   0.002
 -0.000  -0.000   1.996   0.000  -0.000   5.750   0.000  -0.000
  0.000   0.000   0.000   1.996  -0.000   0.000   5.748  -0.000
  0.000   0.001  -0.000  -0.000   1.996  -0.000  -0.000   5.750
 -0.001  -0.001   5.750   0.000  -0.000  16.476   0.000  -0.000
  0.001   0.001   0.000   5.748  -0.000   0.000  16.472  -0.000
  0.001   0.002  -0.000  -0.000   5.750  -0.000  -0.000  16.477
 total augmentation occupancy for first ion, spin component:           1
  4.376  -1.251   0.002  -0.000   0.004  -0.001   0.000   0.000
 -1.251   0.377   0.001  -0.001  -0.003   0.000   0.000   0.000
  0.002   0.001   1.432   0.009  -0.003  -0.102  -0.000   0.000
 -0.000  -0.001   0.009   1.512  -0.001  -0.000  -0.102   0.000
  0.004  -0.003  -0.003  -0.001   1.404   0.000   0.000  -0.100
 -0.001   0.000  -0.102  -0.000   0.000   0.008   0.000   0.000
  0.000   0.000  -0.000  -0.102   0.000   0.000   0.007  -0.000
  0.000   0.000   0.000   0.000  -0.100   0.000  -0.000   0.008
 total augmentation occupancy for first ion, spin component:           2
 -0.084   0.025   0.016  -0.029   0.016  -0.001   0.001  -0.001
  0.025  -0.008   0.002  -0.004   0.001  -0.000   0.000  -0.000
  0.016   0.002  -0.030  -0.070  -0.011   0.002   0.001   0.000
 -0.029  -0.004  -0.070  -0.049   0.023   0.001   0.002  -0.000
  0.016   0.001  -0.011   0.023  -0.034   0.000  -0.000   0.002
 -0.001  -0.000   0.002   0.001   0.000  -0.000   0.000   0.000
  0.001   0.000   0.001   0.002  -0.000   0.000  -0.000  -0.000
 -0.001  -0.000   0.000  -0.000   0.002   0.000  -0.000  -0.000


------------------------ aborting loop because EDIFF is reached ----------------------------------------


 


 total charge     
 
# of ion       s       p       d       tot
------------------------------------------
    1        0.404   0.430   0.000   0.834
    2        0.404   0.430   0.000   0.834
    3        0.405   0.425   0.000   0.830
    4        0.405   0.425   0.000   0.830
    5        0.405   0.430   0.000   0.835
    6        0.405   0.429   0.000   0.834
    7        0.405   0.429   0.000   0.834
    8        0.405   0.429   0.000   0.834
    9        0.405   0.430   0.000   0.835
   10        0.404   0.430   0.000   0.834
   11        0.405   0.427   0.000   0.832
   12        0.405   0.427   0.000   0.832
   13        0.405   0.429   0.000   0.834
   14        0.405   0.430   0.000   0.835
   15        0.405   0.428   0.000   0.833
   16        0.405   0.428   0.000   0.833
   17        0.405   0.428   0.000   0.833
   18        0.405   0.429   0.000   0.834
   19        0.333   0.358   5.123   5.813
   20        0.335   0.356   5.132   5.823
   21        0.338   0.352   5.126   5.816
   22        0.337   0.357   5.118   5.812
   23        0.334   0.352   5.140   5.826
   24        0.332   0.358   5.123   5.813
   25        0.334   0.351   5.138   5.823
   26        0.337   0.360   5.113   5.810
   27        0.339   0.356   5.115   5.810
   28        0.339   0.359   5.113   5.810
   29        0.334   0.355   5.132   5.820
   30        0.330   0.356   5.137   5.822
   31        0.330   0.357   5.132   5.818
   32        0.336   0.354   5.129   5.820
   33        0.331   0.356   5.133   5.821
   34        0.334   0.356   5.129   5.819
   35        0.335   0.360   5.115   5.810
   36        0.334   0.356   5.129   5.819
--------------------------------------------------
tot         13.309  14.120  92.277 119.706
 


 magnetization (x)
 
# of ion       s       p       d       tot
------------------------------------------
    1       -0.008  -0.012   0.000  -0.020
    2       -0.008  -0.012   0.000  -0.020
    3       -0.005  -0.008   0.000  -0.013
    4       -0.005  -0.009   0.000  -0.014
    5       -0.008  -0.015   0.000  -0.023
    6       -0.008  -0.015   0.000  -0.023
    7       -0.006  -0.011   0.000  -0.018
    8       -0.006  -0.011   0.000  -0.017
    9       -0.004  -0.008   0.000  -0.012
   10       -0.004  -0.008   0.000  -0.012
   11       -0.002  -0.001   0.000  -0.003
   12       -0.002  -0.002   0.000  -0.004
   13       -0.008  -0.017   0.000  -0.025
   14       -0.008  -0.017   0.000  -0.024
   15       -0.002  -0.001   0.000  -0.003
   16       -0.002  -0.001   0.000  -0.003
   17       -0.002  -0.001   0.000  -0.003
   18       -0.002  -0.002   0.000  -0.004
   19        0.011   0.023   2.285   2.319
   20       -0.028  -0.025  -2.198  -2.250
   21        0.036   0.015   2.551   2.602
   22        0.040   0.027   2.468   2.534
   23       -0.025  -0.020  -2.177  -2.221
   24        0.009   0.017   2.273   2.300
   25        0.033   0.013   2.307   2.353
   26        0.040   0.029   2.438   2.507
   27       -0.034  -0.017  -2.541  -2.592
   28       -0.036  -0.022  -2.480  -2.538
   29       -0.016  -0.006  -2.299  -2.321
   30        0.011   0.008   2.132   2.150
   31        0.003   0.005   2.182   2.190
   32       -0.023  -0.007  -2.398  -2.427
   33        0.013   0.015   2.181   2.209
   34       -0.019  -0.014  -2.312  -2.345
   35        0.032   0.024   2.377   2.434
   36        0.028   0.017   2.264   2.309
--------------------------------------------------
tot         -0.010  -0.070   9.054   8.975
 
    FORLOC:  cpu time    0.0276: real time    0.0364
    FORNL :  cpu time   13.4388: real time   13.6102
    STRESS:  cpu time   19.1186: real time   19.2720
    FORCOR:  cpu time    0.2677: real time    0.2767
    OFIELD:  cpu time    0.0019: real time    0.0019

  FORCE on cell =-STRESS in cart. coord.  units (eV):
  Direction    XX          YY          ZZ          XY          YZ          ZX
  --------------------------------------------------------------------------------------
  Alpha Z   532.25743   532.25743   532.25743
  Ewald   -2702.40749 -2702.40749 -3196.26924    -0.00000    -0.00000    -0.00000
  Hartree   719.77507   720.44657   224.40269     0.26314    -0.00000    -0.00000
  E(xc)    -760.45593  -760.54376  -760.16981    -0.12905     0.00000    -0.00000
  Local     249.39422   247.53043  1264.05917    -0.86645    -0.00000     0.00000
  n-local  -108.49626  -108.79830  -117.06768     0.00905    -0.18484    -0.14357
  augment   521.70793   522.30724   514.18505     0.29300     0.00001     0.00001
  Kinetic  1554.16675  1556.14579  1540.24891     1.06354     0.53210     0.14849
  Fock        0.00000     0.00000     0.00000     0.00000     0.00000     0.00000
  -------------------------------------------------------------------------------------
  Total       5.94172     6.93790     1.64651     0.63323     0.00000     0.00000
  in kB      20.11452    23.48690     5.57393     2.14367     0.00000     0.00000
  external pressure =       16.39 kB  Pullay stress =        0.00 kB


 VOLUME and BASIS-vectors are now :
 -----------------------------------------------------------------------------
  energy-cutoff  :      404.80
  volume of cell :      473.27
      direct lattice vectors                 reciprocal lattice vectors
     8.250148166  0.000000000  0.000000000     0.121209944  0.000000000  0.000000000
     0.000000000  8.250148166  0.000000000     0.000000000  0.121209944  0.000000000
     0.000000000  0.000000000  6.953274261     0.000000000  0.000000000  0.143817137

  length of vectors
     8.250148166  8.250148166  6.953274261     0.121209944  0.121209944  0.143817137


 FORCES acting on ions:
    Electron-Ion                     Ewald-Force                    Non-Local-Force
 -----------------------------------------------------------------------------------------------
   -.186E+00 0.108E+00 -.485E-01   -.239E-08 -.239E-08 0.411E-08   0.282E-01 -.698E-01 0.432E-01
   -.186E+00 0.108E+00 0.485E-01   -.239E-08 -.239E-08 0.411E-08   0.282E-01 -.698E-01 -.432E-01
   -.140E+00 -.160E+00 0.460E-01   -.239E-08 -.802E-09 0.411E-08   0.812E-01 0.519E-01 0.399E-01
   -.140E+00 -.160E+00 -.460E-01   -.239E-08 -.802E-09 0.411E-08   0.812E-01 0.519E-01 -.399E-01
   -.108E-01 0.583E-01 -.108E-01   -.239E-08 0.631E-08 0.411E-08   0.370E-01 -.383E-02 0.121E-01
   -.108E-01 0.583E-01 0.108E-01   -.239E-08 0.631E-08 0.411E-08   0.370E-01 -.383E-02 -.121E-01
   0.175E+00 -.175E+00 0.802E-01   -.802E-09 -.239E-08 0.411E-08   -.182E-01 0.633E-01 -.718E-01
   0.175E+00 -.175E+00 -.802E-01   -.802E-09 -.239E-08 0.411E-08   -.182E-01 0.633E-01 0.718E-01
   -.218E-01 0.131E-01 0.147E+00   -.802E-09 -.802E-09 0.411E-08   0.145E-01 -.145E-01 -.541E-01
   -.218E-01 0.131E-01 -.147E+00   -.802E-09 -.802E-09 0.411E-08   0.145E-01 -.145E-01 0.541E-01
   -.731E-01 0.181E+00 0.491E-01   -.802E-09 0.631E-08 0.411E-08   0.140E-01 -.407E-01 -.517E-01
   -.731E-01 0.181E+00 -.491E-01   -.802E-09 0.631E-08 0.411E-08   0.140E-01 -.407E-01 0.517E-01
   -.366E-02 -.543E-01 0.311E-02   0.631E-08 -.239E-08 0.411E-08   -.158E-01 0.164E-01 -.219E-01
   -.366E-02 -.543E-01 -.311E-02   0.631E-08 -.239E-08 0.411E-08   -.158E-01 0.164E-01 0.219E-01
   0.144E+00 -.697E-01 -.134E-01   0.631E-08 -.802E-09 0.411E-08   -.751E-01 0.296E-01 0.298E-01
   0.144E+00 -.697E-01 0.134E-01   0.631E-08 -.802E-09 0.411E-08   -.751E-01 0.296E-01 -.298E-01
   0.109E+00 0.886E-01 -.125E-01   0.631E-08 0.631E-08 0.411E-08   -.601E-01 -.290E-01 -.265E-01
   0.109E+00 0.886E-01 0.125E-01   0.631E-08 0.631E-08 0.411E-08   -.601E-01 -.290E-01 0.265E-01
   -.947E-01 0.350E+00 0.152E-08   -.169E-07 -.169E-07 -.411E-08   0.390E-01 -.216E+00 0.000E+00
   -.377E+00 0.262E+00 -.660E-08   -.169E-07 -.169E-07 -.411E-08   0.118E+00 -.153E+00 0.000E+00
   -.335E+00 -.399E+00 0.444E-08   -.169E-07 0.802E-09 -.411E-08   0.166E+00 0.743E-01 0.000E+00
   0.870E-01 0.589E+00 -.815E-08   -.169E-07 0.802E-09 -.411E-08   0.712E-02 -.226E+00 0.000E+00
   0.520E+00 -.335E+00 0.792E-09   -.169E-07 0.130E-07 -.411E-08   -.282E+00 0.300E+00 0.000E+00
   0.307E+00 -.481E+00 -.636E-08   -.169E-07 0.130E-07 -.411E-08   -.206E+00 0.364E+00 0.000E+00
   0.784E-01 -.921E-01 -.325E-08   0.802E-09 -.169E-07 -.411E-08   -.536E-01 0.219E+00 0.000E+00
   0.691E-01 -.538E+00 0.412E-09   0.802E-09 -.169E-07 -.411E-08   -.134E+00 0.274E+00 0.000E+00
   -.122E+00 0.532E+00 -.530E-09   0.802E-09 0.802E-09 -.411E-08   0.810E-01 -.180E+00 0.000E+00
   0.527E+00 -.362E-02 -.127E-08   0.802E-09 0.802E-09 -.411E-08   -.257E+00 -.124E+00 0.000E+00
   -.359E+00 -.256E+00 -.431E-08   0.802E-09 0.130E-07 -.411E-08   0.227E+00 0.222E-01 0.000E+00
   -.175E+00 0.213E+00 0.574E-09   0.802E-09 0.130E-07 -.411E-08   0.746E-01 -.165E+00 0.000E+00
   0.999E-02 0.803E-01 -.118E-08   0.130E-07 -.169E-07 -.411E-08   0.679E-01 0.213E-02 0.000E+00
   0.332E+00 0.381E+00 -.348E-08   0.130E-07 -.169E-07 -.411E-08   -.237E+00 -.212E+00 0.000E+00
   0.791E-01 -.124E+00 0.155E-08   0.130E-07 0.802E-09 -.411E-08   -.223E-01 -.258E-02 0.000E+00
   -.375E+00 -.328E+00 -.520E-08   0.130E-07 0.802E-09 -.411E-08   0.230E+00 0.110E+00 0.000E+00
   -.526E-01 0.442E-01 -.183E-08   0.130E-07 0.130E-07 -.411E-08   0.956E-01 -.141E-01 0.000E+00
   -.102E+00 0.131E+00 -.294E-08   0.130E-07 0.130E-07 -.411E-08   0.751E-01 -.828E-01 0.000E+00
 -----------------------------------------------------------------------------------------------
   0.412E-03 0.388E-02 -.719E-07   -.197E-14 0.275E-13 0.265E-14   -.409E-03 -.387E-02 0.000E+00
 
 
 POSITION                                       TOTAL-FORCE (eV/Angst)
 -----------------------------------------------------------------------------------
      0.00000      0.00000      0.00000        -0.160012      0.045170     -0.009398
      0.00000      0.00000      3.47664        -0.160012      0.045170      0.009398
      0.00000      2.75005      0.00000        -0.066372     -0.113967      0.081836
      0.00000      2.75005      3.47664        -0.066372     -0.113967     -0.081836
      0.00000      5.50010      0.00000         0.023538      0.055104      0.000068
      0.00000      5.50010      3.47664         0.023538      0.055104     -0.000068
      2.75005      0.00000      0.00000         0.158494     -0.117985      0.014560
      2.75005      0.00000      3.47664         0.158494     -0.117985     -0.014560
      2.75005      2.75005      0.00000        -0.009111     -0.000106      0.096695
      2.75005      2.75005      3.47664        -0.009111     -0.000106     -0.096695
      2.75005      5.50010      0.00000        -0.060936      0.145220      0.001776
      2.75005      5.50010      3.47664        -0.060936      0.145220     -0.001776
      5.50010      0.00000      0.00000        -0.018325     -0.039679     -0.017215
      5.50010      0.00000      3.47664        -0.018325     -0.039679      0.017215
      5.50010      2.75005      0.00000         0.076196     -0.042759      0.013389
      5.50010      2.75005      3.47664         0.076196     -0.042759     -0.013389
      5.50010      5.50010      0.00000         0.054331      0.062175     -0.036940
      5.50010      5.50010      3.47664         0.054331      0.062175      0.036940
      1.37502      1.37502      1.73832        -0.058450      0.137785      0.000000
      1.37502      1.37502      5.21496        -0.256999      0.120294      0.000000
      1.37502      4.12507      1.73832        -0.171944     -0.336928      0.000000
      1.37502      4.12507      5.21496         0.098057      0.374940      0.000000
      1.37502      6.87512      1.73832         0.238875     -0.044821      0.000000
      1.37502      6.87512      5.21496         0.104829     -0.121822      0.000000
      4.12507      1.37502      1.73832         0.024524      0.129888      0.000000
      4.12507      1.37502      5.21496        -0.064225     -0.268226      0.000000
      4.12507      4.12507      1.73832        -0.046883      0.357963      0.000000
      4.12507      4.12507      5.21496         0.277385     -0.133356      0.000000
      4.12507      6.87512      1.73832        -0.129513     -0.234681      0.000000
      4.12507      6.87512      5.21496        -0.104268      0.041676      0.000000
      6.87512      1.37502      1.73832         0.079132      0.082677      0.000000
      6.87512      1.37502      5.21496         0.093535      0.173935      0.000000
      6.87512      4.12507      1.73832         0.048397     -0.129134      0.000000
      6.87512      4.12507      5.21496        -0.144406     -0.218419      0.000000
      6.87512      6.87512      1.73832         0.043046      0.030530      0.000000
      6.87512      6.87512      5.21496        -0.026699      0.051351      0.000000
 -----------------------------------------------------------------------------------
    total drift:                                0.000003      0.000007     -0.000000


--------------------------------------------------------------------------------------------------------



  FREE ENERGIE OF THE ION-ELECTRON SYSTEM (eV)
  ---------------------------------------------------
  free  energy   TOTEN  =      -236.14530048 eV

  energy  without entropy=     -236.13562938  energy(sigma->0) =     -236.14207678
 


--------------------------------------------------------------------------------------------------------


    POTLOK:  cpu time    0.6680: real time    0.6681


--------------------------------------------------------------------------------------------------------


     LOOP+:  cpu time 1173.6475: real time 1185.0630
    4ORBIT:  cpu time    0.0000: real time    0.0000
 


 total charge     
 
# of ion       s       p       d       tot
------------------------------------------
    1        0.404   0.430   0.000   0.834
    2        0.404   0.430   0.000   0.834
    3        0.405   0.425   0.000   0.830
    4        0.405   0.425   0.000   0.830
    5        0.405   0.430   0.000   0.835
    6        0.405   0.429   0.000   0.834
    7        0.405   0.429   0.000   0.834
    8        0.405   0.429   0.000   0.834
    9        0.405   0.430   0.000   0.835
   10        0.404   0.430   0.000   0.834
   11        0.405   0.427   0.000   0.832
   12        0.405   0.427   0.000   0.832
   13        0.405   0.429   0.000   0.834
   14        0.405   0.430   0.000   0.835
   15        0.405   0.428   0.000   0.833
   16        0.405   0.428   0.000   0.833
   17        0.405   0.428   0.000   0.833
   18        0.405   0.429   0.000   0.834
   19        0.333   0.358   5.123   5.813
   20        0.335   0.356   5.132   5.823
   21        0.338   0.352   5.126   5.816
   22        0.337   0.357   5.118   5.812
   23        0.334   0.352   5.140   5.826
   24        0.332   0.358   5.123   5.813
   25        0.334   0.351   5.138   5.823
   26        0.337   0.360   5.113   5.810
   27        0.339   0.356   5.115   5.810
   28        0.339   0.359   5.113   5.810
   29        0.334   0.355   5.132   5.820
   30        0.330   0.356   5.137   5.822
   31        0.330   0.357   5.132   5.818
   32        0.336   0.354   5.129   5.820
   33        0.331   0.356   5.133   5.821
   34        0.334   0.356   5.129   5.819
   35        0.335   0.360   5.115   5.810
   36        0.334   0.356   5.129   5.819
--------------------------------------------------
tot         13.309  14.120  92.277 119.706
 


 magnetization (x)
 
# of ion       s       p       d       tot
------------------------------------------
    1       -0.008  -0.012   0.000  -0.020
    2       -0.008  -0.012   0.000  -0.020
    3       -0.005  -0.008   0.000  -0.013
    4       -0.005  -0.009   0.000  -0.014
    5       -0.008  -0.015   0.000  -0.023
    6       -0.008  -0.015   0.000  -0.023
    7       -0.006  -0.011   0.000  -0.018
    8       -0.006  -0.011   0.000  -0.017
    9       -0.004  -0.008   0.000  -0.012
   10       -0.004  -0.008   0.000  -0.012
   11       -0.002  -0.001   0.000  -0.003
   12       -0.002  -0.002   0.000  -0.004
   13       -0.008  -0.017   0.000  -0.025
   14       -0.008  -0.017   0.000  -0.024
   15       -0.002  -0.001   0.000  -0.003
   16       -0.002  -0.001   0.000  -0.003
   17       -0.002  -0.001   0.000  -0.003
   18       -0.002  -0.002   0.000  -0.004
   19        0.011   0.023   2.285   2.319
   20       -0.028  -0.025  -2.198  -2.250
   21        0.036   0.015   2.551   2.602
   22        0.040   0.027   2.468   2.534
   23       -0.025  -0.020  -2.177  -2.221
   24        0.009   0.017   2.273   2.300
   25        0.033   0.013   2.307   2.353
   26        0.040   0.029   2.438   2.507
   27       -0.034  -0.017  -2.541  -2.592
   28       -0.036  -0.022  -2.480  -2.538
   29       -0.016  -0.006  -2.299  -2.321
   30        0.011   0.008   2.132   2.150
   31        0.003   0.005   2.182   2.190
   32       -0.023  -0.007  -2.398  -2.427
   33        0.013   0.015   2.181   2.209
   34       -0.019  -0.014  -2.312  -2.345
   35        0.032   0.024   2.377   2.434
   36        0.028   0.017   2.264   2.309
--------------------------------------------------
tot         -0.010  -0.070   9.054   8.975
 

 total amount of memory used by VASP MPI-rank0   775081. kBytes
=======================================================================

   base      :      30000. kBytes
   nonl-proj :      34307. kBytes
   fftplans  :      21726. kBytes
   grid      :      14732. kBytes
   one-center:        279. kBytes
   wavefun   :     674037. kBytes
 
  
  
 General timing and accounting informations for this job:
 ========================================================
  
                  Total CPU time used (sec):     1200.139
                            User time (sec):     1178.558
                          System time (sec):       21.581
                         Elapsed time (sec):     1214.049
  
                   Maximum memory used (kb):      915408.
                   Average memory used (kb):           0.
  
                          Minor page faults:       395695
                          Major page faults:           20
                 Voluntary context switches:         4652
