 vasp.5.4.4.18Apr17-6-g9f103f2a35 (build Dec 20 2018 12:05:58) complex          
  
 executed on             LinuxIFC date 2019.06.20  18:18:35
 running on   32 total cores
 distrk:  each k-point on    8 cores,    4 groups
 distr:  one band on NCORES_PER_BAND=   4 cores,    2 groups


--------------------------------------------------------------------------------------------------------


 INCAR:
 POTCAR:    PAW_PBE Al 04Jan2001                  
 POTCAR:    PAW_PBE Mn 06Sep2000                  

 ----------------------------------------------------------------------------- 
|                                                                             |
|           W    W    AA    RRRRR   N    N  II  N    N   GGGG   !!!           |
|           W    W   A  A   R    R  NN   N  II  NN   N  G    G  !!!           |
|           W    W  A    A  R    R  N N  N  II  N N  N  G       !!!           |
|           W WW W  AAAAAA  RRRRR   N  N N  II  N  N N  G  GGG   !            |
|           WW  WW  A    A  R   R   N   NN  II  N   NN  G    G                |
|           W    W  A    A  R    R  N    N  II  N    N   GGGG   !!!           |
|                                                                             |
|      You have enabled k-point parallelism (KPAR>1).                         |
|      This developmental code was originally  written by Paul Kent at ORNL,  |
|      and carefully double checked in Vienna.                                |
|      GW as well as linear response parallelism added by Martijn Marsman     |
|      and Georg Kresse.                                                      |
|      Carefully verify results versus KPAR=1.                                |
|      Report problems to Paul Kent and Vienna.                               |
|                                                                             |
 ----------------------------------------------------------------------------- 

 POTCAR:    PAW_PBE Al 04Jan2001                  
   VRHFIN =Al: s2p1                                                             
   LEXCH  = PE                                                                  
   EATOM  =    53.5387 eV,    3.9350 Ry                                         
                                                                                
   TITEL  = PAW_PBE Al 04Jan2001                                                
   LULTRA =        F    use ultrasoft PP ?                                      
   IUNSCR =        1    unscreen: 0-lin 1-nonlin 2-no                           
   RPACOR =    1.500    partial core radius                                     
   POMASS =   26.981; ZVAL   =    3.000    mass and valenz                      
   RCORE  =    1.900    outmost cutoff radius                                   
   RWIGS  =    2.650; RWIGS  =    1.402    wigner-seitz radius (au A)           
   ENMAX  =  240.300; ENMIN  =  180.225 eV                                      
   ICORE  =        2    local potential                                         
   LCOR   =        T    correct aug charges                                     
   LPAW   =        T    paw PP                                                  
   EAUG   =  291.052                                                            
   DEXC   =    0.000                                                            
   RMAX   =    1.939    core radius for proj-oper                               
   RAUG   =    1.300    factor for augmentation sphere                          
   RDEP   =    1.966    radius for radial grids                                 
   RDEPT  =    1.856    core radius for aug-charge                              
                                                                                
   Atomic configuration                                                         
    6 entries                                                                   
     n  l   j            E        occ.                                          
     1  0  0.50     -1511.1048   2.0000                                         
     2  0  0.50      -108.1629   2.0000                                         
     2  1  1.50       -69.6402   6.0000                                         
     3  0  0.50        -7.7528   2.0000                                         
     3  1  1.50        -2.7121   1.0000                                         
     3  2  2.50        -2.7212   0.0000                                         
   Description                                                                  
     l       E           TYP  RCUT    TYP  RCUT                                 
     0     -7.7528455     23  1.900                                             
     0     -3.3096929     23  1.900                                             
     1     -2.7120682     23  1.900                                             
     1     13.6058260     23  1.900                                             
     2     -2.7211652      7  1.900                                             
  local pseudopotential read in
  partial core-charges read in
  partial kinetic energy density read in
  atomic valenz-charges read in
  non local Contribution for L=           0  read in
    real space projection operators read in
  non local Contribution for L=           0  read in
    real space projection operators read in
  non local Contribution for L=           1  read in
    real space projection operators read in
  non local Contribution for L=           1  read in
    real space projection operators read in
    PAW grid and wavefunctions read in
 
   number of l-projection  operators is LMAX  =           4
   number of lm-projection operators is LMMAX =           8
 
 POTCAR:    PAW_PBE Mn 06Sep2000                  
   VRHFIN =Mn: d6 s1                                                            
   LEXCH  = PE                                                                  
   EATOM  =   416.7541 eV,   30.6306 Ry                                         
                                                                                
   TITEL  = PAW_PBE Mn 06Sep2000                                                
   LULTRA =        F    use ultrasoft PP ?                                      
   IUNSCR =        1    unscreen: 0-lin 1-nonlin 2-no                           
   RPACOR =    2.000    partial core radius                                     
   POMASS =   54.938; ZVAL   =    7.000    mass and valenz                      
   RCORE  =    2.300    outmost cutoff radius                                   
   RWIGS  =    2.500; RWIGS  =    1.323    wigner-seitz radius (au A)           
   ENMAX  =  269.864; ENMIN  =  202.398 eV                                      
   RCLOC  =    1.725    cutoff for local pot                                    
   LCOR   =        T    correct aug charges                                     
   LPAW   =        T    paw PP                                                  
   EAUG   =  500.711                                                            
   DEXC   =    0.000                                                            
   RMAX   =    2.343    core radius for proj-oper                               
   RAUG   =    1.300    factor for augmentation sphere                          
   RDEP   =    2.338    radius for radial grids                                 
   RDEPT  =    1.911    core radius for aug-charge                              
                                                                                
   Atomic configuration                                                         
    9 entries                                                                   
     n  l   j            E        occ.                                          
     1  0  0.50     -6424.8288   2.0000                                         
     2  0  0.50      -739.1154   2.0000                                         
     2  1  1.50      -625.3949   6.0000                                         
     3  0  0.50       -81.6100   2.0000                                         
     3  1  1.50       -50.4667   6.0000                                         
     3  2  2.50        -3.3745   6.0000                                         
     4  0  0.50        -4.1331   1.0000                                         
     4  1  0.50        -4.0817   0.0000                                         
     4  3  2.50        -1.3606   0.0000                                         
   Description                                                                  
     l       E           TYP  RCUT    TYP  RCUT                                 
     2     -3.3744664     23  2.300                                             
     2     -4.7350490     23  2.300                                             
     0     -4.1331408     23  2.300                                             
     0      7.6656614     23  2.300                                             
     1     -2.7211652     23  2.300                                             
     1     20.4087390     23  2.300                                             
  local pseudopotential read in
  partial core-charges read in
  partial kinetic energy density read in
  atomic valenz-charges read in
  non local Contribution for L=           2  read in
    real space projection operators read in
  non local Contribution for L=           2  read in
    real space projection operators read in
  non local Contribution for L=           0  read in
    real space projection operators read in
  non local Contribution for L=           0  read in
    real space projection operators read in
  non local Contribution for L=           1  read in
    real space projection operators read in
  non local Contribution for L=           1  read in
    real space projection operators read in
    PAW grid and wavefunctions read in
 
   number of l-projection  operators is LMAX  =           6
   number of lm-projection operators is LMMAX =          18
 

 ----------------------------------------------------------------------------- 
|                                                                             |
|  ADVICE TO THIS USER RUNNING 'VASP/VAMP'   (HEAR YOUR MASTER'S VOICE ...):  |
|                                                                             |
|      You have a (more or less) 'large supercell' and for larger cells       |
|      it might be more efficient to use real space projection opertators     |
|      So try LREAL= Auto  in the INCAR   file.                               |
|      Mind:          For very  accurate calculation you might also keep the  |
|      reciprocal projection scheme          (i.e. LREAL=.FALSE.)             |
|                                                                             |
 ----------------------------------------------------------------------------- 

  PAW_PBE Al 04Jan2001                  :
 energy of atom  1       EATOM=  -53.5387
 kinetic energy error for atom=    0.0005 (will be added to EATOM!!)
  PAW_PBE Mn 06Sep2000                  :
 energy of atom  2       EATOM= -416.7541
 kinetic energy error for atom=    0.0080 (will be added to EATOM!!)
 
 
 POSCAR: NewRef: 27, @ ['Mn', array([1.37502469, 
  positions in cartesian coordinates
  velocities in cartesian coordinates
  No initial velocities read in
 exchange correlation table for  LEXCH =        8
   RHO(1)=    0.500       N(1)  =     2000
   RHO(2)=  100.500       N(2)  =     4000
 


--------------------------------------------------------------------------------------------------------


 ion  position               nearest neighbor table
   1  0.000  0.000  0.000-  28 2.61  30 2.61  34 2.61  36 2.61  46 2.61  48 2.61  52 2.61  54 2.61
                             4 2.75  10 2.75   7 2.75  19 2.75
   2  0.000  0.000  0.333-  28 2.61  34 2.61  46 2.61  52 2.61  29 2.61  47 2.61  35 2.61  53 2.61
                             5 2.75  11 2.75   8 2.75  20 2.75
   3  0.000  0.000  0.667-  29 2.61  35 2.61  47 2.61  53 2.61  30 2.61  48 2.61  36 2.61  54 2.61
                             6 2.75  12 2.75   9 2.75  21 2.75
   4  0.000  0.333  0.000-  28 2.61  30 2.61  46 2.61  48 2.61  31 2.61  33 2.61  49 2.61  51 2.61
                            13 2.75   1 2.75   7 2.75  22 2.75
   5  0.000  0.333  0.333-  28 2.61  46 2.61  31 2.61  49 2.61  47 2.61  29 2.61  32 2.61  50 2.61
                            14 2.75   2 2.75   8 2.75  23 2.75
   6  0.000  0.333  0.667-  29 2.61  47 2.61  32 2.61  50 2.61  48 2.61  30 2.61  33 2.61  51 2.61
                            15 2.75   3 2.75   9 2.75  24 2.75
   7  0.000  0.667  0.000-  31 2.61  33 2.61  49 2.61  51 2.61  34 2.61  36 2.61  52 2.61  54 2.61
                             4 2.75  16 2.75   1 2.75  25 2.75
   8  0.000  0.667  0.333-  31 2.61  49 2.61  34 2.61  52 2.61  50 2.61  32 2.61  35 2.61  53 2.61
                             5 2.75  17 2.75   2 2.75  26 2.75
   9  0.000  0.667  0.667-  32 2.61  50 2.61  35 2.61  53 2.61  51 2.61  33 2.61  36 2.61  54 2.61
                             6 2.75  18 2.75   3 2.75  27 2.75
  10  0.333  0.000  0.000-  28 2.61  30 2.61  34 2.61  36 2.61  37 2.61  39 2.61  43 2.61  45 2.61
                            19 2.75   1 2.75  13 2.75  16 2.75
  11  0.333  0.000  0.333-  28 2.61  34 2.61  37 2.61  43 2.61  29 2.61  35 2.61  38 2.61  44 2.61
                            20 2.75   2 2.75  14 2.75  17 2.75
  12  0.333  0.000  0.667-  29 2.61  35 2.61  38 2.61  44 2.61  30 2.61  36 2.61  39 2.61  45 2.61
                            21 2.75   3 2.75  15 2.75  18 2.75
  13  0.333  0.333  0.000-  28 2.61  30 2.61  31 2.61  33 2.61  37 2.61  39 2.61  40 2.61  42 2.61
                             4 2.75  10 2.75  16 2.75  22 2.75
  14  0.333  0.333  0.333-  28 2.61  31 2.61  37 2.61  29 2.61  40 2.61  38 2.61  32 2.61  41 2.61
                             5 2.75  11 2.75  17 2.75  23 2.75
  15  0.333  0.333  0.667-  29 2.61  32 2.61  38 2.61  30 2.61  41 2.61  39 2.61  33 2.61  42 2.61
                             6 2.75  12 2.75  18 2.75  24 2.75
  16  0.333  0.667  0.000-  31 2.61  33 2.61  34 2.61  36 2.61  40 2.61  42 2.61  43 2.61  45 2.61
                            25 2.75   7 2.75  13 2.75  10 2.75
  17  0.333  0.667  0.333-  31 2.61  34 2.61  40 2.61  32 2.61  43 2.61  41 2.61  35 2.61  44 2.61
                            26 2.75   8 2.75  14 2.75  11 2.75
  18  0.333  0.667  0.667-  32 2.61  35 2.61  41 2.61  33 2.61  44 2.61  42 2.61  36 2.61  45 2.61
                            27 2.75   9 2.75  15 2.75  12 2.75
  19  0.667  0.000  0.000-  37 2.61  39 2.61  43 2.61  45 2.61  46 2.61  48 2.61  52 2.61  54 2.61
                            10 2.75  22 2.75   1 2.75  25 2.75
  20  0.667  0.000  0.333-  37 2.61  43 2.61  46 2.61  52 2.61  38 2.61  44 2.61  47 2.61  53 2.61
                            11 2.75  23 2.75   2 2.75  26 2.75
  21  0.667  0.000  0.667-  38 2.61  44 2.61  47 2.61  53 2.61  39 2.61  45 2.61  48 2.61  54 2.61
                            12 2.75  24 2.75   3 2.75  27 2.75
  22  0.667  0.333  0.000-  37 2.61  39 2.61  40 2.61  42 2.61  46 2.61  48 2.61  49 2.61  51 2.61
                            25 2.75  13 2.75  19 2.75   4 2.75
  23  0.667  0.333  0.333-  37 2.61  40 2.61  46 2.61  38 2.61  49 2.61  47 2.61  41 2.61  50 2.61
                            26 2.75  14 2.75  20 2.75   5 2.75
  24  0.667  0.333  0.667-  38 2.61  41 2.61  47 2.61  39 2.61  50 2.61  48 2.61  42 2.61  51 2.61
                            27 2.75  15 2.75  21 2.75   6 2.75
  25  0.667  0.667  0.000-  40 2.61  42 2.61  43 2.61  45 2.61  49 2.61  51 2.61  52 2.61  54 2.61
                            16 2.75  22 2.75  19 2.75   7 2.75
  26  0.667  0.667  0.333-  40 2.61  43 2.61  49 2.61  41 2.61  52 2.61  50 2.61  44 2.61  53 2.61
                            17 2.75  23 2.75  20 2.75   8 2.75
  27  0.667  0.667  0.667-  41 2.61  44 2.61  50 2.61  42 2.61  53 2.61  51 2.61  45 2.61  54 2.61
                            18 2.75  24 2.75  21 2.75   9 2.75
  28  0.167  0.167  0.167-  14 2.61  11 2.61   5 2.61  13 2.61   2 2.61  10 2.61   4 2.61   1 2.61
                            31 2.75  37 2.75  34 2.75  46 2.75
  29  0.167  0.167  0.500-  15 2.61  12 2.61   6 2.61  14 2.61   3 2.61  11 2.61   5 2.61   2 2.61
                            32 2.75  38 2.75  35 2.75  47 2.75
  30  0.167  0.167  0.833-  13 2.61  15 2.61  10 2.61  12 2.61   4 2.61   6 2.61   1 2.61   3 2.61
                            33 2.75  39 2.75  36 2.75  48 2.75
  31  0.167  0.500  0.167-  17 2.61  14 2.61   8 2.61  16 2.61   5 2.61  13 2.61   7 2.61   4 2.61
                            28 2.75  34 2.75  40 2.75  49 2.75
  32  0.167  0.500  0.500-  18 2.61  15 2.61   9 2.61  17 2.61   6 2.61  14 2.61   8 2.61   5 2.61
                            29 2.75  35 2.75  41 2.75  50 2.75
  33  0.167  0.500  0.833-  16 2.61  18 2.61  13 2.61  15 2.61   7 2.61   9 2.61   4 2.61   6 2.61
                            30 2.75  36 2.75  42 2.75  51 2.75
  34  0.167  0.833  0.167-  11 2.61  17 2.61   2 2.61   8 2.61  16 2.61  10 2.61   7 2.61   1 2.61
                            31 2.75  43 2.75  28 2.75  52 2.75
  35  0.167  0.833  0.500-  12 2.61  18 2.61   3 2.61   9 2.61  17 2.61  11 2.61   8 2.61   2 2.61
                            32 2.75  44 2.75  29 2.75  53 2.75
  36  0.167  0.833  0.833-  10 2.61  12 2.61  16 2.61  18 2.61   1 2.61   3 2.61   7 2.61   9 2.61
                            33 2.75  45 2.75  30 2.75  54 2.75
  37  0.500  0.167  0.167-  23 2.61  20 2.61  14 2.61  22 2.61  11 2.61  19 2.61  13 2.61  10 2.61
                            28 2.75  40 2.75  46 2.75  43 2.75
  38  0.500  0.167  0.500-  24 2.61  21 2.61  15 2.61  23 2.61  12 2.61  20 2.61  14 2.61  11 2.61
                            29 2.75  41 2.75  47 2.75  44 2.75
  39  0.500  0.167  0.833-  22 2.61  24 2.61  19 2.61  21 2.61  13 2.61  15 2.61  10 2.61  12 2.61
                            30 2.75  42 2.75  48 2.75  45 2.75
  40  0.500  0.500  0.167-  26 2.61  23 2.61  17 2.61  25 2.61  14 2.61  22 2.61  16 2.61  13 2.61
                            31 2.75  37 2.75  43 2.75  49 2.75
  41  0.500  0.500  0.500-  27 2.61  24 2.61  18 2.61  26 2.61  15 2.61  23 2.61  17 2.61  14 2.61
                            32 2.75  38 2.75  44 2.75  50 2.75
  42  0.500  0.500  0.833-  25 2.61  27 2.61  22 2.61  24 2.61  16 2.61  18 2.61  13 2.61  15 2.61
                            33 2.75  39 2.75  45 2.75  51 2.75
  43  0.500  0.833  0.167-  20 2.61  26 2.61  11 2.61  17 2.61  25 2.61  19 2.61  16 2.61  10 2.61
                            34 2.75  40 2.75  52 2.75  37 2.75
  44  0.500  0.833  0.500-  21 2.61  27 2.61  12 2.61  18 2.61  26 2.61  20 2.61  17 2.61  11 2.61
                            35 2.75  41 2.75  53 2.75  38 2.75
  45  0.500  0.833  0.833-  19 2.61  21 2.61  25 2.61  27 2.61  10 2.61  12 2.61  16 2.61  18 2.61
                            36 2.75  42 2.75  54 2.75  39 2.75
  46  0.833  0.167  0.167-   5 2.61  23 2.61  20 2.61   2 2.61  22 2.61   4 2.61  19 2.61   1 2.61
                            37 2.75  49 2.75  28 2.75  52 2.75
  47  0.833  0.167  0.500-   6 2.61  24 2.61  21 2.61   3 2.61  23 2.61   5 2.61  20 2.61   2 2.61
                            38 2.75  50 2.75  29 2.75  53 2.75
  48  0.833  0.167  0.833-   4 2.61   6 2.61  22 2.61  24 2.61  19 2.61  21 2.61   1 2.61   3 2.61
                            39 2.75  51 2.75  30 2.75  54 2.75
  49  0.833  0.500  0.167-   8 2.61  26 2.61  23 2.61   5 2.61  25 2.61   7 2.61  22 2.61   4 2.61
                            40 2.75  46 2.75  52 2.75  31 2.75
  50  0.833  0.500  0.500-   9 2.61  27 2.61  24 2.61   6 2.61  26 2.61   8 2.61  23 2.61   5 2.61
                            41 2.75  47 2.75  53 2.75  32 2.75
  51  0.833  0.500  0.833-   7 2.61   9 2.61  25 2.61  27 2.61  22 2.61  24 2.61   4 2.61   6 2.61
                            42 2.75  48 2.75  54 2.75  33 2.75
  52  0.833  0.833  0.167-   2 2.61   8 2.61  20 2.61  26 2.61  19 2.61   7 2.61  25 2.61   1 2.61
                            43 2.75  49 2.75  46 2.75  34 2.75
  53  0.833  0.833  0.500-   3 2.61   9 2.61  21 2.61  27 2.61  20 2.61   8 2.61  26 2.61   2 2.61
                            44 2.75  50 2.75  47 2.75  35 2.75
  54  0.833  0.833  0.833-   1 2.61   3 2.61   7 2.61   9 2.61  19 2.61  21 2.61  25 2.61  27 2.61
                            45 2.75  51 2.75  48 2.75  36 2.75
 
  LATTYP: Found a simple tetragonal cell.
 ALAT       =     8.2501481662
 C/A-ratio  =     1.2642089792
  
  Lattice vectors:
  
 A1 = (   8.2501481662,   0.0000000000,   0.0000000000)
 A2 = (   0.0000000000,   8.2501481662,   0.0000000000)
 A3 = (   0.0000000000,   0.0000000000,  10.4299113916)


Analysis of symmetry for initial positions (statically):
=====================================================================
 Subroutine PRICEL returns following result:
 
  LATTYP: Found a simple tetragonal cell.
 ALAT       =     2.7500493888
 C/A-ratio  =     1.2642089792
  
  Lattice vectors:
  
 A1 = (   2.7500493888,   0.0000000000,   0.0000000000)
 A2 = (   0.0000000000,   2.7500493888,   0.0000000000)
 A3 = (   0.0000000000,   0.0000000000,   3.4766371306)
 
  27 primitive cells build up your supercell.
 

 Routine SETGRP: Setting up the symmetry group for a 
 simple tetragonal supercell.


 Subroutine GETGRP returns: Found 16 space group operations
 (whereof 16 operations were pure point group operations)
 out of a pool of 16 trial point group operations.


The static configuration has the point symmetry D_4h.


Analysis of symmetry for dynamics (positions and initial velocities):
=====================================================================
 Subroutine PRICEL returns following result:
 
  LATTYP: Found a simple tetragonal cell.
 ALAT       =     2.7500493888
 C/A-ratio  =     1.2642089792
  
  Lattice vectors:
  
 A1 = (   2.7500493888,   0.0000000000,   0.0000000000)
 A2 = (   0.0000000000,   2.7500493888,   0.0000000000)
 A3 = (   0.0000000000,   0.0000000000,   3.4766371306)
 
  27 primitive cells build up your supercell.
 

 Routine SETGRP: Setting up the symmetry group for a 
 simple tetragonal supercell.


 Subroutine GETGRP returns: Found 16 space group operations
 (whereof 16 operations were pure point group operations)
 out of a pool of 16 trial point group operations.


The dynamic configuration has the point symmetry D_4h.


Analysis of structural, dynamic, and magnetic symmetry:
=====================================================================
 Subroutine PRICEL returns:
 Original cell was already a primitive cell.
 

 Routine SETGRP: Setting up the symmetry group for a 
 simple tetragonal supercell.


 Subroutine GETGRP returns: Found 16 space group operations
 (whereof  4 operations were pure point group operations)
 out of a pool of 16 trial point group operations.


The magnetic configuration has the point symmetry C_2v.
 The point group associated with its full space group is D_4h.


 Subroutine INISYM returns: Found 16 space group operations
 (whereof  4 operations are pure point group operations),
 and found     1 'primitive' translations

 
 
 KPOINTS: automatic KPOINTS                       

Automatic generation of k-mesh.
 generate k-points for:    5    5    4
Space group operators:
 irot       det(A)        alpha          n_x          n_y          n_z        tau_x        tau_y        tau_z
    1     1.000000     0.000001     1.000000     0.000000     0.000000     0.000000     0.000000     0.000000
    2    -1.000000   180.000000     0.000000     0.000000     1.000000     0.000000     0.000000     0.000000
    3    -1.000000   180.000000     0.707107     0.707107     0.000000     0.000000     0.000000     0.000000
    4     1.000000   180.000000     0.707107    -0.707107     0.000000     0.000000     0.000000     0.000000
    5    -1.000000     0.000001     1.000000     0.000000     0.000000     0.666667     0.333333     0.000000
    6     1.000000    90.000000     0.000000     0.000000    -1.000000     0.000000     0.333333     0.000000
    7    -1.000000    90.000000     0.000000     0.000000    -1.000000     0.666667     0.000000     0.000000
    8     1.000000   180.000000     0.000000     0.000000     1.000000     0.666667     0.333333     0.000000
    9     1.000000    90.000000     0.000000     0.000000     1.000000     0.666667     0.000000     0.000000
   10    -1.000000    90.000000     0.000000     0.000000     1.000000     0.000000     0.333333     0.000000
   11     1.000000   180.000000     0.000000     1.000000     0.000000     0.666667     0.000000     0.000000
   12    -1.000000   180.000000     0.000000     1.000000     0.000000     0.000000     0.333333     0.000000
   13     1.000000   180.000000     0.707107     0.707107     0.000000     0.666667     0.333333     0.000000
   14     1.000000   180.000000     1.000000     0.000000     0.000000     0.000000     0.333333     0.000000
   15    -1.000000   180.000000     1.000000     0.000000     0.000000     0.666667     0.000000     0.000000
   16    -1.000000   180.000000     0.707107    -0.707107     0.000000     0.666667     0.333333     0.000000
 
 Subroutine IBZKPT returns following result:
 ===========================================
 
 Found     18 irreducible k-points:
 
 Following reciprocal coordinates:
            Coordinates               Weight
  0.000000  0.000000  0.000000      1.000000
  0.200000  0.000000  0.000000      4.000000
  0.400000  0.000000  0.000000      4.000000
  0.200000  0.200000  0.000000      4.000000
  0.400000  0.200000  0.000000      8.000000
  0.400000  0.400000  0.000000      4.000000
  0.000000  0.000000  0.250000      2.000000
  0.200000  0.000000  0.250000      8.000000
  0.400000  0.000000  0.250000      8.000000
  0.200000  0.200000  0.250000      8.000000
  0.400000  0.200000  0.250000     16.000000
  0.400000  0.400000  0.250000      8.000000
  0.000000  0.000000  0.500000      1.000000
  0.200000  0.000000  0.500000      4.000000
  0.400000  0.000000  0.500000      4.000000
  0.200000  0.200000  0.500000      4.000000
  0.400000  0.200000  0.500000      8.000000
  0.400000  0.400000  0.500000      4.000000
 
 Following cartesian coordinates:
            Coordinates               Weight
  0.000000  0.000000  0.000000      1.000000
  0.024242  0.000000  0.000000      4.000000
  0.048484  0.000000  0.000000      4.000000
  0.024242  0.024242  0.000000      4.000000
  0.048484  0.024242  0.000000      8.000000
  0.048484  0.048484  0.000000      4.000000
  0.000000  0.000000  0.023970      2.000000
  0.024242  0.000000  0.023970      8.000000
  0.048484  0.000000  0.023970      8.000000
  0.024242  0.024242  0.023970      8.000000
  0.048484  0.024242  0.023970     16.000000
  0.048484  0.048484  0.023970      8.000000
  0.000000  0.000000  0.047939      1.000000
  0.024242  0.000000  0.047939      4.000000
  0.048484  0.000000  0.047939      4.000000
  0.024242  0.024242  0.047939      4.000000
  0.048484  0.024242  0.047939      8.000000
  0.048484  0.048484  0.047939      4.000000
 


--------------------------------------------------------------------------------------------------------




 Dimension of arrays:
   k-points           NKPTS =     18   k-points in BZ     NKDIM =     18   number of bands    NBANDS=    172
   number of dos      NEDOS =    301   number of ions     NIONS =     54
   non local maximal  LDIM  =      6   non local SUM 2l+1 LMDIM =     18
   total plane-waves  NPLWV = 204120
   max r-space proj   IRMAX =      1   max aug-charges    IRDMAX=  89713
   dimension x,y,z NGX =    54 NGY =   54 NGZ =   70
   dimension x,y,z NGXF=   108 NGYF=  108 NGZF=  140
   support grid    NGXF=   216 NGYF=  216 NGZF=  280
   ions per type =              27  27
   NGX,Y,Z   is equivalent  to a cutoff of  10.88, 10.88, 11.16 a.u.
   NGXF,Y,Z  is equivalent  to a cutoff of  21.76, 21.76, 22.32 a.u.

 SYSTEM =  AlMn_pv                                 
 POSCAR =  NewRef: 27, @ ['Mn', array([1.37502469, 

 Startparameter for this run:
   NWRITE =      2    write-flag & timer
   PREC   = accura    normal or accurate (medium, high low for compatibility)
   ISTART =      0    job   : 0-new  1-cont  2-samecut
   ICHARG =      2    charge: 1-file 2-atom 10-const
   ISPIN  =      2    spin polarized calculation?
   LNONCOLLINEAR =      F non collinear calculations
   LSORBIT =      F    spin-orbit coupling
   INIWAV =      1    electr: 0-lowe 1-rand  2-diag
   LASPH  =      F    aspherical Exc in radial PAW
   METAGGA=      F    non-selfconsistent MetaGGA calc.

 Electronic Relaxation 1
   ENCUT  =  404.8 eV  29.75 Ry    5.45 a.u.  13.53 13.53 17.11*2*pi/ulx,y,z
   ENINI  =  404.8     initial cutoff
   ENAUG  =  500.7 eV  augmentation charge cutoff
   NELM   =    100;   NELMIN=  4; NELMDL= -8     # of ELM steps 
   EDIFF  = 0.1E-06   stopping-criterion for ELM
   LREAL  =      F    real-space projection
   NLSPLINE    = F    spline interpolate recip. space projectors
   LCOMPAT=      F    compatible to vasp.4.4
   GGA_COMPAT  = T    GGA compatible to vasp.4.4-vasp.4.6
   LMAXPAW     = -100 max onsite density
   LMAXMIX     =    2 max onsite mixed and CHGCAR
   VOSKOWN=      0    Vosko Wilk Nusair interpolation
   ROPT   =    0.00000   0.00000
 Ionic relaxation
   EDIFFG = 0.1E-05   stopping-criterion for IOM
   NSW    =      0    number of steps for IOM
   NBLOCK =      1;   KBLOCK =      1    inner block; outer block 
   IBRION =     -1    ionic relax: 0-MD 1-quasi-New 2-CG
   NFREE  =      0    steps in history (QN), initial steepest desc. (CG)
   ISIF   =      2    stress and relaxation
   IWAVPR =     10    prediction:  0-non 1-charg 2-wave 3-comb
   ISYM   =      2    0-nonsym 1-usesym 2-fastsym
   LCORR  =      T    Harris-Foulkes like correction to forces

   POTIM  = 0.2000    time-step for ionic-motion
   TEIN   =    0.0    initial temperature
   TEBEG  =    0.0;   TEEND  =   0.0 temperature during run
   SMASS  =  -3.00    Nose mass-parameter (am)
   estimated Nose-frequenzy (Omega)   =  0.10E-29 period in steps =****** mass=  -0.156E-26a.u.
   SCALEE = 1.0000    scale energy and forces
   NPACO  =    256;   APACO  = 16.0  distance and # of slots for P.C.
   PSTRESS=    0.0 pullay stress

  Mass of Ions in am
   POMASS =  26.98 54.94
  Ionic Valenz
   ZVAL   =   3.00  7.00
  Atomic Wigner-Seitz radii
   RWIGS  =  -1.00 -1.00
  virtual crystal weights 
   VCA    =   1.00  1.00
   NELECT =     270.0000    total number of electrons
   NUPDOWN=      -1.0000    fix difference up-down

 DOS related values:
   EMIN   =  10.00;   EMAX   =-10.00  energy-range for DOS
   EFERMI =   0.00
   ISMEAR =     1;   SIGMA  =   0.20  broadening in eV -4-tet -1-fermi 0-gaus

 Electronic relaxation 2 (details)
   IALGO  =     58    algorithm
   LDIAG  =      T    sub-space diagonalisation (order eigenvalues)
   LSUBROT=      F    optimize rotation matrix (better conditioning)
   TURBO    =      0    0=normal 1=particle mesh
   IRESTART =      0    0=no restart 2=restart with 2 vectors
   NREBOOT  =      0    no. of reboots
   NMIN     =      0    reboot dimension
   EREF     =   0.00    reference energy to select bands
   IMIX   =      4    mixing-type and parameters
     AMIX     =   0.40;   BMIX     =  1.00
     AMIX_MAG =   1.60;   BMIX_MAG =  1.00
     AMIN     =   0.10
     WC   =   100.;   INIMIX=   1;  MIXPRE=   1;  MAXMIX= -45

 Intra band minimization:
   WEIMIN = 0.0000     energy-eigenvalue tresh-hold
   EBREAK =  0.15E-09  absolut break condition
   DEPER  =   0.30     relativ break condition  

   TIME   =   0.40     timestep for ELM

  volume/ion in A,a.u.               =      13.15        88.72
  Fermi-wavevector in a.u.,A,eV,Ry     =   1.186118  2.241439 19.141722  1.406877
  Thomas-Fermi vector in A             =   2.322298
 
 Write flags
   LWAVE        =      F    write WAVECAR
   LDOWNSAMPLE  =      F    k-point downsampling of WAVECAR
   LCHARG       =      F    write CHGCAR
   LVTOT        =      F    write LOCPOT, total local potential
   LVHAR        =      F    write LOCPOT, Hartree potential only
   LELF         =      F    write electronic localiz. function (ELF)
   LORBIT       =     10    0 simple, 1 ext, 2 COOP (PROOUT), +10 PAW based schemes


 Dipole corrections
   LMONO  =      F    monopole corrections only (constant potential shift)
   LDIPOL =      F    correct potential (dipole corrections)
   IDIPOL =      0    1-x, 2-y, 3-z, 4-all directions 
   EPSILON=  1.0000000 bulk dielectric constant

 Exchange correlation treatment:
   GGA     =    --    GGA type
   LEXCH   =     8    internal setting for exchange type
   VOSKOWN=      0    Vosko Wilk Nusair interpolation
   LHFCALC =     F    Hartree Fock is set to
   LHFONE  =     F    Hartree Fock one center treatment
   AEXX    =    0.0000 exact exchange contribution

 Linear response parameters
   LEPSILON=     F    determine dielectric tensor
   LRPA    =     F    only Hartree local field effects (RPA)
   LNABLA  =     F    use nabla operator in PAW spheres
   LVEL    =     F    velocity operator in full k-point grid
   LINTERFAST=   F  fast interpolation
   KINTER  =     0    interpolate to denser k-point grid
   CSHIFT  =0.1000    complex shift for real part using Kramers Kronig
   OMEGAMAX=  -1.0    maximum frequency
   DEG_THRESHOLD= 0.2000000E-02 threshold for treating states as degnerate
   RTIME   =   -0.100 relaxation time in fs
  (WPLASMAI=    0.000 imaginary part of plasma frequency in eV, 0.658/RTIME)
   DFIELD  = 0.0000000 0.0000000 0.0000000 field for delta impulse in time
 
 Orbital magnetization related:
   ORBITALMAG=     F  switch on orbital magnetization
   LCHIMAG   =     F  perturbation theory with respect to B field
   DQ        =  0.001000  dq finite difference perturbation B field
   LLRAUG    =     F  two centre corrections for induced B field



--------------------------------------------------------------------------------------------------------


 Static calculation
 charge density and potential will be updated during run
 spin polarized calculation
 Conjugate gradient for all bands (Freysoldt, et al. PRB 79, 241103 (2009))
 preconditioned conjugated gradient                                        
 perform sub-space diagonalisation
    before iterative eigenvector-optimisation
 modified Broyden-mixing scheme, WC =      100.0
 initial mixing is a Kerker type mixing with AMIX =  0.4000 and BMIX =      1.0000
 Hartree-type preconditioning will be used
 using additional bands           37
 reciprocal scheme for non local part
 use partial core corrections
 no Harris-corrections to forces 
 use gradient corrections 
 use of overlap-Matrix (Vanderbilt PP)
 Methfessel and Paxton  Order N= 1 SIGMA  =   0.20


--------------------------------------------------------------------------------------------------------


  energy-cutoff  :      404.80
  volume of cell :      709.91
      direct lattice vectors                 reciprocal lattice vectors
     8.250148166  0.000000000  0.000000000     0.121209944  0.000000000  0.000000000
     0.000000000  8.250148166  0.000000000     0.000000000  0.121209944  0.000000000
     0.000000000  0.000000000 10.429911392     0.000000000  0.000000000  0.095878092

  length of vectors
     8.250148166  8.250148166 10.429911392     0.121209944  0.121209944  0.095878092


 
 k-points in units of 2pi/SCALE and weight: automatic KPOINTS                       
   0.00000000  0.00000000  0.00000000       0.010
   0.02424199  0.00000000  0.00000000       0.040
   0.04848398  0.00000000  0.00000000       0.040
   0.02424199  0.02424199  0.00000000       0.040
   0.04848398  0.02424199  0.00000000       0.080
   0.04848398  0.04848398  0.00000000       0.040
   0.00000000  0.00000000  0.02396952       0.020
   0.02424199  0.00000000  0.02396952       0.080
   0.04848398  0.00000000  0.02396952       0.080
   0.02424199  0.02424199  0.02396952       0.080
   0.04848398  0.02424199  0.02396952       0.160
   0.04848398  0.04848398  0.02396952       0.080
   0.00000000  0.00000000  0.04793905       0.010
   0.02424199  0.00000000  0.04793905       0.040
   0.04848398  0.00000000  0.04793905       0.040
   0.02424199  0.02424199  0.04793905       0.040
   0.04848398  0.02424199  0.04793905       0.080
   0.04848398  0.04848398  0.04793905       0.040
 
 k-points in reciprocal lattice and weights: automatic KPOINTS                       
   0.00000000  0.00000000  0.00000000       0.010
   0.20000000  0.00000000  0.00000000       0.040
   0.40000000  0.00000000  0.00000000       0.040
   0.20000000  0.20000000  0.00000000       0.040
   0.40000000  0.20000000  0.00000000       0.080
   0.40000000  0.40000000  0.00000000       0.040
   0.00000000  0.00000000  0.25000000       0.020
   0.20000000  0.00000000  0.25000000       0.080
   0.40000000  0.00000000  0.25000000       0.080
   0.20000000  0.20000000  0.25000000       0.080
   0.40000000  0.20000000  0.25000000       0.160
   0.40000000  0.40000000  0.25000000       0.080
   0.00000000  0.00000000  0.50000000       0.010
   0.20000000  0.00000000  0.50000000       0.040
   0.40000000  0.00000000  0.50000000       0.040
   0.20000000  0.20000000  0.50000000       0.040
   0.40000000  0.20000000  0.50000000       0.080
   0.40000000  0.40000000  0.50000000       0.040
 
 position of ions in fractional coordinates (direct lattice) 
   0.00000000  0.00000000  0.00000000
   0.00000000  0.00000000  0.33333333
   0.00000000  0.00000000  0.66666667
   0.00000000  0.33333333  0.00000000
   0.00000000  0.33333333  0.33333333
   0.00000000  0.33333333  0.66666667
   0.00000000  0.66666667  0.00000000
   0.00000000  0.66666667  0.33333333
   0.00000000  0.66666667  0.66666667
   0.33333333  0.00000000  0.00000000
   0.33333333  0.00000000  0.33333333
   0.33333333  0.00000000  0.66666667
   0.33333333  0.33333333  0.00000000
   0.33333333  0.33333333  0.33333333
   0.33333333  0.33333333  0.66666667
   0.33333333  0.66666667  0.00000000
   0.33333333  0.66666667  0.33333333
   0.33333333  0.66666667  0.66666667
   0.66666667  0.00000000  0.00000000
   0.66666667  0.00000000  0.33333333
   0.66666667  0.00000000  0.66666667
   0.66666667  0.33333333  0.00000000
   0.66666667  0.33333333  0.33333333
   0.66666667  0.33333333  0.66666667
   0.66666667  0.66666667  0.00000000
   0.66666667  0.66666667  0.33333333
   0.66666667  0.66666667  0.66666667
   0.16666667  0.16666667  0.16666667
   0.16666667  0.16666667  0.50000000
   0.16666667  0.16666667  0.83333333
   0.16666667  0.50000000  0.16666667
   0.16666667  0.50000000  0.50000000
   0.16666667  0.50000000  0.83333333
   0.16666667  0.83333333  0.16666667
   0.16666667  0.83333333  0.50000000
   0.16666667  0.83333333  0.83333333
   0.50000000  0.16666667  0.16666667
   0.50000000  0.16666667  0.50000000
   0.50000000  0.16666667  0.83333333
   0.50000000  0.50000000  0.16666667
   0.50000000  0.50000000  0.50000000
   0.50000000  0.50000000  0.83333333
   0.50000000  0.83333333  0.16666667
   0.50000000  0.83333333  0.50000000
   0.50000000  0.83333333  0.83333333
   0.83333333  0.16666667  0.16666667
   0.83333333  0.16666667  0.50000000
   0.83333333  0.16666667  0.83333333
   0.83333333  0.50000000  0.16666667
   0.83333333  0.50000000  0.50000000
   0.83333333  0.50000000  0.83333333
   0.83333333  0.83333333  0.16666667
   0.83333333  0.83333333  0.50000000
   0.83333333  0.83333333  0.83333333
 
 position of ions in cartesian coordinates  (Angst):
   0.00000000  0.00000000  0.00000000
   0.00000000  0.00000000  3.47663713
   0.00000000  0.00000000  6.95327426
   0.00000000  2.75004939  0.00000000
   0.00000000  2.75004939  3.47663713
   0.00000000  2.75004939  6.95327426
   0.00000000  5.50009878  0.00000000
   0.00000000  5.50009878  3.47663713
   0.00000000  5.50009878  6.95327426
   2.75004939  0.00000000  0.00000000
   2.75004939  0.00000000  3.47663713
   2.75004939  0.00000000  6.95327426
   2.75004939  2.75004939  0.00000000
   2.75004939  2.75004939  3.47663713
   2.75004939  2.75004939  6.95327426
   2.75004939  5.50009878  0.00000000
   2.75004939  5.50009878  3.47663713
   2.75004939  5.50009878  6.95327426
   5.50009878  0.00000000  0.00000000
   5.50009878  0.00000000  3.47663713
   5.50009878  0.00000000  6.95327426
   5.50009878  2.75004939  0.00000000
   5.50009878  2.75004939  3.47663713
   5.50009878  2.75004939  6.95327426
   5.50009878  5.50009878  0.00000000
   5.50009878  5.50009878  3.47663713
   5.50009878  5.50009878  6.95327426
   1.37502469  1.37502469  1.73831857
   1.37502469  1.37502469  5.21495570
   1.37502469  1.37502469  8.69159283
   1.37502469  4.12507408  1.73831857
   1.37502469  4.12507408  5.21495570
   1.37502469  4.12507408  8.69159283
   1.37502469  6.87512347  1.73831857
   1.37502469  6.87512347  5.21495570
   1.37502469  6.87512347  8.69159283
   4.12507408  1.37502469  1.73831857
   4.12507408  1.37502469  5.21495570
   4.12507408  1.37502469  8.69159283
   4.12507408  4.12507408  1.73831857
   4.12507408  4.12507408  5.21495570
   4.12507408  4.12507408  8.69159283
   4.12507408  6.87512347  1.73831857
   4.12507408  6.87512347  5.21495570
   4.12507408  6.87512347  8.69159283
   6.87512347  1.37502469  1.73831857
   6.87512347  1.37502469  5.21495570
   6.87512347  1.37502469  8.69159283
   6.87512347  4.12507408  1.73831857
   6.87512347  4.12507408  5.21495570
   6.87512347  4.12507408  8.69159283
   6.87512347  6.87512347  1.73831857
   6.87512347  6.87512347  5.21495570
   6.87512347  6.87512347  8.69159283
 


--------------------------------------------------------------------------------------------------------


 k-point  1 :   0.0000 0.0000 0.0000  plane waves:   13099
 k-point  2 :   0.2000 0.0000 0.0000  plane waves:   13101
 k-point  3 :   0.4000 0.0000 0.0000  plane waves:   13111
 k-point  4 :   0.2000 0.2000 0.0000  plane waves:   13137
 k-point  5 :   0.4000 0.2000 0.0000  plane waves:   13119
 k-point  6 :   0.4000 0.4000 0.0000  plane waves:   13129
 k-point  7 :   0.0000 0.0000 0.2500  plane waves:   13134
 k-point  8 :   0.2000 0.0000 0.2500  plane waves:   13149
 k-point  9 :   0.4000 0.0000 0.2500  plane waves:   13119
 k-point 10 :   0.2000 0.2000 0.2500  plane waves:   13145
 k-point 11 :   0.4000 0.2000 0.2500  plane waves:   13134
 k-point 12 :   0.4000 0.4000 0.2500  plane waves:   13108
 k-point 13 :   0.0000 0.0000 0.5000  plane waves:   13186
 k-point 14 :   0.2000 0.0000 0.5000  plane waves:   13124
 k-point 15 :   0.4000 0.0000 0.5000  plane waves:   13152
 k-point 16 :   0.2000 0.2000 0.5000  plane waves:   13136
 k-point 17 :   0.4000 0.2000 0.5000  plane waves:   13128
 k-point 18 :   0.4000 0.4000 0.5000  plane waves:   13112

 maximum and minimum number of plane-waves per node :      3304     3246

 maximum number of plane-waves:     13186
 maximum index in each direction: 
   IXMAX=   13   IYMAX=   13   IZMAX=   17
   IXMIN=  -13   IYMIN=  -13   IZMIN=  -17


 parallel 3D FFT for wavefunctions:
    minimum data exchange during FFTs selected (reduces bandwidth)
 parallel 3D FFT for charge:
    minimum data exchange during FFTs selected (reduces bandwidth)


 total amount of memory used by VASP MPI-rank0   620501. kBytes
=======================================================================

   base      :      30000. kBytes
   nonl-proj :      19946. kBytes
   fftplans  :      31580. kBytes
   grid      :      21385. kBytes
   one-center:        435. kBytes
   wavefun   :     517155. kBytes
 
     INWAV:  cpu time    0.0000: real time    0.0000
 Broyden mixing: mesh for mixing (old mesh)
   NGX = 27   NGY = 27   NGZ = 35
  (NGX  =108   NGY  =108   NGZ  =140)
  gives a total of  25515 points

 initial charge density was supplied:
 charge density of overlapping atoms calculated
 number of electron     270.0000000 magnetization      15.0000000
 keeping initial charge density in first step


--------------------------------------------------------------------------------------------------------


 Maximum index for augmentation-charges        10967 (set IRDMAX)


--------------------------------------------------------------------------------------------------------


 First call to EWALD:  gamma=   0.199
 Maximum number of real-space cells 3x 3x 2
 Maximum number of reciprocal cells 3x 3x 3

    FEWALD:  cpu time    0.0025: real time    0.0025


--------------------------------------- Iteration      1(   1)  ---------------------------------------


    POTLOK:  cpu time    0.3966: real time    0.3967
    SETDIJ:  cpu time    0.4563: real time    0.4826
    TRIAL :  cpu time   21.3731: real time   21.6454
    CORREC:  cpu time    0.0037: real time    0.0038
    --------------------------------------------
      LOOP:  cpu time   22.4078: real time   22.7124

 eigenvalue-minimisations  : 12384
 total energy-change (2. order) : 0.2041128E+04  (-0.8839156E+04)
 number of electron     270.0000000 magnetization      15.0000000
 augmentation part      270.0000000 magnetization      15.0000000

 Free energy of the ion-electron system (eV)
  ---------------------------------------------------
  alpha Z        PSCENC =       798.38614055
  Ewald energy   TEWEN  =    -12901.57693327
  -Hartree energ DENC   =     -2855.60785864
  -exchange      EXHF   =         0.00000000
  -V(xc)+E(xc)   XCENC  =      -996.12306199
  PAW double counting   =     12741.82587617   -11476.22345381
  entropy T*S    EENTRO =         0.00499618
  eigenvalues    EBANDS =      4032.76842617
  atomic energy  EATOM  =     12697.67401269
  ---------------------------------------------------
  free energy    TOTEN  =      2041.12814404 eV

  energy without entropy =     2041.12314786  energy(sigma->0) =     2041.12647865


--------------------------------------------------------------------------------------------------------




--------------------------------------- Iteration      1(   2)  ---------------------------------------


    TRIAL :  cpu time   21.5132: real time   21.7287
    CORREC:  cpu time    0.0047: real time    0.0048
    --------------------------------------------
      LOOP:  cpu time   21.5193: real time   21.7366

 eigenvalue-minimisations  : 12384
 total energy-change (2. order) :-0.2131090E+04  (-0.2076166E+04)
 number of electron     270.0000000 magnetization      15.0000000
 augmentation part      270.0000000 magnetization      15.0000000

 Free energy of the ion-electron system (eV)
  ---------------------------------------------------
  alpha Z        PSCENC =       798.38614055
  Ewald energy   TEWEN  =    -12901.57693327
  -Hartree energ DENC   =     -2855.60785864
  -exchange      EXHF   =         0.00000000
  -V(xc)+E(xc)   XCENC  =      -996.12306199
  PAW double counting   =     12741.82587617   -11476.22345381
  entropy T*S    EENTRO =        -0.00566631
  eigenvalues    EBANDS =      1901.68951095
  atomic energy  EATOM  =     12697.67401269
  ---------------------------------------------------
  free energy    TOTEN  =       -89.96143367 eV

  energy without entropy =      -89.95576736  energy(sigma->0) =      -89.95954490


--------------------------------------------------------------------------------------------------------




--------------------------------------- Iteration      1(   3)  ---------------------------------------


    TRIAL :  cpu time   29.4223: real time   30.3488
    CORREC:  cpu time    0.0056: real time    0.0056
    --------------------------------------------
      LOOP:  cpu time   29.4289: real time   30.3582

 eigenvalue-minimisations  : 18652
 total energy-change (2. order) :-0.2655125E+03  (-0.2349767E+03)
 number of electron     270.0000000 magnetization      15.0000000
 augmentation part      270.0000000 magnetization      15.0000000

 Free energy of the ion-electron system (eV)
  ---------------------------------------------------
  alpha Z        PSCENC =       798.38614055
  Ewald energy   TEWEN  =    -12901.57693327
  -Hartree energ DENC   =     -2855.60785864
  -exchange      EXHF   =         0.00000000
  -V(xc)+E(xc)   XCENC  =      -996.12306199
  PAW double counting   =     12741.82587617   -11476.22345381
  entropy T*S    EENTRO =         0.00592237
  eigenvalues    EBANDS =      1636.16539990
  atomic energy  EATOM  =     12697.67401269
  ---------------------------------------------------
  free energy    TOTEN  =      -355.47395604 eV

  energy without entropy =     -355.47987841  energy(sigma->0) =     -355.47593017


--------------------------------------------------------------------------------------------------------




--------------------------------------- Iteration      1(   4)  ---------------------------------------


    TRIAL :  cpu time   31.4942: real time   31.8441
    CORREC:  cpu time    0.0059: real time    0.0060
    --------------------------------------------
      LOOP:  cpu time   31.5020: real time   31.8536

 eigenvalue-minimisations  : 20144
 total energy-change (2. order) :-0.4367399E+02  (-0.3856816E+02)
 number of electron     270.0000000 magnetization      15.0000000
 augmentation part      270.0000000 magnetization      15.0000000

 Free energy of the ion-electron system (eV)
  ---------------------------------------------------
  alpha Z        PSCENC =       798.38614055
  Ewald energy   TEWEN  =    -12901.57693327
  -Hartree energ DENC   =     -2855.60785864
  -exchange      EXHF   =         0.00000000
  -V(xc)+E(xc)   XCENC  =      -996.12306199
  PAW double counting   =     12741.82587617   -11476.22345381
  entropy T*S    EENTRO =        -0.00919742
  eigenvalues    EBANDS =      1592.50652805
  atomic energy  EATOM  =     12697.67401269
  ---------------------------------------------------
  free energy    TOTEN  =      -399.14794769 eV

  energy without entropy =     -399.13875027  energy(sigma->0) =     -399.14488188


--------------------------------------------------------------------------------------------------------




--------------------------------------- Iteration      1(   5)  ---------------------------------------


    TRIAL :  cpu time   31.9619: real time   32.9932
    CORREC:  cpu time    0.0060: real time    0.0067
    --------------------------------------------
      LOOP:  cpu time   31.9707: real time   33.0033

 eigenvalue-minimisations  : 20536
 total energy-change (2. order) :-0.4646566E+01  (-0.4444359E+01)
 number of electron     270.0000000 magnetization      15.0000000
 augmentation part      270.0000000 magnetization      15.0000000

 Free energy of the ion-electron system (eV)
  ---------------------------------------------------
  alpha Z        PSCENC =       798.38614055
  Ewald energy   TEWEN  =    -12901.57693327
  -Hartree energ DENC   =     -2855.60785864
  -exchange      EXHF   =         0.00000000
  -V(xc)+E(xc)   XCENC  =      -996.12306199
  PAW double counting   =     12741.82587617   -11476.22345381
  entropy T*S    EENTRO =        -0.01553315
  eigenvalues    EBANDS =      1587.86629795
  atomic energy  EATOM  =     12697.67401269
  ---------------------------------------------------
  free energy    TOTEN  =      -403.79451351 eV

  energy without entropy =     -403.77898036  energy(sigma->0) =     -403.78933580


--------------------------------------------------------------------------------------------------------




--------------------------------------- Iteration      1(   6)  ---------------------------------------


    TRIAL :  cpu time   31.9768: real time   32.2161
    CORREC:  cpu time    0.0059: real time    0.0060
    --------------------------------------------
      LOOP:  cpu time   31.9859: real time   32.2260

 eigenvalue-minimisations  : 20400
 total energy-change (2. order) :-0.3788354E+00  (-0.3709042E+00)
 number of electron     270.0000000 magnetization      15.0000000
 augmentation part      270.0000000 magnetization      15.0000000

 Free energy of the ion-electron system (eV)
  ---------------------------------------------------
  alpha Z        PSCENC =       798.38614055
  Ewald energy   TEWEN  =    -12901.57693327
  -Hartree energ DENC   =     -2855.60785864
  -exchange      EXHF   =         0.00000000
  -V(xc)+E(xc)   XCENC  =      -996.12306199
  PAW double counting   =     12741.82587617   -11476.22345381
  entropy T*S    EENTRO =        -0.01530860
  eigenvalues    EBANDS =      1587.48723799
  atomic energy  EATOM  =     12697.67401269
  ---------------------------------------------------
  free energy    TOTEN  =      -404.17334892 eV

  energy without entropy =     -404.15804032  energy(sigma->0) =     -404.16824605


--------------------------------------------------------------------------------------------------------




--------------------------------------- Iteration      1(   7)  ---------------------------------------


    TRIAL :  cpu time   32.2197: real time   33.2559
    CORREC:  cpu time    0.0060: real time    0.0066
    --------------------------------------------
      LOOP:  cpu time   32.2289: real time   33.2659

 eigenvalue-minimisations  : 20800
 total energy-change (2. order) :-0.4332442E-01  (-0.4288683E-01)
 number of electron     270.0000000 magnetization      15.0000000
 augmentation part      270.0000000 magnetization      15.0000000

 Free energy of the ion-electron system (eV)
  ---------------------------------------------------
  alpha Z        PSCENC =       798.38614055
  Ewald energy   TEWEN  =    -12901.57693327
  -Hartree energ DENC   =     -2855.60785864
  -exchange      EXHF   =         0.00000000
  -V(xc)+E(xc)   XCENC  =      -996.12306199
  PAW double counting   =     12741.82587617   -11476.22345381
  entropy T*S    EENTRO =        -0.01511964
  eigenvalues    EBANDS =      1587.44372462
  atomic energy  EATOM  =     12697.67401269
  ---------------------------------------------------
  free energy    TOTEN  =      -404.21667334 eV

  energy without entropy =     -404.20155370  energy(sigma->0) =     -404.21163346


--------------------------------------------------------------------------------------------------------




--------------------------------------- Iteration      1(   8)  ---------------------------------------


    TRIAL :  cpu time   31.5161: real time   31.7458
    CORREC:  cpu time    0.0062: real time    0.0068
    CHARGE:  cpu time    1.5122: real time    2.1840
    --------------------------------------------
      LOOP:  cpu time   33.0360: real time   33.9404

 eigenvalue-minimisations  : 20008
 total energy-change (2. order) :-0.3380483E-02  (-0.3358799E-02)
 number of electron     269.9999995 magnetization      10.3459653
 augmentation part       64.2461944 magnetization       6.0005747

 Free energy of the ion-electron system (eV)
  ---------------------------------------------------
  alpha Z        PSCENC =       798.38614055
  Ewald energy   TEWEN  =    -12901.57693327
  -Hartree energ DENC   =     -2855.60785864
  -exchange      EXHF   =         0.00000000
  -V(xc)+E(xc)   XCENC  =      -996.12306199
  PAW double counting   =     12741.82587617   -11476.22345381
  entropy T*S    EENTRO =        -0.01506513
  eigenvalues    EBANDS =      1587.44028962
  atomic energy  EATOM  =     12697.67401269
  ---------------------------------------------------
  free energy    TOTEN  =      -404.22005382 eV

  energy without entropy =     -404.20498869  energy(sigma->0) =     -404.21503211


--------------------------------------------------------------------------------------------------------




--------------------------------------- Iteration      1(   9)  ---------------------------------------


    POTLOK:  cpu time    0.3987: real time    0.3988
    SETDIJ:  cpu time    0.5050: real time    0.5052
    TRIAL :  cpu time   10.8118: real time   10.9765
    CORREC:  cpu time    3.9416: real time    3.9572
    CHARGE:  cpu time    1.2398: real time    1.2402
    --------------------------------------------
      LOOP:  cpu time   16.9012: real time   17.0838

 eigenvalue-minimisations  :     0
 total energy-change (2. order) : 0.2985174E+03  (-0.2195156E+03)
 number of electron     269.9999993 magnetization      11.2972539
 augmentation part       82.8912121 magnetization       7.4890818

 Free energy of the ion-electron system (eV)
  ---------------------------------------------------
  alpha Z        PSCENC =       798.38614055
  Ewald energy   TEWEN  =    -12901.57693327
  -Hartree energ DENC   =     -1274.65128299
  -exchange      EXHF   =         0.00000000
  -V(xc)+E(xc)   XCENC  =     -1041.43378816
  PAW double counting   =     19173.54898631   -17754.34861717
  entropy T*S    EENTRO =         0.02591697
  eigenvalues    EBANDS =       196.71389518
  atomic energy  EATOM  =     12697.67401269
  ---------------------------------------------------
  free energy    TOTEN  =      -105.70265199 eV

  energy without entropy =     -105.72856895  energy(sigma->0) =     -105.71129098


--------------------------------------------------------------------------------------------------------




--------------------------------------- Iteration      1(  10)  ---------------------------------------


    POTLOK:  cpu time    0.3990: real time    0.4723
    SETDIJ:  cpu time    0.4503: real time    0.4503
    TRIAL :  cpu time   10.9724: real time   11.0314
    CORREC:  cpu time    3.9463: real time    4.0101
    CHARGE:  cpu time    1.2615: real time    1.2622
    --------------------------------------------
      LOOP:  cpu time   17.0338: real time   17.2316

 eigenvalue-minimisations  :     0
 total energy-change (2. order) :-0.2138514E+03  (-0.1164209E+02)
 number of electron     269.9999993 magnetization      11.4407471
 augmentation part       86.6347253 magnetization       7.6287958

 Free energy of the ion-electron system (eV)
  ---------------------------------------------------
  alpha Z        PSCENC =       798.38614055
  Ewald energy   TEWEN  =    -12901.57693327
  -Hartree energ DENC   =     -2127.90516957
  -exchange      EXHF   =         0.00000000
  -V(xc)+E(xc)   XCENC  =     -1011.45190025
  PAW double counting   =     20741.76124421   -19507.67620984
  entropy T*S    EENTRO =         0.02100428
  eigenvalues    EBANDS =       991.20884339
  atomic energy  EATOM  =     12697.67401269
  ---------------------------------------------------
  free energy    TOTEN  =      -319.55405513 eV

  energy without entropy =     -319.57505940  energy(sigma->0) =     -319.56105655


--------------------------------------------------------------------------------------------------------




--------------------------------------- Iteration      1(  11)  ---------------------------------------


    POTLOK:  cpu time    0.3869: real time    0.3980
    SETDIJ:  cpu time    0.4627: real time    0.4632
    TRIAL :  cpu time   10.9316: real time   11.0361
    CORREC:  cpu time    3.9761: real time    3.9978
    CHARGE:  cpu time    1.2385: real time    1.2393
    --------------------------------------------
      LOOP:  cpu time   16.9996: real time   17.1398

 eigenvalue-minimisations  :     0
 total energy-change (2. order) :-0.1101753E+02  (-0.1193846E+02)
 number of electron     269.9999992 magnetization      11.3778005
 augmentation part       89.1448084 magnetization       7.9287655

 Free energy of the ion-electron system (eV)
  ---------------------------------------------------
  alpha Z        PSCENC =       798.38614055
  Ewald energy   TEWEN  =    -12901.57693327
  -Hartree energ DENC   =     -2354.79992882
  -exchange      EXHF   =         0.00000000
  -V(xc)+E(xc)   XCENC  =     -1003.18705906
  PAW double counting   =     21590.35331855   -20392.52517678
  entropy T*S    EENTRO =         0.01798428
  eigenvalues    EBANDS =      1235.08303829
  atomic energy  EATOM  =     12697.67401269
  ---------------------------------------------------
  free energy    TOTEN  =      -330.57158357 eV

  energy without entropy =     -330.58956784  energy(sigma->0) =     -330.57757833


--------------------------------------------------------------------------------------------------------




--------------------------------------- Iteration      1(  12)  ---------------------------------------


    POTLOK:  cpu time    0.3926: real time    0.3929
    SETDIJ:  cpu time    0.4752: real time    0.4755
    TRIAL :  cpu time   10.8082: real time   11.6175
    CORREC:  cpu time    3.9104: real time    3.9695
    CHARGE:  cpu time    1.1930: real time    1.2685
    --------------------------------------------
      LOOP:  cpu time   16.7830: real time   17.7289

 eigenvalue-minimisations  :     0
 total energy-change (2. order) :-0.1189529E+02  (-0.1077020E+02)
 number of electron     269.9999993 magnetization      11.9022864
 augmentation part       86.7278862 magnetization       8.1829893

 Free energy of the ion-electron system (eV)
  ---------------------------------------------------
  alpha Z        PSCENC =       798.38614055
  Ewald energy   TEWEN  =    -12901.57693327
  -Hartree energ DENC   =     -2566.58134729
  -exchange      EXHF   =         0.00000000
  -V(xc)+E(xc)   XCENC  =      -996.12878880
  PAW double counting   =     21829.60003630   -20641.87408135
  entropy T*S    EENTRO =         0.00160029
  eigenvalues    EBANDS =      1438.01609944
  atomic energy  EATOM  =     12697.67401269
  ---------------------------------------------------
  free energy    TOTEN  =      -342.46687745 eV

  energy without entropy =     -342.46847775  energy(sigma->0) =     -342.46741088


--------------------------------------------------------------------------------------------------------




--------------------------------------- Iteration      1(  13)  ---------------------------------------


    POTLOK:  cpu time    0.3930: real time    0.3932
    SETDIJ:  cpu time    0.4754: real time    0.4755
    TRIAL :  cpu time   10.8401: real time   10.9527
    CORREC:  cpu time    3.9601: real time    3.9777
    CHARGE:  cpu time    1.2439: real time    1.2444
    --------------------------------------------
      LOOP:  cpu time   16.9140: real time   17.0455

 eigenvalue-minimisations  :     0
 total energy-change (2. order) :-0.1069537E+02  (-0.8065043E+00)
 number of electron     269.9999993 magnetization      12.0623187
 augmentation part       86.2099166 magnetization       8.1927713

 Free energy of the ion-electron system (eV)
  ---------------------------------------------------
  alpha Z        PSCENC =       798.38614055
  Ewald energy   TEWEN  =    -12901.57693327
  -Hartree energ DENC   =     -2519.06392478
  -exchange      EXHF   =         0.00000000
  -V(xc)+E(xc)   XCENC  =      -998.60042206
  PAW double counting   =     21217.20174888   -19977.84438951
  entropy T*S    EENTRO =        -0.00102916
  eigenvalues    EBANDS =      1330.65992214
  atomic energy  EATOM  =     12697.67401269
  ---------------------------------------------------
  free energy    TOTEN  =      -353.16224506 eV

  energy without entropy =     -353.16121590  energy(sigma->0) =     -353.16190201


--------------------------------------------------------------------------------------------------------




--------------------------------------- Iteration      1(  14)  ---------------------------------------


    POTLOK:  cpu time    0.3939: real time    0.3940
    SETDIJ:  cpu time    0.4584: real time    0.4585
    TRIAL :  cpu time   10.8634: real time   11.0224
    CORREC:  cpu time    4.6775: real time    4.7461
    CHARGE:  cpu time    1.2411: real time    1.2414
    --------------------------------------------
      LOOP:  cpu time   17.6444: real time   17.8725

 eigenvalue-minimisations  :     0
 total energy-change (2. order) :-0.7972878E+00  (-0.1233472E+01)
 number of electron     269.9999992 magnetization      12.0948207
 augmentation part       85.9343091 magnetization       8.1539515

 Free energy of the ion-electron system (eV)
  ---------------------------------------------------
  alpha Z        PSCENC =       798.38614055
  Ewald energy   TEWEN  =    -12901.57693327
  -Hartree energ DENC   =     -2489.25364945
  -exchange      EXHF   =         0.00000000
  -V(xc)+E(xc)   XCENC  =      -999.64380632
  PAW double counting   =     20845.67794574   -19597.60808135
  entropy T*S    EENTRO =        -0.00403799
  eigenvalues    EBANDS =      1292.38586770
  atomic energy  EATOM  =     12697.67401269
  ---------------------------------------------------
  free energy    TOTEN  =      -353.95953287 eV

  energy without entropy =     -353.95549488  energy(sigma->0) =     -353.95818687


--------------------------------------------------------------------------------------------------------




--------------------------------------- Iteration      1(  15)  ---------------------------------------


    POTLOK:  cpu time    0.3928: real time    0.3929
    SETDIJ:  cpu time    0.4738: real time    0.4739
    TRIAL :  cpu time   10.8812: real time   10.9406
    CORREC:  cpu time    3.9741: real time    4.6432
    CHARGE:  cpu time    1.2681: real time    1.2694
    --------------------------------------------
      LOOP:  cpu time   16.9930: real time   17.7230

 eigenvalue-minimisations  :     0
 total energy-change (2. order) :-0.1232330E+01  (-0.6317944E+00)
 number of electron     269.9999992 magnetization      12.1634197
 augmentation part       86.8941320 magnetization       8.2323135

 Free energy of the ion-electron system (eV)
  ---------------------------------------------------
  alpha Z        PSCENC =       798.38614055
  Ewald energy   TEWEN  =    -12901.57693327
  -Hartree energ DENC   =     -2459.39260154
  -exchange      EXHF   =         0.00000000
  -V(xc)+E(xc)   XCENC  =     -1000.65885869
  PAW double counting   =     20029.92563267   -18773.23017802
  entropy T*S    EENTRO =        -0.00484816
  eigenvalues    EBANDS =      1253.68496071
  atomic energy  EATOM  =     12697.67401269
  ---------------------------------------------------
  free energy    TOTEN  =      -355.19186289 eV

  energy without entropy =     -355.18701473  energy(sigma->0) =     -355.19024684


--------------------------------------------------------------------------------------------------------




--------------------------------------- Iteration      1(  16)  ---------------------------------------


    POTLOK:  cpu time    0.3872: real time    0.4076
    SETDIJ:  cpu time    0.4573: real time    0.4583
    TRIAL :  cpu time   10.8262: real time   10.9735
    CORREC:  cpu time    3.9230: real time    4.0160
    CHARGE:  cpu time    1.2301: real time    1.2539
    --------------------------------------------
      LOOP:  cpu time   16.8285: real time   17.1162

 eigenvalue-minimisations  :     0
 total energy-change (2. order) :-0.6324340E+00  (-0.1904043E+00)
 number of electron     269.9999992 magnetization      12.2997016
 augmentation part       87.2244442 magnetization       8.3328918

 Free energy of the ion-electron system (eV)
  ---------------------------------------------------
  alpha Z        PSCENC =       798.38614055
  Ewald energy   TEWEN  =    -12901.57693327
  -Hartree energ DENC   =     -2498.66198957
  -exchange      EXHF   =         0.00000000
  -V(xc)+E(xc)   XCENC  =      -999.06458884
  PAW double counting   =     19683.89622453   -18435.31632358
  entropy T*S    EENTRO =        -0.00536556
  eigenvalues    EBANDS =      1298.84400871
  atomic energy  EATOM  =     12697.67401269
  ---------------------------------------------------
  free energy    TOTEN  =      -355.82429694 eV

  energy without entropy =     -355.81893138  energy(sigma->0) =     -355.82250842


--------------------------------------------------------------------------------------------------------




--------------------------------------- Iteration      1(  17)  ---------------------------------------


    POTLOK:  cpu time    0.3917: real time    0.3918
    SETDIJ:  cpu time    0.4620: real time    0.4622
    TRIAL :  cpu time   10.9566: real time   10.9898
    CORREC:  cpu time    3.9303: real time    4.0195
    CHARGE:  cpu time    1.2690: real time    1.2694
    --------------------------------------------
      LOOP:  cpu time   17.0176: real time   17.1415

 eigenvalue-minimisations  :     0
 total energy-change (2. order) :-0.1908599E+00  (-0.2317404E+00)
 number of electron     269.9999992 magnetization      12.3053507
 augmentation part       87.2599661 magnetization       8.4415447

 Free energy of the ion-electron system (eV)
  ---------------------------------------------------
  alpha Z        PSCENC =       798.38614055
  Ewald energy   TEWEN  =    -12901.57693327
  -Hartree energ DENC   =     -2512.79983897
  -exchange      EXHF   =         0.00000000
  -V(xc)+E(xc)   XCENC  =      -998.34775691
  PAW double counting   =     19607.44084828   -18362.17921795
  entropy T*S    EENTRO =        -0.00749706
  eigenvalues    EBANDS =      1315.39295424
  atomic energy  EATOM  =     12697.67401269
  ---------------------------------------------------
  free energy    TOTEN  =      -356.01515689 eV

  energy without entropy =     -356.00765983  energy(sigma->0) =     -356.01265787


--------------------------------------------------------------------------------------------------------




--------------------------------------- Iteration      1(  18)  ---------------------------------------


    POTLOK:  cpu time    0.3926: real time    0.3928
    SETDIJ:  cpu time    0.4689: real time    0.4690
    TRIAL :  cpu time   10.8669: real time   11.0195
    CORREC:  cpu time    3.9213: real time    3.9284
    CHARGE:  cpu time    1.2425: real time    1.2430
    --------------------------------------------
      LOOP:  cpu time   16.9515: real time   17.1120

 eigenvalue-minimisations  :     0
 total energy-change (2. order) :-0.2318645E+00  (-0.1113451E+00)
 number of electron     269.9999992 magnetization      12.3438100
 augmentation part       87.0474452 magnetization       8.5089346

 Free energy of the ion-electron system (eV)
  ---------------------------------------------------
  alpha Z        PSCENC =       798.38614055
  Ewald energy   TEWEN  =    -12901.57693327
  -Hartree energ DENC   =     -2511.71533380
  -exchange      EXHF   =         0.00000000
  -V(xc)+E(xc)   XCENC  =      -998.05422763
  PAW double counting   =     19528.92543005   -18283.94887292
  entropy T*S    EENTRO =        -0.00699353
  eigenvalues    EBANDS =      1314.07026005
  atomic energy  EATOM  =     12697.67401269
  ---------------------------------------------------
  free energy    TOTEN  =      -356.24702134 eV

  energy without entropy =     -356.24002781  energy(sigma->0) =     -356.24469017


--------------------------------------------------------------------------------------------------------




--------------------------------------- Iteration      1(  19)  ---------------------------------------


    POTLOK:  cpu time    0.3907: real time    0.3909
    SETDIJ:  cpu time    0.4832: real time    0.4896
    TRIAL :  cpu time   10.8033: real time   11.6273
    CORREC:  cpu time    3.8373: real time    4.0126
    CHARGE:  cpu time    1.2440: real time    1.2443
    --------------------------------------------
      LOOP:  cpu time   16.7838: real time   17.7906

 eigenvalue-minimisations  :     0
 total energy-change (2. order) :-0.1105924E+00  (-0.5707415E-01)
 number of electron     269.9999992 magnetization      12.4558333
 augmentation part       86.8467322 magnetization       8.5715594

 Free energy of the ion-electron system (eV)
  ---------------------------------------------------
  alpha Z        PSCENC =       798.38614055
  Ewald energy   TEWEN  =    -12901.57693327
  -Hartree energ DENC   =     -2500.01228706
  -exchange      EXHF   =         0.00000000
  -V(xc)+E(xc)   XCENC  =      -998.26824959
  PAW double counting   =     19491.84478429   -18244.62570829
  entropy T*S    EENTRO =        -0.00816181
  eigenvalues    EBANDS =      1300.22762051
  atomic energy  EATOM  =     12697.67401269
  ---------------------------------------------------
  free energy    TOTEN  =      -356.35761371 eV

  energy without entropy =     -356.34945190  energy(sigma->0) =     -356.35489311


--------------------------------------------------------------------------------------------------------




--------------------------------------- Iteration      1(  20)  ---------------------------------------


    POTLOK:  cpu time    0.3925: real time    0.3935
    SETDIJ:  cpu time    0.4896: real time    0.4916
    TRIAL :  cpu time   10.8587: real time   10.9692
    CORREC:  cpu time    3.9016: real time    3.9217
    CHARGE:  cpu time    1.2301: real time    1.2447
    --------------------------------------------
      LOOP:  cpu time   16.8810: real time   17.0302

 eigenvalue-minimisations  :     0
 total energy-change (2. order) :-0.5707669E-01  (-0.7069431E-01)
 number of electron     269.9999992 magnetization      12.4670242
 augmentation part       86.7719010 magnetization       8.6247390

 Free energy of the ion-electron system (eV)
  ---------------------------------------------------
  alpha Z        PSCENC =       798.38614055
  Ewald energy   TEWEN  =    -12901.57693327
  -Hartree energ DENC   =     -2491.25827537
  -exchange      EXHF   =         0.00000000
  -V(xc)+E(xc)   XCENC  =      -998.46656973
  PAW double counting   =     19477.58787461   -18228.48145483
  entropy T*S    EENTRO =        -0.00876264
  eigenvalues    EBANDS =      1289.72867677
  atomic energy  EATOM  =     12697.67401269
  ---------------------------------------------------
  free energy    TOTEN  =      -356.41469040 eV

  energy without entropy =     -356.40592776  energy(sigma->0) =     -356.41176952


--------------------------------------------------------------------------------------------------------




--------------------------------------- Iteration      1(  21)  ---------------------------------------


    POTLOK:  cpu time    0.3915: real time    0.3916
    SETDIJ:  cpu time    0.4500: real time    0.4586
    TRIAL :  cpu time   10.9057: real time   11.0993
    CORREC:  cpu time    4.2588: real time    4.2703
    CHARGE:  cpu time    1.2425: real time    1.2429
    --------------------------------------------
      LOOP:  cpu time   17.2683: real time   17.4835

 eigenvalue-minimisations  :     0
 total energy-change (2. order) :-0.7061881E-01  (-0.3505552E-01)
 number of electron     269.9999992 magnetization      12.5459298
 augmentation part       86.9458711 magnetization       8.6885228

 Free energy of the ion-electron system (eV)
  ---------------------------------------------------
  alpha Z        PSCENC =       798.38614055
  Ewald energy   TEWEN  =    -12901.57693327
  -Hartree energ DENC   =     -2490.63751215
  -exchange      EXHF   =         0.00000000
  -V(xc)+E(xc)   XCENC  =      -998.32566677
  PAW double counting   =     19485.62860775   -18236.31036646
  entropy T*S    EENTRO =        -0.00858949
  eigenvalues    EBANDS =      1288.68517110
  atomic energy  EATOM  =     12697.67401269
  ---------------------------------------------------
  free energy    TOTEN  =      -356.48530920 eV

  energy without entropy =     -356.47671972  energy(sigma->0) =     -356.48244604


--------------------------------------------------------------------------------------------------------




--------------------------------------- Iteration      1(  22)  ---------------------------------------


    POTLOK:  cpu time    0.3917: real time    0.3919
    SETDIJ:  cpu time    0.4913: real time    0.4914
    TRIAL :  cpu time   10.9761: real time   11.0147
    CORREC:  cpu time    3.8868: real time    4.7398
    CHARGE:  cpu time    1.2568: real time    1.2580
    --------------------------------------------
      LOOP:  cpu time   17.0059: real time   17.8992

 eigenvalue-minimisations  :     0
 total energy-change (2. order) :-0.3508364E-01  (-0.9297575E-02)
 number of electron     269.9999992 magnetization      12.5753330
 augmentation part       86.9852305 magnetization       8.7105009

 Free energy of the ion-electron system (eV)
  ---------------------------------------------------
  alpha Z        PSCENC =       798.38614055
  Ewald energy   TEWEN  =    -12901.57693327
  -Hartree energ DENC   =     -2501.60927589
  -exchange      EXHF   =         0.00000000
  -V(xc)+E(xc)   XCENC  =      -997.83629351
  PAW double counting   =     19509.18434692   -18262.14118360
  entropy T*S    EENTRO =        -0.00913683
  eigenvalues    EBANDS =      1301.40738275
  atomic energy  EATOM  =     12697.67401269
  ---------------------------------------------------
  free energy    TOTEN  =      -356.52039285 eV

  energy without entropy =     -356.51125601  energy(sigma->0) =     -356.51734724


--------------------------------------------------------------------------------------------------------




--------------------------------------- Iteration      1(  23)  ---------------------------------------


    POTLOK:  cpu time    0.3944: real time    0.4105
    SETDIJ:  cpu time    0.4463: real time    0.4563
    TRIAL :  cpu time   10.8255: real time   10.9331
    CORREC:  cpu time    3.9359: real time    4.0444
    CHARGE:  cpu time    1.2428: real time    1.2432
    --------------------------------------------
      LOOP:  cpu time   16.8497: real time   17.0927

 eigenvalue-minimisations  :     0
 total energy-change (2. order) :-0.9333827E-02  (-0.2049393E-01)
 number of electron     269.9999992 magnetization      12.6463508
 augmentation part       86.9809363 magnetization       8.7630207

 Free energy of the ion-electron system (eV)
  ---------------------------------------------------
  alpha Z        PSCENC =       798.38614055
  Ewald energy   TEWEN  =    -12901.57693327
  -Hartree energ DENC   =     -2503.92408309
  -exchange      EXHF   =         0.00000000
  -V(xc)+E(xc)   XCENC  =      -997.72243028
  PAW double counting   =     19512.18031262   -18265.60357663
  entropy T*S    EENTRO =        -0.00864792
  eigenvalues    EBANDS =      1304.06596757
  atomic energy  EATOM  =     12697.67401269
  ---------------------------------------------------
  free energy    TOTEN  =      -356.52972667 eV

  energy without entropy =     -356.52107876  energy(sigma->0) =     -356.52684404


--------------------------------------------------------------------------------------------------------




--------------------------------------- Iteration      1(  24)  ---------------------------------------


    POTLOK:  cpu time    0.3917: real time    0.3924
    SETDIJ:  cpu time    0.4650: real time    0.4661
    TRIAL :  cpu time   10.9566: real time   11.0156
    CORREC:  cpu time    3.9106: real time    3.9698
    CHARGE:  cpu time    1.2540: real time    1.2734
    --------------------------------------------
      LOOP:  cpu time   16.9830: real time   17.1234

 eigenvalue-minimisations  :     0
 total energy-change (2. order) :-0.2048778E-01  (-0.1339633E-01)
 number of electron     269.9999992 magnetization      12.7125588
 augmentation part       86.9096468 magnetization       8.8100179

 Free energy of the ion-electron system (eV)
  ---------------------------------------------------
  alpha Z        PSCENC =       798.38614055
  Ewald energy   TEWEN  =    -12901.57693327
  -Hartree energ DENC   =     -2503.62714168
  -exchange      EXHF   =         0.00000000
  -V(xc)+E(xc)   XCENC  =      -997.61505565
  PAW double counting   =     19506.37141302   -18259.70949619
  entropy T*S    EENTRO =        -0.00850489
  eigenvalues    EBANDS =      1303.55549398
  atomic energy  EATOM  =     12697.67401269
  ---------------------------------------------------
  free energy    TOTEN  =      -356.55021446 eV

  energy without entropy =     -356.54170957  energy(sigma->0) =     -356.54737950


--------------------------------------------------------------------------------------------------------




[...]
   45        0.013   0.016   2.350   2.379
   46       -0.033  -0.023  -2.402  -2.458
   47       -0.023  -0.007  -2.368  -2.398
   48       -0.033  -0.023  -2.402  -2.458
   49        0.026   0.024   2.435   2.485
   50       -0.012  -0.022  -2.253  -2.288
   51        0.026   0.024   2.422   2.472
   52        0.026   0.024   2.422   2.472
   53       -0.012  -0.022  -2.253  -2.288
   54        0.026   0.024   2.435   2.485
--------------------------------------------------
tot         -0.014  -0.055  12.712  12.643
 
    FORLOC:  cpu time    0.0576: real time    0.0576
    FORNL :  cpu time   17.5152: real time   17.6871
    STRESS:  cpu time   25.8478: real time   26.7475
    FORCOR:  cpu time    0.4388: real time    0.4390
    OFIELD:  cpu time    0.0024: real time    0.0024

  FORCE on cell =-STRESS in cart. coord.  units (eV):
  Direction    XX          YY          ZZ          XY          YZ          ZX
  --------------------------------------------------------------------------------------
  Alpha Z   798.38614   798.38614   798.38614
  Ewald   -4053.61603 -4053.61603 -4794.40593    -0.00000    -0.00000    -0.00000
  Hartree  1083.58982  1083.58982   333.88042    -0.00000    -0.00000    -0.00000
  E(xc)   -1141.88528 -1141.88528 -1140.33785    -0.00000     0.00000    -0.00000
  Local     369.94905   369.94905  1903.11537     0.00000     0.00000     0.00000
  n-local  -170.85467  -167.67638  -175.03448     0.18251    -0.21310    -0.34870
  augment   784.59178   784.59178   768.39184     0.00000     0.00001     0.00001
  Kinetic  2328.47029  2341.30827  2309.18839    -2.18828    -1.49403    -1.47381
  Fock        0.00000     0.00000     0.00000     0.00000     0.00000     0.00000
  -------------------------------------------------------------------------------------
  Total       6.63925     6.63925     3.18391     0.00000     0.00000     0.00000
  in kB      14.98392    14.98392     7.18567     0.00000     0.00000     0.00000
  external pressure =       12.38 kB  Pullay stress =        0.00 kB


 VOLUME and BASIS-vectors are now :
 -----------------------------------------------------------------------------
  energy-cutoff  :      404.80
  volume of cell :      709.91
      direct lattice vectors                 reciprocal lattice vectors
     8.250148166  0.000000000  0.000000000     0.121209944  0.000000000  0.000000000
     0.000000000  8.250148166  0.000000000     0.000000000  0.121209944  0.000000000
     0.000000000  0.000000000 10.429911392     0.000000000  0.000000000  0.095878092

  length of vectors
     8.250148166  8.250148166 10.429911392     0.121209944  0.121209944  0.095878092


 FORCES acting on ions:
    Electron-Ion                     Ewald-Force                    Non-Local-Force
 -----------------------------------------------------------------------------------------------
   -.150E-02 0.150E-02 -.335E-10   -.239E-08 -.239E-08 -.210E-08   0.376E-02 -.376E-02 0.169E-20
   0.159E+00 -.159E+00 0.113E+00   -.239E-08 -.239E-08 0.171E-08   -.882E-01 0.882E-01 -.717E-02
   0.159E+00 -.159E+00 -.113E+00   -.239E-08 -.239E-08 0.861E-08   -.882E-01 0.882E-01 0.717E-02
   -.150E-02 -.150E-02 -.335E-10   -.239E-08 -.802E-09 -.210E-08   0.376E-02 0.376E-02 -.169E-20
   0.159E+00 0.159E+00 0.113E+00   -.239E-08 -.802E-09 0.171E-08   -.882E-01 -.882E-01 -.717E-02
   0.159E+00 0.159E+00 -.113E+00   -.239E-08 -.802E-09 0.861E-08   -.882E-01 -.882E-01 0.717E-02
   -.412E-01 -.327E-08 -.236E-10   -.239E-08 0.631E-08 -.210E-08   0.985E-02 -.163E-18 0.000E+00
   0.154E-01 -.328E-08 0.128E+00   -.239E-08 0.631E-08 0.171E-08   -.602E-02 0.000E+00 -.490E-01
   0.154E-01 -.328E-08 -.128E+00   -.239E-08 0.631E-08 0.861E-08   -.602E-02 0.271E-19 0.490E-01
   0.372E-09 0.412E-01 -.249E-10   -.802E-09 -.239E-08 -.210E-08   0.190E-18 -.985E-02 0.108E-18
   0.373E-09 -.154E-01 0.128E+00   -.802E-09 -.239E-08 0.171E-08   0.108E-18 0.602E-02 -.490E-01
   0.373E-09 -.154E-01 -.128E+00   -.803E-09 -.239E-08 0.861E-08   0.542E-19 0.602E-02 0.490E-01
   0.372E-09 -.412E-01 -.249E-10   -.802E-09 -.802E-09 -.210E-08   0.204E-18 0.985E-02 -.217E-18
   0.373E-09 0.154E-01 0.128E+00   -.802E-09 -.802E-09 0.171E-08   -.108E-18 -.602E-02 -.490E-01
   0.373E-09 0.154E-01 -.128E+00   -.803E-09 -.802E-09 0.861E-08   0.542E-19 -.602E-02 0.490E-01
   0.373E-09 -.329E-08 -.382E-10   -.802E-09 0.631E-08 -.210E-08   0.000E+00 0.662E-23 0.000E+00
   0.373E-09 -.330E-08 0.755E-01   -.802E-09 0.631E-08 0.171E-08   0.000E+00 -.203E-19 -.782E-01
   0.373E-09 -.330E-08 -.755E-01   -.803E-09 0.631E-08 0.861E-08   0.000E+00 -.203E-19 0.782E-01
   0.150E-02 0.150E-02 -.326E-10   0.631E-08 -.239E-08 -.210E-08   -.376E-02 -.376E-02 -.508E-20
   -.159E+00 -.159E+00 0.113E+00   0.631E-08 -.239E-08 0.171E-08   0.882E-01 0.882E-01 -.717E-02
   -.159E+00 -.159E+00 -.113E+00   0.631E-08 -.239E-08 0.861E-08   0.882E-01 0.882E-01 0.717E-02
   0.150E-02 -.150E-02 -.326E-10   0.631E-08 -.802E-09 -.210E-08   -.376E-02 0.376E-02 0.000E+00
   -.159E+00 0.159E+00 0.113E+00   0.631E-08 -.802E-09 0.171E-08   0.882E-01 -.882E-01 -.717E-02
   -.159E+00 0.159E+00 -.113E+00   0.631E-08 -.802E-09 0.861E-08   0.882E-01 -.882E-01 0.717E-02
   0.412E-01 -.327E-08 -.226E-10   0.631E-08 0.631E-08 -.210E-08   -.985E-02 -.542E-19 0.000E+00
   -.154E-01 -.328E-08 0.128E+00   0.631E-08 0.631E-08 0.171E-08   0.602E-02 0.271E-19 -.490E-01
   -.154E-01 -.328E-08 -.128E+00   0.631E-08 0.631E-08 0.861E-08   0.602E-02 0.000E+00 0.490E-01
   0.258E+00 0.488E-08 -.201E+00   -.169E-07 -.169E-07 -.180E-07   -.126E+00 0.271E-18 0.269E+00
   0.135E+00 0.488E-08 -.354E-10   -.169E-07 -.169E-07 -.170E-08   -.763E-01 -.867E-18 0.000E+00
   0.258E+00 0.488E-08 0.201E+00   -.169E-07 -.169E-07 0.115E-07   -.126E+00 -.651E-18 -.269E+00
   -.113E+00 -.113E+00 0.356E-01   -.169E-07 0.802E-09 -.180E-07   0.148E+00 0.148E+00 0.299E-01
   -.356E-01 -.356E-01 -.225E-10   -.169E-07 0.802E-09 -.170E-08   0.184E-01 0.184E-01 0.000E+00
   -.113E+00 -.113E+00 -.356E-01   -.169E-07 0.802E-09 0.115E-07   0.148E+00 0.148E+00 -.299E-01
   -.113E+00 0.113E+00 0.356E-01   -.169E-07 0.130E-07 -.180E-07   0.148E+00 -.148E+00 0.299E-01
   -.356E-01 0.356E-01 -.225E-10   -.169E-07 0.130E-07 -.170E-08   0.184E-01 -.184E-01 0.542E-19
   -.113E+00 0.113E+00 -.356E-01   -.169E-07 0.130E-07 0.115E-07   0.148E+00 -.148E+00 -.299E-01
   -.258E+00 0.488E-08 -.201E+00   0.802E-09 -.169E-07 -.180E-07   0.126E+00 0.000E+00 0.269E+00
   -.135E+00 0.488E-08 -.298E-10   0.802E-09 -.169E-07 -.170E-08   0.763E-01 0.000E+00 -.217E-18
   -.258E+00 0.488E-08 0.201E+00   0.802E-09 -.169E-07 0.115E-07   0.126E+00 0.379E-18 -.269E+00
   0.113E+00 -.113E+00 0.356E-01   0.802E-09 0.802E-09 -.180E-07   -.148E+00 0.148E+00 0.299E-01
   0.356E-01 -.356E-01 -.171E-10   0.802E-09 0.802E-09 -.170E-08   -.184E-01 0.184E-01 -.108E-18
   0.113E+00 -.113E+00 -.356E-01   0.802E-09 0.802E-09 0.115E-07   -.148E+00 0.148E+00 -.299E-01
   0.113E+00 0.113E+00 0.356E-01   0.802E-09 0.130E-07 -.180E-07   -.148E+00 -.148E+00 0.299E-01
   0.356E-01 0.356E-01 -.167E-10   0.802E-09 0.130E-07 -.170E-08   -.184E-01 -.184E-01 -.108E-18
   0.113E+00 0.113E+00 -.356E-01   0.802E-09 0.130E-07 0.115E-07   -.148E+00 -.148E+00 -.299E-01
   -.605E-08 0.473E-08 -.130E+00   0.130E-07 -.169E-07 -.180E-07   0.217E-18 -.867E-18 0.141E+00
   -.604E-08 0.478E-08 -.100E-10   0.130E-07 -.169E-07 -.170E-08   -.106E-21 -.529E-22 0.000E+00
   -.605E-08 0.473E-08 0.130E+00   0.130E-07 -.169E-07 0.115E-07   -.434E-18 0.434E-18 -.141E+00
   -.605E-08 0.258E+00 -.201E+00   0.130E-07 0.802E-09 -.180E-07   0.325E-18 -.126E+00 0.269E+00
   -.605E-08 0.135E+00 -.494E-11   0.130E-07 0.802E-09 -.170E-08   0.434E-18 -.763E-01 0.000E+00
   -.605E-08 0.258E+00 0.201E+00   0.130E-07 0.802E-09 0.115E-07   -.867E-18 -.126E+00 -.269E+00
   -.605E-08 -.258E+00 -.201E+00   0.130E-07 0.130E-07 -.180E-07   -.651E-18 0.126E+00 0.269E+00
   -.605E-08 -.135E+00 -.530E-11   0.130E-07 0.130E-07 -.170E-08   -.651E-18 0.763E-01 0.000E+00
   -.605E-08 -.258E+00 0.201E+00   0.130E-07 0.130E-07 0.115E-07   0.542E-18 0.126E+00 -.269E+00
 -----------------------------------------------------------------------------------------------
   -.362E-07 -.405E-07 -.750E-07   -.614E-13 -.142E-13 0.128E-13   0.267E-16 0.278E-16 -.555E-16
 
 
 POSITION                                       TOTAL-FORCE (eV/Angst)
 -----------------------------------------------------------------------------------
      0.00000      0.00000      0.00000         0.001422     -0.001422      0.000000
      0.00000      0.00000      3.47664         0.079097     -0.079097      0.105897
      0.00000      0.00000      6.95327         0.079097     -0.079097     -0.105897
      0.00000      2.75005      0.00000         0.001422      0.001422      0.000000
      0.00000      2.75005      3.47664         0.079097      0.079097      0.105897
      0.00000      2.75005      6.95327         0.079097      0.079097     -0.105897
      0.00000      5.50010      0.00000        -0.033079     -0.000000      0.000000
      0.00000      5.50010      3.47664         0.009623     -0.000000      0.084461
      0.00000      5.50010      6.95327         0.009623     -0.000000     -0.084461
      2.75005      0.00000      0.00000        -0.000000      0.033079      0.000000
      2.75005      0.00000      3.47664        -0.000000     -0.009623      0.084461
      2.75005      0.00000      6.95327        -0.000000     -0.009623     -0.084461
      2.75005      2.75005      0.00000        -0.000000     -0.033079      0.000000
      2.75005      2.75005      3.47664        -0.000000      0.009623      0.084461
      2.75005      2.75005      6.95327        -0.000000      0.009623     -0.084461
      2.75005      5.50010      0.00000        -0.000000     -0.000000      0.000000
      2.75005      5.50010      3.47664        -0.000000     -0.000000      0.003772
      2.75005      5.50010      6.95327        -0.000000     -0.000000     -0.003772
      5.50010      0.00000      0.00000        -0.001422     -0.001422      0.000000
      5.50010      0.00000      3.47664        -0.079097     -0.079097      0.105897
      5.50010      0.00000      6.95327        -0.079097     -0.079097     -0.105897
      5.50010      2.75005      0.00000        -0.001422      0.001422      0.000000
      5.50010      2.75005      3.47664        -0.079097      0.079097      0.105897
      5.50010      2.75005      6.95327        -0.079097      0.079097     -0.105897
      5.50010      5.50010      0.00000         0.033079     -0.000000      0.000000
      5.50010      5.50010      3.47664        -0.009623     -0.000000      0.084461
      5.50010      5.50010      6.95327        -0.009623     -0.000000     -0.084461
      1.37502      1.37502      1.73832         0.132843     -0.000000      0.059278
      1.37502      1.37502      5.21496         0.057602     -0.000000      0.000000
      1.37502      1.37502      8.69159         0.132843     -0.000000     -0.059278
      1.37502      4.12507      1.73832         0.032111      0.032111      0.058026
      1.37502      4.12507      5.21496        -0.018030     -0.018030      0.000000
      1.37502      4.12507      8.69159         0.032111      0.032111     -0.058026
      1.37502      6.87512      1.73832         0.032111     -0.032111      0.058026
      1.37502      6.87512      5.21496        -0.018030      0.018030      0.000000
      1.37502      6.87512      8.69159         0.032111     -0.032111     -0.058026
      4.12507      1.37502      1.73832        -0.132843     -0.000000      0.059278
      4.12507      1.37502      5.21496        -0.057602     -0.000000      0.000000
      4.12507      1.37502      8.69159        -0.132843     -0.000000     -0.059278
      4.12507      4.12507      1.73832        -0.032111      0.032111      0.058026
      4.12507      4.12507      5.21496         0.018030     -0.018030      0.000000
      4.12507      4.12507      8.69159        -0.032111      0.032111     -0.058026
      4.12507      6.87512      1.73832        -0.032111     -0.032111      0.058026
      4.12507      6.87512      5.21496         0.018030      0.018030      0.000000
      4.12507      6.87512      8.69159        -0.032111     -0.032111     -0.058026
      6.87512      1.37502      1.73832        -0.000000     -0.000000      0.016505
      6.87512      1.37502      5.21496        -0.000000     -0.000000      0.000000
      6.87512      1.37502      8.69159        -0.000000     -0.000000     -0.016505
      6.87512      4.12507      1.73832        -0.000000      0.132843      0.059278
      6.87512      4.12507      5.21496        -0.000000      0.057602      0.000000
      6.87512      4.12507      8.69159        -0.000000      0.132843     -0.059278
      6.87512      6.87512      1.73832        -0.000000     -0.132843      0.059278
      6.87512      6.87512      5.21496        -0.000000     -0.057602      0.000000
      6.87512      6.87512      8.69159        -0.000000     -0.132843     -0.059278
 -----------------------------------------------------------------------------------
    total drift:                               -0.000000     -0.000000     -0.000000


--------------------------------------------------------------------------------------------------------



  FREE ENERGIE OF THE ION-ELECTRON SYSTEM (eV)
  ---------------------------------------------------
  free  energy   TOTEN  =      -356.59005478 eV

  energy  without entropy=     -356.58347278  energy(sigma->0) =     -356.58786078
 


--------------------------------------------------------------------------------------------------------


    POTLOK:  cpu time    0.8483: real time    0.8484


--------------------------------------------------------------------------------------------------------


     LOOP+:  cpu time 1185.2317: real time 1210.2606
    4ORBIT:  cpu time    0.0000: real time    0.0000
 


 total charge     
 
# of ion       s       p       d       tot
------------------------------------------
    1        0.404   0.430   0.000   0.834
    2        0.406   0.428   0.000   0.834
    3        0.406   0.428   0.000   0.834
    4        0.404   0.430   0.000   0.834
    5        0.406   0.428   0.000   0.833
    6        0.406   0.428   0.000   0.834
    7        0.404   0.427   0.000   0.832
    8        0.405   0.426   0.000   0.832
    9        0.405   0.426   0.000   0.832
   10        0.404   0.428   0.000   0.833
   11        0.405   0.427   0.000   0.832
   12        0.405   0.426   0.000   0.832
   13        0.404   0.428   0.000   0.833
   14        0.405   0.426   0.000   0.832
   15        0.405   0.427   0.000   0.832
   16        0.403   0.429   0.000   0.832
   17        0.405   0.427   0.000   0.832
   18        0.405   0.427   0.000   0.832
   19        0.404   0.430   0.000   0.834
   20        0.406   0.428   0.000   0.834
   21        0.406   0.428   0.000   0.833
   22        0.404   0.430   0.000   0.834
   23        0.406   0.428   0.000   0.834
   24        0.406   0.428   0.000   0.834
   25        0.404   0.427   0.000   0.832
   26        0.405   0.426   0.000   0.832
   27        0.405   0.426   0.000   0.832
   28        0.334   0.353   5.162   5.849
   29        0.333   0.354   5.141   5.828
   30        0.333   0.352   5.176   5.862
   31        0.333   0.352   5.138   5.823
   32        0.335   0.350   5.135   5.820
   33        0.333   0.352   5.141   5.826
   34        0.333   0.352   5.135   5.820
   35        0.335   0.350   5.140   5.824
   36        0.333   0.352   5.133   5.818
   37        0.333   0.352   5.176   5.862
   38        0.333   0.354   5.141   5.828
   39        0.334   0.353   5.162   5.849
   40        0.333   0.352   5.133   5.818
   41        0.335   0.350   5.140   5.824
   42        0.333   0.352   5.135   5.820
   43        0.333   0.352   5.141   5.826
   44        0.335   0.350   5.135   5.820
   45        0.333   0.352   5.138   5.823
   46        0.337   0.357   5.119   5.813
   47        0.335   0.345   5.145   5.826
   48        0.337   0.357   5.119   5.813
   49        0.334   0.356   5.088   5.778
   50        0.333   0.353   5.124   5.810
   51        0.333   0.356   5.095   5.784
   52        0.333   0.356   5.095   5.784
   53        0.333   0.353   5.124   5.810
   54        0.334   0.356   5.088   5.778
--------------------------------------------------
tot         19.948  21.069 138.600 179.617
 


 magnetization (x)
 
# of ion       s       p       d       tot
------------------------------------------
    1       -0.012  -0.022   0.000  -0.034
    2        0.004   0.011   0.000   0.015
    3        0.004   0.011   0.000   0.015
    4       -0.012  -0.021   0.000  -0.034
    5        0.004   0.011   0.000   0.015
    6        0.004   0.010   0.000   0.014
    7       -0.020  -0.033   0.000  -0.054
    8        0.001   0.002   0.000   0.003
    9        0.001   0.002   0.000   0.003
   10       -0.021  -0.035   0.000  -0.056
   11        0.001   0.000   0.000   0.001
   12        0.001   0.000   0.000   0.001
   13       -0.021  -0.035   0.000  -0.056
   14        0.001   0.000   0.000   0.001
   15        0.001   0.000   0.000   0.001
   16       -0.023  -0.038   0.000  -0.062
   17       -0.001   0.001   0.000   0.001
   18       -0.001   0.001   0.000   0.001
   19       -0.012  -0.021   0.000  -0.034
   20        0.004   0.010   0.000   0.014
   21        0.004   0.011   0.000   0.015
   22       -0.012  -0.022   0.000  -0.034
   23        0.004   0.011   0.000   0.015
   24        0.004   0.011   0.000   0.015
   25       -0.020  -0.033   0.000  -0.054
   26        0.001   0.002   0.000   0.003
   27        0.001   0.002   0.000   0.003
   28        0.026   0.023   2.412   2.461
   29       -0.013  -0.024  -2.249  -2.286
   30        0.026   0.023   2.393   2.442
   31        0.013   0.016   2.350   2.379
   32       -0.017  -0.015  -2.304  -2.335
   33        0.013   0.016   2.340   2.369
   34        0.013   0.015   2.344   2.373
   35       -0.016  -0.015  -2.294  -2.325
   36        0.014   0.016   2.345   2.374
   37        0.026   0.023   2.393   2.442
   38       -0.013  -0.024  -2.249  -2.286
   39        0.026   0.023   2.412   2.461
   40        0.014   0.016   2.345   2.374
   41       -0.016  -0.015  -2.294  -2.325
   42        0.013   0.015   2.344   2.373
   43        0.013   0.016   2.340   2.369
   44       -0.017  -0.015  -2.304  -2.335
   45        0.013   0.016   2.350   2.379
   46       -0.033  -0.023  -2.402  -2.458
   47       -0.023  -0.007  -2.368  -2.398
   48       -0.033  -0.023  -2.402  -2.458
   49        0.026   0.024   2.435   2.485
   50       -0.012  -0.022  -2.253  -2.288
   51        0.026   0.024   2.422   2.472
   52        0.026   0.024   2.422   2.472
   53       -0.012  -0.022  -2.253  -2.288
   54        0.026   0.024   2.435   2.485
--------------------------------------------------
tot         -0.014  -0.055  12.712  12.643
 

 total amount of memory used by VASP MPI-rank0   620501. kBytes
=======================================================================

   base      :      30000. kBytes
   nonl-proj :      19946. kBytes
   fftplans  :      31580. kBytes
   grid      :      21385. kBytes
   one-center:        435. kBytes
   wavefun   :     517155. kBytes
 
  
  
 General timing and accounting informations for this job:
 ========================================================
  
                  Total CPU time used (sec):     1207.866
                            User time (sec):     1188.726
                          System time (sec):       19.140
                         Elapsed time (sec):     1236.230
  
                   Maximum memory used (kb):      778632.
                   Average memory used (kb):           0.
  
                          Minor page faults:       411506
                          Major page faults:           20
                 Voluntary context switches:         2599
