       N       E                     dE             d eps       ncg     rms          rms(c)
DAV:   1     0.396894947448E+04    0.39689E+04   -0.14629E+05  6912   0.168E+03
DAV:   2     0.489506759997E+03   -0.34794E+04   -0.32230E+04  7456   0.448E+02
DAV:   3    -0.170725775250E+03   -0.66023E+03   -0.64048E+03  7512   0.214E+02
DAV:   4    -0.208857610305E+03   -0.38132E+02   -0.37324E+02  8008   0.554E+01
DAV:   5    -0.210327367692E+03   -0.14698E+01   -0.14628E+01  8688   0.110E+01    0.376E+01
DAV:   6    -0.182944139181E+03    0.27383E+02   -0.21086E+02  9632   0.643E+01    0.205E+01
DAV:   7    -0.182828814790E+03    0.11532E+00   -0.29076E+01  9552   0.394E+01    0.858E+00
DAV:   8    -0.183142456669E+03   -0.31364E+00   -0.44175E+00  8760   0.616E+00    0.457E+00
DAV:   9    -0.183018328155E+03    0.12413E+00   -0.62745E-01  9312   0.632E+00    0.218E+00
DAV:  10    -0.183044793860E+03   -0.26466E-01   -0.22268E-01  9448   0.259E+00    0.701E-01
DAV:  11    -0.183045667595E+03   -0.87374E-03   -0.40870E-02  9944   0.124E+00    0.246E-01
DAV:  12    -0.183049050215E+03   -0.33826E-02   -0.12499E-02  7528   0.426E-01    0.112E-01
DAV:  13    -0.183049893817E+03   -0.84360E-03   -0.18009E-03  7824   0.128E-01    0.411E-02
DAV:  14    -0.183049944400E+03   -0.50582E-04   -0.13127E-04  8864   0.468E-02    0.210E-02
DAV:  15    -0.183049964444E+03   -0.20044E-04   -0.27643E-05  7824   0.194E-02    0.984E-03
DAV:  16    -0.183049972578E+03   -0.81346E-05   -0.81508E-06  9104   0.145E-02    0.477E-03
DAV:  17    -0.183049974124E+03   -0.15451E-05   -0.24563E-06  7864   0.498E-03    0.184E-03
DAV:  18    -0.183049974380E+03   -0.25663E-06   -0.14459E-07  4672   0.196E-03    0.816E-04
DAV:  19    -0.183049974562E+03   -0.18179E-06   -0.96246E-08  4528   0.132E-03    0.443E-04
DAV:  20    -0.183049974631E+03   -0.69453E-07   -0.29963E-08  4264   0.781E-04
   1 F= -.18304997E+03 E0= -.18304997E+03  d E =0.000000E+00  mag=     0.0000
