 vasp.5.4.4.18Apr17-6-g9f103f2a35 (build Dec 13 2018 10:28:32) complex          
  
 executed on             LinuxIFC date 2019.05.16  10:26:35
 running on   48 total cores
 distrk:  each k-point on   48 cores,    1 groups
 distr:  one band on NCORES_PER_BAND=  24 cores,    2 groups


--------------------------------------------------------------------------------------------------------


 INCAR:
 POTCAR:   PAW_PBE F 08Apr2002                    
 POTCAR:   PAW_PBE Ni 06Sep2000                   
 POTCAR:   PAW_PBE Cs_sv 08Apr2002                

 ----------------------------------------------------------------------------- 
|                                                                             |
|           W    W    AA    RRRRR   N    N  II  N    N   GGGG   !!!           |
|           W    W   A  A   R    R  NN   N  II  NN   N  G    G  !!!           |
|           W    W  A    A  R    R  N N  N  II  N N  N  G       !!!           |
|           W WW W  AAAAAA  RRRRR   N  N N  II  N  N N  G  GGG   !            |
|           WW  WW  A    A  R   R   N   NN  II  N   NN  G    G                |
|           W    W  A    A  R    R  N    N  II  N    N   GGGG   !!!           |
|                                                                             |
|      For optimal performance we recommend to set                            |
|        NCORE= 4 - approx SQRT( number of cores)                             |
|      NCORE specifies how many cores store one orbital (NPAR=cpu/NCORE).     |
|      This setting can  greatly improve the performance of VASP for DFT.     |
|      The default,   NCORE=1            might be grossly inefficient         |
|      on modern multi-core architectures or massively parallel machines.     |
|      Do your own testing !!!!                                               |
|      Unfortunately you need to use the default for GW and RPA calculations. |
|      (for HF NCORE is supported but not extensively tested yet)             |
|                                                                             |
 ----------------------------------------------------------------------------- 

 POTCAR:   PAW_PBE F 08Apr2002                    
   VRHFIN =F: s2p5                                                              
   LEXCH  = PE                                                                  
   EATOM  =   659.4942 eV,   48.4715 Ry                                         
                                                                                
   TITEL  = PAW_PBE F 08Apr2002                                                 
   LULTRA =        F    use ultrasoft PP ?                                      
   IUNSCR =        0    unscreen: 0-lin 1-nonlin 2-no                           
   RPACOR =     .000    partial core radius                                     
   POMASS =   18.998; ZVAL   =    7.000    mass and valenz                      
   RCORE  =    1.520    outmost cutoff radius                                   
   RWIGS  =    1.500; RWIGS  =     .794    wigner-seitz radius (au A)           
   ENMAX  =  400.000; ENMIN  =  300.000 eV                                      
   ICORE  =        2    local potential                                         
   LCOR   =        T    correct aug charges                                     
   LPAW   =        T    paw PP                                                  
   EAUG   =  613.614                                                            
   DEXC   =     .000                                                            
   RMAX   =    2.254    core radius for proj-oper                               
   RAUG   =    1.300    factor for augmentation sphere                          
   RDEP   =    1.539    radius for radial grids                                 
   QCUT   =   -5.545; QGAM   =   11.091    optimization parameters              
                                                                                
   Description                                                                  
     l     E      TYP  RCUT    TYP  RCUT                                        
     0   .000     23  1.200                                                     
     0  -.700     23  1.200                                                     
     1   .000     23  1.520                                                     
     1   .100     23  1.520                                                     
     2   .000      7  1.500                                                     
  local pseudopotential read in
  atomic valenz-charges read in
  non local Contribution for L=           0  read in
    real space projection operators read in
  non local Contribution for L=           0  read in
    real space projection operators read in
  non local Contribution for L=           1  read in
    real space projection operators read in
  non local Contribution for L=           1  read in
    real space projection operators read in
    PAW grid and wavefunctions read in
 
   number of l-projection  operators is LMAX  =           4
   number of lm-projection operators is LMMAX =           8
 
 POTCAR:   PAW_PBE Ni 06Sep2000                   
   VRHFIN =Ni:                                                                  
   LEXCH  = PE                                                                  
   EATOM  =  1077.9025 eV,   79.2236 Ry                                         
                                                                                
   TITEL  = PAW_PBE Ni 06Sep2000                                                
   LULTRA =        F    use ultrasoft PP ?                                      
   IUNSCR =        1    unscreen: 0-lin 1-nonlin 2-no                           
   RPACOR =    2.000    partial core radius                                     
   POMASS =   58.690; ZVAL   =   10.000    mass and valenz                      
   RCORE  =    2.300    outmost cutoff radius                                   
   RWIGS  =    2.430; RWIGS  =    1.286    wigner-seitz radius (au A)           
   ENMAX  =  269.533; ENMIN  =  202.150 eV                                      
   RCLOC  =    1.681    cutoff for local pot                                    
   LCOR   =        T    correct aug charges                                     
   LPAW   =        T    paw PP                                                  
   EAUG   =  544.565                                                            
   DEXC   =    -.009                                                            
   RMAX   =    2.808    core radius for proj-oper                               
   RAUG   =    1.300    factor for augmentation sphere                          
   RDEP   =    2.390    radius for radial grids                                 
   QCUT   =   -4.451; QGAM   =    8.902    optimization parameters              
                                                                                
   Description                                                                  
     l     E      TYP  RCUT    TYP  RCUT                                        
     2   .000     23  2.300                                                     
     2   .000     23  2.300                                                     
     0   .000     23  2.300                                                     
     0   .000     23  2.300                                                     
     1  -.200     23  2.300                                                     
     1   .000     23  2.300                                                     
     3   .000      7   .000                                                     
  local pseudopotential read in
  partial core-charges read in
  atomic valenz-charges read in
  non local Contribution for L=           2  read in
    real space projection operators read in
  non local Contribution for L=           2  read in
    real space projection operators read in
  non local Contribution for L=           0  read in
    real space projection operators read in
  non local Contribution for L=           0  read in
    real space projection operators read in
  non local Contribution for L=           1  read in
    real space projection operators read in
  non local Contribution for L=           1  read in
    real space projection operators read in
    PAW grid and wavefunctions read in
 
   number of l-projection  operators is LMAX  =           6
   number of lm-projection operators is LMMAX =          18
 
 POTCAR:   PAW_PBE Cs_sv 08Apr2002                
   VRHFIN =Cs: 5s5p6s                                                           
   LEXCH  = PE                                                                  
   EATOM  =   555.6835 eV,   40.8416 Ry                                         
                                                                                
   TITEL  = PAW_PBE Cs_sv 08Apr2002                                             
   LULTRA =        F    use ultrasoft PP ?                                      
   IUNSCR =        1    unscreen: 0-lin 1-nonlin 2-no                           
   RPACOR =    2.200    partial core radius                                     
   POMASS =  132.900; ZVAL   =    9.000    mass and valenz                      
   RCORE  =    2.500    outmost cutoff radius                                   
   RWIGS  =    2.500; RWIGS  =    1.323    wigner-seitz radius (au A)           
   ENMAX  =  220.318; ENMIN  =  165.238 eV                                      
   RCLOC  =    2.207    cutoff for local pot                                    
   LCOR   =        T    correct aug charges                                     
   LPAW   =        T    paw PP                                                  
   EAUG   =  407.933                                                            
   DEXC   =    -.004                                                            
   RMAX   =    3.106    core radius for proj-oper                               
   RAUG   =    1.300    factor for augmentation sphere                          
   RDEP   =    2.590    radius for radial grids                                 
   QCUT   =   -4.024; QGAM   =    8.048    optimization parameters              
                                                                                
   Description                                                                  
     l     E      TYP  RCUT    TYP  RCUT                                        
     0   .000     23  1.900                                                     
     0   .000     23  1.900                                                     
     0   .000     23  1.900                                                     
     0   .000     23  1.900                                                     
     1   .000     23  2.500                                                     
     1  -.200     23  2.500                                                     
     2   .000     23  2.500                                                     
  local pseudopotential read in
  partial core-charges read in
  atomic valenz-charges read in
  non local Contribution for L=           0  read in
    real space projection operators read in
  non local Contribution for L=           0  read in
    real space projection operators read in
  non local Contribution for L=           1  read in
    real space projection operators read in
  non local Contribution for L=           1  read in
    real space projection operators read in
  non local Contribution for L=           2  read in
    real space projection operators read in
    PAW grid and wavefunctions read in
 
   number of l-projection  operators is LMAX  =           5
   number of lm-projection operators is LMMAX =          13
 
 PAW_PBE F 08Apr2002                    :
 energy of atom  1       EATOM= -659.4942
 kinetic energy error for atom=    0.0323 (will be added to EATOM!!)
 PAW_PBE Ni 06Sep2000                   :
 energy of atom  2       EATOM=-1077.9025
 kinetic energy error for atom=    0.0030 (will be added to EATOM!!)
 PAW_PBE Cs_sv 08Apr2002                :
 energy of atom  3       EATOM= -555.6835
 kinetic energy error for atom=    0.0016 (will be added to EATOM!!)
 
 
 POSCAR: For VASP. System= small                 
  positions in cartesian coordinates
  velocities in cartesian coordinates
  No initial velocities read in
 exchange correlation table for  LEXCH =        8
   RHO(1)=    0.500       N(1)  =     2000
   RHO(2)=  100.500       N(2)  =     4000
 


--------------------------------------------------------------------------------------------------------


 ion  position               nearest neighbor table
   1  0.570  0.640  0.250-  32 2.04  28 2.04
   2  0.070  0.640  0.250-  31 2.04  27 2.04
   3  0.570  0.140  0.250-  30 2.04  26 2.04
   4  0.070  0.140  0.250-  29 2.04  25 2.04
   5  0.860  0.930  0.250-  29 2.04  25 2.04
   6  0.360  0.930  0.250-  30 2.04  26 2.04
   7  0.860  0.430  0.250-  31 2.04  27 2.04
   8  0.360  0.430  0.250-  32 2.04  28 2.04
   9  0.570  0.930  0.250-  30 2.04  26 2.04
  10  0.070  0.930  0.250-  29 2.04  25 2.04
  11  0.570  0.430  0.250-  32 2.04  28 2.04
  12  0.070  0.430  0.250-  31 2.04  27 2.04
  13  0.930  0.860  0.750-  25 2.04  29 2.04
  14  0.430  0.860  0.750-  26 2.04  30 2.04
  15  0.930  0.360  0.750-  27 2.04  31 2.04
  16  0.430  0.360  0.750-  28 2.04  32 2.04
  17  0.640  0.570  0.750-  28 2.04  32 2.04
  18  0.140  0.570  0.750-  27 2.04  31 2.04
  19  0.640  0.070  0.750-  26 2.04  30 2.04
  20  0.140  0.070  0.750-  25 2.04  29 2.04
  21  0.930  0.570  0.750-  27 2.04  31 2.04
  22  0.430  0.570  0.750-  28 2.04  32 2.04
  23  0.930  0.070  0.750-  25 2.04  29 2.04
  24  0.430  0.070  0.750-  26 2.04  30 2.04
  25  0.000  0.000  0.000-  20 2.04   5 2.04   4 2.04  13 2.04  23 2.04  10 2.04  29 2.66  29 2.66

  26  0.500  0.000  0.000-  19 2.04   6 2.04   3 2.04  14 2.04  24 2.04   9 2.04  30 2.66  30 2.66

  27  1.000  0.500  0.000-  18 2.04   7 2.04  15 2.04   2 2.04  21 2.04  12 2.04  31 2.66  31 2.66

  28  0.500  0.500  0.000-  17 2.04   8 2.04  16 2.04   1 2.04  22 2.04  11 2.04  32 2.66  32 2.66

  29  0.000  0.000  0.500-   5 2.04  20 2.04   4 2.04  13 2.04  10 2.04  23 2.04  25 2.66  25 2.66

  30  0.500  0.000  0.500-   6 2.04  19 2.04   3 2.04  14 2.04   9 2.04  24 2.04  26 2.66  26 2.66

  31  1.000  0.500  0.500-   7 2.04  18 2.04   2 2.04  15 2.04  12 2.04  21 2.04  27 2.66  27 2.66

  32  0.500  0.500  0.500-   8 2.04  17 2.04   1 2.04  16 2.04  11 2.04  22 2.04  28 2.66  28 2.66

  33  0.667  0.833  0.750-
  34  0.167  0.833  0.750-
  35  0.667  0.333  0.750-
  36  0.167  0.333  0.750-
  37  0.833  0.667  0.250-
  38  0.333  0.667  0.250-
  39  0.833  0.167  0.250-
  40  0.333  0.167  0.250-
 
  LATTYP: Found a hexagonal cell.
 ALAT       =    12.7752670119
 C/A-ratio  =     0.4167528495
  
  Lattice vectors:
  
 A1 = (   6.3876227840,  11.0637119627,   0.0000000000)
 A2 = (   6.3876227840, -11.0637119627,   0.0000000000)
 A3 = (   0.0000000000,   0.0000000000,  -5.3241289298)


Analysis of symmetry for initial positions (statically):
=====================================================================
 Subroutine PRICEL returns following result:
 
  LATTYP: Found a hexagonal cell.
 ALAT       =     6.3876335059
 C/A-ratio  =     0.8335056989
  
  Lattice vectors:
  
 A1 = (   3.1938113920,   5.5318559813,   0.0000000000)
 A2 = (   3.1938113920,  -5.5318559813,   0.0000000000)
 A3 = (   0.0000000000,   0.0000000000,  -5.3241289298)
 
   4 primitive cells build up your supercell.
 

 Routine SETGRP: Setting up the symmetry group for a 
 hexagonal supercell.


 Subroutine GETGRP returns: Found  8 space group operations
 (whereof  4 operations were pure point group operations)
 out of a pool of 24 trial point group operations.


The static configuration has the point symmetry C_2h.
 The point group associated with its full space group is D_2h.


Analysis of symmetry for dynamics (positions and initial velocities):
=====================================================================
 Subroutine PRICEL returns following result:
 
  LATTYP: Found a hexagonal cell.
 ALAT       =     6.3876335059
 C/A-ratio  =     0.8335056989
  
  Lattice vectors:
  
 A1 = (   3.1938113920,   5.5318559813,   0.0000000000)
 A2 = (   3.1938113920,  -5.5318559813,   0.0000000000)
 A3 = (   0.0000000000,   0.0000000000,  -5.3241289298)
 
   4 primitive cells build up your supercell.
 

 Routine SETGRP: Setting up the symmetry group for a 
 hexagonal supercell.


 Subroutine GETGRP returns: Found  8 space group operations
 (whereof  4 operations were pure point group operations)
 out of a pool of 24 trial point group operations.


The dynamic configuration has the point symmetry C_2h.
 The point group associated with its full space group is D_2h.


Analysis of structural, dynamic, and magnetic symmetry:
=====================================================================
 Subroutine PRICEL returns following result:
 
  LATTYP: Found a hexagonal cell.
 ALAT       =     6.3876335059
 C/A-ratio  =     0.8335056989
  
  Lattice vectors:
  
 A1 = (   3.1938113920,   5.5318559813,   0.0000000000)
 A2 = (   3.1938113920,  -5.5318559813,   0.0000000000)
 A3 = (   0.0000000000,   0.0000000000,  -5.3241289298)
 
   4 primitive cells build up your supercell.
 

 Routine SETGRP: Setting up the symmetry group for a 
 hexagonal supercell.


 Subroutine GETGRP returns: Found  8 space group operations
 (whereof  4 operations were pure point group operations)
 out of a pool of 24 trial point group operations.


The magnetic configuration has the point symmetry C_2h.
 The point group associated with its full space group is D_2h.


 Subroutine INISYM returns: Found  8 space group operations
 (whereof  4 operations are pure point group operations),
 and found     4 'primitive' translations

 
 
 KPOINTS: Automatic mesh                          

Automatic generation of k-mesh.
Space group operators:
 irot       det(A)        alpha          n_x          n_y          n_z        tau_x        tau_y        tau_z
    1     1.000000     0.000000     1.000000     0.000000     0.000000     0.000000     0.000000     0.000000
    2    -1.000000     0.000000     1.000000     0.000000     0.000000     0.000000     0.000000     0.000000
    3     1.000000   180.000000    -0.500001    -0.866025     0.000000     0.000000     0.000000     0.000000
    4    -1.000000   180.000000    -0.500001    -0.866025     0.000000     0.000000     0.000000     0.000000
    5     1.000000   180.000000     0.000000     0.000000     1.000000     0.000000     0.000000    -0.500000
    6    -1.000000   180.000000     0.000000     0.000000     1.000000     0.000000     0.000000    -0.500000
    7     1.000000   180.000000     0.866026    -0.499999     0.000000     0.000000     0.000000    -0.500000
    8    -1.000000   180.000000     0.866026    -0.499999     0.000000     0.000000     0.000000    -0.500000
 
 Subroutine IBZKPT returns following result:
 ===========================================
 
 Found      9 irreducible k-points:
 
 Following reciprocal coordinates:
            Coordinates               Weight
  0.000000  0.000000  0.000000      1.000000
  0.500000  0.000000  0.000000      2.000000
  0.500000  0.500000  0.000000      1.000000
  0.000000  0.000000  0.250000      2.000000
  0.500000  0.000000  0.250000      4.000000
  0.500000  0.500000  0.250000      2.000000
  0.000000  0.000000  0.500000      1.000000
  0.500000  0.000000  0.500000      2.000000
  0.500000  0.500000  0.500000      1.000000
 
 Following cartesian coordinates:
            Coordinates               Weight
  0.000000  0.000000  0.000000      1.000000
  0.039138  0.022596  0.000000      2.000000
  0.039138  0.067789  0.000000      1.000000
  0.000000  0.000000  0.046956      2.000000
  0.039138  0.022596  0.046956      4.000000
  0.039138  0.067789  0.046956      2.000000
  0.000000  0.000000  0.093912      1.000000
  0.039138  0.022596  0.093912      2.000000
  0.039138  0.067789  0.093912      1.000000
 
 TETIRR: Found     24 inequivalent tetrahedra from       96


--------------------------------------------------------------------------------------------------------




 Dimension of arrays:
   k-points           NKPTS =      9   k-points in BZ     NKDIM =      9   number of bands    NBANDS=    192
   number of dos      NEDOS =    301   number of ions     NIONS =     40
   non local maximal  LDIM  =      6   non local SUM 2l+1 LMDIM =     18
   total plane-waves  NPLWV = 368640
   max r-space proj   IRMAX =   9164   max aug-charges    IRDMAX=   9965
   dimension x,y,z NGX =    96 NGY =   96 NGZ =   40
   dimension x,y,z NGXF=   140 NGYF=  140 NGZF=   60
   support grid    NGXF=   140 NGYF=  140 NGZF=   60
   ions per type =              24   8   8
   NGX,Y,Z   is equivalent  to a cutoff of  12.49, 12.49, 12.49 a.u.
   NGXF,Y,Z  is equivalent  to a cutoff of  18.22, 18.22, 18.74 a.u.

 SYSTEM =  CsNiF3 AF without U                     
 POSCAR =  For VASP. System= small                 

 Startparameter for this run:
   NWRITE =      2    write-flag & timer
   PREC   = high      normal or accurate (medium, high low for compatibility)
   ISTART =      0    job   : 0-new  1-cont  2-samecut
   ICHARG =      2    charge: 1-file 2-atom 10-const
   ISPIN  =      2    spin polarized calculation?
   LNONCOLLINEAR =      F non collinear calculations
   LSORBIT =      F    spin-orbit coupling
   INIWAV =      1    electr: 0-lowe 1-rand  2-diag
   LASPH  =      F    aspherical Exc in radial PAW
   METAGGA=      F    non-selfconsistent MetaGGA calc.

 Electronic Relaxation 1
   ENCUT  =  520.0 eV  38.22 Ry    6.18 a.u.  23.75 23.75  9.90*2*pi/ulx,y,z
   ENINI  =  520.0     initial cutoff
   ENAUG  =  613.6 eV  augmentation charge cutoff
   NELM   =    100;   NELMIN=  2; NELMDL= -5     # of ELM steps 
   EDIFF  = 0.1E-06   stopping-criterion for ELM
   LREAL  =      T    real-space projection
   NLSPLINE    = F    spline interpolate recip. space projectors
   LCOMPAT=      F    compatible to vasp.4.4
   GGA_COMPAT  = T    GGA compatible to vasp.4.4-vasp.4.6
   LMAXPAW     = -100 max onsite density
   LMAXMIX     =    2 max onsite mixed and CHGCAR
   VOSKOWN=      0    Vosko Wilk Nusair interpolation
   ROPT   =    0.00000   0.00000   0.00000
 Ionic relaxation
   EDIFFG = 0.1E-05   stopping-criterion for IOM
   NSW    =      0    number of steps for IOM
   NBLOCK =      1;   KBLOCK =      1    inner block; outer block 
   IBRION =     -1    ionic relax: 0-MD 1-quasi-New 2-CG
   NFREE  =      0    steps in history (QN), initial steepest desc. (CG)
   ISIF   =      2    stress and relaxation
   IWAVPR =     10    prediction:  0-non 1-charg 2-wave 3-comb
   ISYM   =      2    0-nonsym 1-usesym 2-fastsym
   LCORR  =      T    Harris-Foulkes like correction to forces

   POTIM  = 0.5000    time-step for ionic-motion
   TEIN   =    0.0    initial temperature
   TEBEG  =    0.0;   TEEND  =   0.0 temperature during run
   SMASS  =  -3.00    Nose mass-parameter (am)
   estimated Nose-frequenzy (Omega)   =  0.10E-29 period in steps =****** mass=  -0.373E-26a.u.
   SCALEE = 1.0000    scale energy and forces
   NPACO  =    256;   APACO  = 16.0  distance and # of slots for P.C.
   PSTRESS=    0.0 pullay stress

  Mass of Ions in am
   POMASS =  19.00 58.69132.90
  Ionic Valenz
   ZVAL   =   7.00 10.00  9.00
  Atomic Wigner-Seitz radii
   RWIGS  =  -1.00 -1.00 -1.00
  virtual crystal weights 
   VCA    =   1.00  1.00  1.00
   NELECT =     320.0000    total number of electrons
   NUPDOWN=      -1.0000    fix difference up-down

 DOS related values:
   EMIN   =  10.00;   EMAX   =-10.00  energy-range for DOS
   EFERMI =   0.00
   ISMEAR =    -5;   SIGMA  =   0.20  broadening in eV -4-tet -1-fermi 0-gaus

 Electronic relaxation 2 (details)
   IALGO  =     38    algorithm
   LDIAG  =      T    sub-space diagonalisation (order eigenvalues)
   LSUBROT=      F    optimize rotation matrix (better conditioning)
   TURBO    =      0    0=normal 1=particle mesh
   IRESTART =      0    0=no restart 2=restart with 2 vectors
   NREBOOT  =      0    no. of reboots
   NMIN     =      0    reboot dimension
   EREF     =   0.00    reference energy to select bands
   IMIX   =      4    mixing-type and parameters
     AMIX     =   0.40;   BMIX     =  1.00
     AMIX_MAG =   1.60;   BMIX_MAG =  1.00
     AMIN     =   0.10
     WC   =   100.;   INIMIX=   1;  MIXPRE=   1;  MAXMIX= -45

 Intra band minimization:
   WEIMIN = 0.0000     energy-eigenvalue tresh-hold
   EBREAK =  0.13E-09  absolut break condition
   DEPER  =   0.30     relativ break condition  

   TIME   =   0.40     timestep for ELM

  volume/ion in A,a.u.               =      18.81       126.96
  Fermi-wavevector in a.u.,A,eV,Ry     =   1.231077  2.326398 20.620322  1.515551
  Thomas-Fermi vector in A             =   2.365901
 
 Write flags
   LWAVE        =      F    write WAVECAR
   LDOWNSAMPLE  =      F    k-point downsampling of WAVECAR
   LCHARG       =      F    write CHGCAR
   LVTOT        =      F    write LOCPOT, total local potential
   LVHAR        =      F    write LOCPOT, Hartree potential only
   LELF         =      F    write electronic localiz. function (ELF)
   LORBIT       =     11    0 simple, 1 ext, 2 COOP (PROOUT), +10 PAW based schemes


 Dipole corrections
   LMONO  =      F    monopole corrections only (constant potential shift)
   LDIPOL =      F    correct potential (dipole corrections)
   IDIPOL =      0    1-x, 2-y, 3-z, 4-all directions 
   EPSILON=  1.0000000 bulk dielectric constant

 Exchange correlation treatment:
   GGA     =    --    GGA type
   LEXCH   =     8    internal setting for exchange type
   VOSKOWN=      0    Vosko Wilk Nusair interpolation
   LHFCALC =     F    Hartree Fock is set to
   LHFONE  =     F    Hartree Fock one center treatment
   AEXX    =    0.0000 exact exchange contribution

 Linear response parameters
   LEPSILON=     F    determine dielectric tensor
   LRPA    =     F    only Hartree local field effects (RPA)
   LNABLA  =     F    use nabla operator in PAW spheres
   LVEL    =     F    velocity operator in full k-point grid
   LINTERFAST=   F  fast interpolation
   KINTER  =     0    interpolate to denser k-point grid
   CSHIFT  =0.1000    complex shift for real part using Kramers Kronig
   OMEGAMAX=  -1.0    maximum frequency
   DEG_THRESHOLD= 0.2000000E-02 threshold for treating states as degnerate
   RTIME   =   -0.100 relaxation time in fs
  (WPLASMAI=    0.000 imaginary part of plasma frequency in eV, 0.658/RTIME)
   DFIELD  = 0.0000000 0.0000000 0.0000000 field for delta impulse in time
 
 Orbital magnetization related:
   ORBITALMAG=     F  switch on orbital magnetization
   LCHIMAG   =     F  perturbation theory with respect to B field
   DQ        =  0.001000  dq finite difference perturbation B field
   LLRAUG    =     F  two centre corrections for induced B field



--------------------------------------------------------------------------------------------------------


 Static calculation
 charge density and potential will be updated during run
 spin polarized calculation
 Variant of blocked Davidson
 Davidson routine will perform the subspace rotation
 perform sub-space diagonalisation
    after iterative eigenvector-optimisation
 modified Broyden-mixing scheme, WC =      100.0
 initial mixing is a Kerker type mixing with AMIX =  0.4000 and BMIX =      1.0000
 Hartree-type preconditioning will be used
 using additional bands           32
 real space projection scheme for non local part
 use partial core corrections
 calculate Harris-corrections to forces 
   (improved forces if not selfconsistent)
 use gradient corrections 
 use of overlap-Matrix (Vanderbilt PP)
 Fermi weights with tetrahedron method with Bloechl corrections


--------------------------------------------------------------------------------------------------------


  energy-cutoff  :      520.00
  volume of cell :      752.52
      direct lattice vectors                 reciprocal lattice vectors
    12.775245568  0.000000000  0.000000000     0.078276382  0.045192789  0.000000000
    -6.387622784 11.063711963  0.000000000     0.000000000  0.090385578  0.000000000
     0.000000000  0.000000000  5.324128930     0.000000000  0.000000000  0.187824152

  length of vectors
    12.775245568 12.775267012  5.324128930     0.090385730  0.090385578  0.187824152


 
 k-points in units of 2pi/SCALE and weight: Automatic mesh                          
   0.00000000  0.00000000  0.00000000       0.062
   0.03913819  0.02259639  0.00000000       0.125
   0.03913819  0.06778918  0.00000000       0.062
   0.00000000  0.00000000  0.04695604       0.125
   0.03913819  0.02259639  0.04695604       0.250
   0.03913819  0.06778918  0.04695604       0.125
   0.00000000  0.00000000  0.09391208       0.062
   0.03913819  0.02259639  0.09391208       0.125
   0.03913819  0.06778918  0.09391208       0.062
 
 k-points in reciprocal lattice and weights: Automatic mesh                          
   0.00000000  0.00000000  0.00000000       0.062
   0.50000000  0.00000000  0.00000000       0.125
   0.50000000  0.50000000  0.00000000       0.062
   0.00000000  0.00000000  0.25000000       0.125
   0.50000000  0.00000000  0.25000000       0.250
   0.50000000  0.50000000  0.25000000       0.125
   0.00000000  0.00000000  0.50000000       0.062
   0.50000000  0.00000000  0.50000000       0.125
   0.50000000  0.50000000  0.50000000       0.062
 
 position of ions in fractional coordinates (direct lattice) 
   0.57007855  0.64016376  0.25000000
   0.07007855  0.64016376  0.25000000
   0.57007855  0.14016376  0.25000000
   0.07007855  0.14016376  0.25000000
   0.85983624  0.92992145  0.25000000
   0.35983624  0.92992145  0.25000000
   0.85983624  0.42992145  0.25000000
   0.35983624  0.42992145  0.25000000
   0.57008349  0.92991651  0.25000000
   0.07008349  0.92991651  0.25000000
   0.57008349  0.42991651  0.25000000
   0.07008349  0.42991651  0.25000000
   0.92992145  0.85983624  0.75000000
   0.42992145  0.85983624  0.75000000
   0.92992145  0.35983624  0.75000000
   0.42992145  0.35983624  0.75000000
   0.64016376  0.57007855  0.75000000
   0.14016376  0.57007855  0.75000000
   0.64016376  0.07007855  0.75000000
   0.14016376  0.07007855  0.75000000
   0.92991651  0.57008349  0.75000000
   0.42991651  0.57008349  0.75000000
   0.92991651  0.07008349  0.75000000
   0.42991651  0.07008349  0.75000000
   0.00000000  0.00000000  0.00000000
   0.50000000  0.00000000  0.00000000
   1.00000000  0.50000000  0.00000000
   0.50000000  0.50000000  0.00000000
   0.00000000  0.00000000  0.50000000
   0.50000000  0.00000000  0.50000000
   1.00000000  0.50000000  0.50000000
   0.50000000  0.50000000  0.50000000
   0.66666713  0.83333287  0.75000000
   0.16666713  0.83333287  0.75000000
   0.66666713  0.33333287  0.75000000
   0.16666713  0.33333287  0.75000000
   0.83333287  0.66666713  0.25000000
   0.33333287  0.66666713  0.25000000
   0.83333287  0.16666713  0.25000000
   0.33333287  0.16666713  0.25000000
 
 position of ions in cartesian coordinates  (Angst):
   3.19376888  7.08258743  1.33103223
  -3.19385391  7.08258743  1.33103223
   6.38758027  1.55073145  1.33103223
  -0.00004252  1.55073145  1.33103223
   5.04463170 10.28838306  1.33103223
  -1.34299108 10.28838306  1.33103223
   8.23844310  4.75652708  1.33103223
   1.85082031  4.75652708  1.33103223
   1.34300064 10.28832845  1.33103223
  -5.04462215 10.28832845  1.33103223
   4.53681203  4.75647247  1.33103223
  -1.85081076  4.75647247  1.33103223
   6.38766530  9.51298052  3.99309670
   0.00004252  9.51298052  3.99309670
   9.58147669  3.98112454  3.99309670
   3.19385391  3.98112454  3.99309670
   4.53680247  6.30718488  3.99309670
  -1.85082031  6.30718488  3.99309670
   7.73061386  0.77532890  3.99309670
   1.34299108  0.77532890  3.99309670
   8.23843354  6.30723949  3.99309670
   1.85081076  6.30723949  3.99309670
  11.43224493  0.77538351  3.99309670
   5.04462215  0.77538351  3.99309670
   0.00000000  0.00000000  0.00000000
   6.38762278  0.00000000  0.00000000
   9.58143418  5.53185598  0.00000000
   3.19381139  5.53185598  0.00000000
   0.00000000  0.00000000  2.66206446
   6.38762278  0.00000000  2.66206446
   9.58143418  5.53185598  2.66206446
   3.19381139  5.53185598  2.66206446
   3.19382031  9.21975482  3.99309670
  -3.19380247  9.21975482  3.99309670
   6.38763170  3.68789884  3.99309670
   0.00000892  3.68789884  3.99309670
   6.38761387  7.37581312  1.33103223
  -0.00000892  7.37581312  1.33103223
   9.58142526  1.84395714  1.33103223
   3.19380247  1.84395714  1.33103223
 


--------------------------------------------------------------------------------------------------------


 k-point  1 :   0.0000 0.0000 0.0000  plane waves:   20197
 k-point  2 :   0.5000 0.0000 0.0000  plane waves:   20226
 k-point  3 :   0.5000 0.5000 0.0000  plane waves:   20226
 k-point  4 :   0.0000 0.0000 0.2500  plane waves:   20294
 k-point  5 :   0.5000 0.0000 0.2500  plane waves:   20258
 k-point  6 :   0.5000 0.5000 0.2500  plane waves:   20258
 k-point  7 :   0.0000 0.0000 0.5000  plane waves:   20240
 k-point  8 :   0.5000 0.0000 0.5000  plane waves:   20320
 k-point  9 :   0.5000 0.5000 0.5000  plane waves:   20320

 maximum and minimum number of plane-waves per node :       882      806

 maximum number of plane-waves:     20320
 maximum index in each direction: 
   IXMAX=   23   IYMAX=   23   IZMAX=    9
   IXMIN=  -24   IYMIN=  -24   IZMIN=  -10


 real space projection operators:
  total allocation   :      19689.81 KBytes
  max/ min on nodes  :        844.06        757.81


 parallel 3D FFT for wavefunctions:
    minimum data exchange during FFTs selected (reduces bandwidth)
 parallel 3D FFT for charge:
    minimum data exchange during FFTs selected (reduces bandwidth)


 total amount of memory used by VASP MPI-rank0    66568. kBytes
=======================================================================

   base      :      30000. kBytes
   nonlr-proj:       7318. kBytes
   fftplans  :       1395. kBytes
   grid      :       3519. kBytes
   one-center:         62. kBytes
   wavefun   :      24274. kBytes
 
     INWAV:  cpu time    0.0000: real time    0.0000
 Broyden mixing: mesh for mixing (old mesh)
   NGX = 47   NGY = 47   NGZ = 19
  (NGX  =140   NGY  =140   NGZ  = 60)
  gives a total of  41971 points

 initial charge density was supplied:
 charge density of overlapping atoms calculated
 number of electron     320.0000000 magnetization      -0.0000000
 keeping initial charge density in first step


--------------------------------------------------------------------------------------------------------


 Maximum index for non-local projection operator          385
 Maximum index for augmentation-charges          493 (set IRDMAX)


--------------------------------------------------------------------------------------------------------


 First call to EWALD:  gamma=   0.195
 Maximum number of real-space cells 2x 2x 4
 Maximum number of reciprocal cells 4x 4x 2

    FEWALD:  cpu time    0.0022: real time    0.0022


--------------------------------------- Iteration      1(   1)  ---------------------------------------


    POTLOK:  cpu time    0.0494: real time    0.0511
    SETDIJ:  cpu time    0.0076: real time    0.0076
     EDDAV:  cpu time    7.9507: real time    7.9746
 BZINTS: Fermi energy: 20.031860;320.000000 electrons
         Band energy:1695.884796;  BLOECHL correction: -0.044102
       DOS:  cpu time    0.0119: real time    0.0119
    --------------------------------------------
      LOOP:  cpu time    8.0196: real time    8.0452

 eigenvalue-minimisations  :  6912
 total energy-change (2. order) : 0.3968949E+04  (-0.1462861E+05)
 number of electron     320.0000000 magnetization      -0.0000000
 augmentation part      320.0000000 magnetization      -0.0000000

 Free energy of the ion-electron system (eV)
  ---------------------------------------------------
  alpha Z        PSCENC =      1278.33848294
  Ewald energy   TEWEN  =    -16011.11606870
  -Hartree energ DENC   =    -12510.24273293
  -exchange      EXHF   =         0.00000000
  -V(xc)+E(xc)   XCENC  =      1221.43890180
  PAW double counting   =     19640.54138542   -20241.63226317
  entropy T*S    EENTRO =         0.00000000
  eigenvalues    EBANDS =      1695.88479603
  atomic energy  EATOM  =     28895.73697308
  Solvation  Ediel_sol  =         0.00000000
  ---------------------------------------------------
  free energy    TOTEN  =      3968.94947448 eV

  energy without entropy =     3968.94947448  energy(sigma->0) =     3968.94947448


--------------------------------------------------------------------------------------------------------




--------------------------------------- Iteration      1(   2)  ---------------------------------------


     EDDAV:  cpu time    8.3068: real time    8.3273
 BZINTS: Fermi energy:  5.586054;320.000000 electrons
         Band energy:***********;  BLOECHL correction: -0.045030
       DOS:  cpu time    0.0125: real time    0.0125
    --------------------------------------------
      LOOP:  cpu time    8.3193: real time    8.3399

 eigenvalue-minimisations  :  7456
 total energy-change (2. order) :-0.3479443E+04  (-0.3222994E+04)
 number of electron     320.0000000 magnetization      -0.0000000
 augmentation part      320.0000000 magnetization      -0.0000000

 Free energy of the ion-electron system (eV)
  ---------------------------------------------------
  alpha Z        PSCENC =      1278.33848294
  Ewald energy   TEWEN  =    -16011.11606870
  -Hartree energ DENC   =    -12510.24273293
  -exchange      EXHF   =         0.00000000
  -V(xc)+E(xc)   XCENC  =      1221.43890180
  PAW double counting   =     19640.54138542   -20241.63226317
  entropy T*S    EENTRO =         0.00000000
  eigenvalues    EBANDS =     -1783.55791845
  atomic energy  EATOM  =     28895.73697308
  Solvation  Ediel_sol  =         0.00000000
  ---------------------------------------------------
  free energy    TOTEN  =       489.50676000 eV

  energy without entropy =      489.50676000  energy(sigma->0) =      489.50676000


--------------------------------------------------------------------------------------------------------




--------------------------------------- Iteration      1(   3)  ---------------------------------------


     EDDAV:  cpu time    8.2996: real time    8.3207
 BZINTS: Fermi energy:  3.705991;320.000000 electrons
         Band energy:***********;  BLOECHL correction: -0.008593
       DOS:  cpu time    0.0115: real time    0.0115
    --------------------------------------------
      LOOP:  cpu time    8.3111: real time    8.3322

 eigenvalue-minimisations  :  7512
 total energy-change (2. order) :-0.6602325E+03  (-0.6404825E+03)
 number of electron     320.0000000 magnetization      -0.0000000
 augmentation part      320.0000000 magnetization      -0.0000000

 Free energy of the ion-electron system (eV)
  ---------------------------------------------------
  alpha Z        PSCENC =      1278.33848294
  Ewald energy   TEWEN  =    -16011.11606870
  -Hartree energ DENC   =    -12510.24273293
  -exchange      EXHF   =         0.00000000
  -V(xc)+E(xc)   XCENC  =      1221.43890180
  PAW double counting   =     19640.54138542   -20241.63226317
  entropy T*S    EENTRO =         0.00000000
  eigenvalues    EBANDS =     -2443.79045369
  atomic energy  EATOM  =     28895.73697308
  Solvation  Ediel_sol  =         0.00000000
  ---------------------------------------------------
  free energy    TOTEN  =      -170.72577525 eV

  energy without entropy =     -170.72577525  energy(sigma->0) =     -170.72577525


--------------------------------------------------------------------------------------------------------




--------------------------------------- Iteration      1(   4)  ---------------------------------------


     EDDAV:  cpu time    8.8200: real time    8.8962
 BZINTS: Fermi energy:  3.542406;320.000000 electrons
         Band energy:***********;  BLOECHL correction: -0.000601
       DOS:  cpu time    0.0096: real time    0.0096
    --------------------------------------------
      LOOP:  cpu time    8.8295: real time    8.9058

 eigenvalue-minimisations  :  8008
 total energy-change (2. order) :-0.3813184E+02  (-0.3732438E+02)
 number of electron     320.0000000 magnetization      -0.0000000
 augmentation part      320.0000000 magnetization      -0.0000000

 Free energy of the ion-electron system (eV)
  ---------------------------------------------------
  alpha Z        PSCENC =      1278.33848294
  Ewald energy   TEWEN  =    -16011.11606870
  -Hartree energ DENC   =    -12510.24273293
  -exchange      EXHF   =         0.00000000
  -V(xc)+E(xc)   XCENC  =      1221.43890180
  PAW double counting   =     19640.54138542   -20241.63226317
  entropy T*S    EENTRO =         0.00000000
  eigenvalues    EBANDS =     -2481.92228875
  atomic energy  EATOM  =     28895.73697308
  Solvation  Ediel_sol  =         0.00000000
  ---------------------------------------------------
  free energy    TOTEN  =      -208.85761031 eV

  energy without entropy =     -208.85761031  energy(sigma->0) =     -208.85761031


--------------------------------------------------------------------------------------------------------




--------------------------------------- Iteration      1(   5)  ---------------------------------------


     EDDAV:  cpu time    9.2897: real time    9.2971
 BZINTS: Fermi energy:  3.530343;320.000000 electrons
         Band energy:***********;  BLOECHL correction: -0.000045
       DOS:  cpu time    0.0082: real time    0.0082
    CHARGE:  cpu time    0.5007: real time    0.5115
    MIXING:  cpu time    0.0014: real time    0.0015
    --------------------------------------------
      LOOP:  cpu time    9.8001: real time    9.8183

 eigenvalue-minimisations  :  8688
 total energy-change (2. order) :-0.1469757E+01  (-0.1462759E+01)
 number of electron     320.0000868 magnetization      -0.0000000
 augmentation part       64.5361208 magnetization      -0.0000000

 Broyden mixing:
  rms(total) = 0.37638E+01    rms(broyden)= 0.37585E+01
  rms(prec ) = 0.46604E+01
  weight for this iteration     100.00

 Free energy of the ion-electron system (eV)
  ---------------------------------------------------
  alpha Z        PSCENC =      1278.33848294
  Ewald energy   TEWEN  =    -16011.11606870
  -Hartree energ DENC   =    -12510.24273293
  -exchange      EXHF   =         0.00000000
  -V(xc)+E(xc)   XCENC  =      1221.43890180
  PAW double counting   =     19640.54138542   -20241.63226317
  entropy T*S    EENTRO =         0.00000000
  eigenvalues    EBANDS =     -2483.39204614
  atomic energy  EATOM  =     28895.73697308
  Solvation  Ediel_sol  =         0.00000000
  ---------------------------------------------------
  free energy    TOTEN  =      -210.32736769 eV

  energy without entropy =     -210.32736769  energy(sigma->0) =     -210.32736769


--------------------------------------------------------------------------------------------------------




--------------------------------------- Iteration      1(   6)  ---------------------------------------


    POTLOK:  cpu time    0.0464: real time    0.0500
    SETDIJ:  cpu time    0.0071: real time    0.0071
     EDDAV:  cpu time   10.0987: real time   10.1467
 BZINTS: Fermi energy: -0.970483;320.000000 electrons
         Band energy:***********;  BLOECHL correction:  0.000000
       DOS:  cpu time    0.0024: real time    0.0024
    CHARGE:  cpu time    0.4947: real time    0.4947
    MIXING:  cpu time    0.0012: real time    0.0012
    --------------------------------------------
      LOOP:  cpu time   10.6504: real time   10.7020

 eigenvalue-minimisations  :  9632
 total energy-change (2. order) : 0.2738323E+02  (-0.2108563E+02)
 number of electron     320.0000822 magnetization      -0.0000000
 augmentation part       66.3181558 magnetization      -0.0000000

 Broyden mixing:
  rms(total) = 0.20451E+01    rms(broyden)= 0.20436E+01
  rms(prec ) = 0.21934E+01
  weight for this iteration     100.00

 eigenvalues of (default mixing * dielectric matrix)
  average eigenvalue GAMMA=   0.5999
  0.5999

 Free energy of the ion-electron system (eV)
  ---------------------------------------------------
  alpha Z        PSCENC =      1278.33848294
  Ewald energy   TEWEN  =    -16011.11606870
  -Hartree energ DENC   =    -12659.46357399
  -exchange      EXHF   =         0.00000000
  -V(xc)+E(xc)   XCENC  =      1242.43560179
  PAW double counting   =     20152.49289577   -20724.96619501
  entropy T*S    EENTRO =         0.00000000
  eigenvalues    EBANDS =     -2356.40225507
  atomic energy  EATOM  =     28895.73697308
  Solvation  Ediel_sol  =         0.00000000
  ---------------------------------------------------
  free energy    TOTEN  =      -182.94413918 eV

  energy without entropy =     -182.94413918  energy(sigma->0) =     -182.94413918


--------------------------------------------------------------------------------------------------------




--------------------------------------- Iteration      1(   7)  ---------------------------------------


    POTLOK:  cpu time    0.0461: real time    0.0483
    SETDIJ:  cpu time    0.0070: real time    0.0070
     EDDAV:  cpu time   10.0996: real time   10.1262
 BZINTS: Fermi energy:  0.474196;320.000000 electrons
         Band energy:***********;  BLOECHL correction:  0.000000
       DOS:  cpu time    0.0025: real time    0.0025
    CHARGE:  cpu time    0.4594: real time    0.4597
    MIXING:  cpu time    0.0011: real time    0.0011
    --------------------------------------------
      LOOP:  cpu time   10.6156: real time   10.6448

 eigenvalue-minimisations  :  9552
 total energy-change (2. order) : 0.1153244E+00  (-0.2907577E+01)
 number of electron     320.0000822 magnetization      -0.0000000
 augmentation part       64.3623812 magnetization      -0.0000000

 Broyden mixing:
  rms(total) = 0.85789E+00    rms(broyden)= 0.85772E+00
  rms(prec ) = 0.93232E+00
  weight for this iteration     100.00

 eigenvalues of (default mixing * dielectric matrix)
  average eigenvalue GAMMA=   0.6633
  0.6633  0.6633

 Free energy of the ion-electron system (eV)
  ---------------------------------------------------
  alpha Z        PSCENC =      1278.33848294
  Ewald energy   TEWEN  =    -16011.11606870
  -Hartree energ DENC   =    -12689.11383547
  -exchange      EXHF   =         0.00000000
  -V(xc)+E(xc)   XCENC  =      1238.84752813
  PAW double counting   =     20304.95288769   -20908.62838575
  entropy T*S    EENTRO =         0.00000000
  eigenvalues    EBANDS =     -2291.84639672
  atomic energy  EATOM  =     28895.73697308
  Solvation  Ediel_sol  =         0.00000000
  ---------------------------------------------------
  free energy    TOTEN  =      -182.82881479 eV

  energy without entropy =     -182.82881479  energy(sigma->0) =     -182.82881479


--------------------------------------------------------------------------------------------------------




--------------------------------------- Iteration      1(   8)  ---------------------------------------


    POTLOK:  cpu time    0.0475: real time    0.0496
    SETDIJ:  cpu time    0.0070: real time    0.0070
     EDDAV:  cpu time    9.3798: real time    9.3992
 BZINTS: Fermi energy:  0.552589;320.000000 electrons
         Band energy:***********;  BLOECHL correction:  0.000000
       DOS:  cpu time    0.0021: real time    0.0021
    CHARGE:  cpu time    0.4627: real time    0.4674
    MIXING:  cpu time    0.0011: real time    0.0011
    --------------------------------------------
      LOOP:  cpu time    9.9002: real time    9.9264

 eigenvalue-minimisations  :  8760
 total energy-change (2. order) :-0.3136419E+00  (-0.4417470E+00)
 number of electron     320.0000827 magnetization       0.0000000
 augmentation part       64.4334053 magnetization       0.0000000

 Broyden mixing:
  rms(total) = 0.45746E+00    rms(broyden)= 0.45733E+00
  rms(prec ) = 0.53441E+00
  weight for this iteration     100.00

 eigenvalues of (default mixing * dielectric matrix)
  average eigenvalue GAMMA=   1.0463
  1.7474  0.6958  0.6958

 Free energy of the ion-electron system (eV)
  ---------------------------------------------------
  alpha Z        PSCENC =      1278.33848294
  Ewald energy   TEWEN  =    -16011.11606870
  -Hartree energ DENC   =    -12676.42984382
  -exchange      EXHF   =         0.00000000
  -V(xc)+E(xc)   XCENC  =      1238.40494986
  PAW double counting   =     20355.57943269   -20965.84430697
  entropy T*S    EENTRO =         0.00000000
  eigenvalues    EBANDS =     -2297.81207574
  atomic energy  EATOM  =     28895.73697308
  Solvation  Ediel_sol  =         0.00000000
  ---------------------------------------------------
  free energy    TOTEN  =      -183.14245667 eV

  energy without entropy =     -183.14245667  energy(sigma->0) =     -183.14245667


--------------------------------------------------------------------------------------------------------




--------------------------------------- Iteration      1(   9)  ---------------------------------------


    POTLOK:  cpu time    0.0464: real time    0.0482
    SETDIJ:  cpu time    0.0069: real time    0.0069
     EDDAV:  cpu time    9.8728: real time    9.8928
 BZINTS: Fermi energy:  0.385069;320.000000 electrons
         Band energy:***********;  BLOECHL correction:  0.000000
       DOS:  cpu time    0.0021: real time    0.0021
    CHARGE:  cpu time    0.4636: real time    0.4638
    MIXING:  cpu time    0.0012: real time    0.0012
    --------------------------------------------
      LOOP:  cpu time   10.3929: real time   10.4149

 eigenvalue-minimisations  :  9312
 total energy-change (2. order) : 0.1241285E+00  (-0.6274485E-01)
 number of electron     320.0000824 magnetization       0.0000000
 augmentation part       64.5905129 magnetization       0.0000000

 Broyden mixing:
  rms(total) = 0.21774E+00    rms(broyden)= 0.21769E+00
  rms(prec ) = 0.23424E+00
  weight for this iteration     100.00

 eigenvalues of (default mixing * dielectric matrix)
  average eigenvalue GAMMA=   1.1137
  2.4800  0.7597  0.6076  0.6076

 Free energy of the ion-electron system (eV)
  ---------------------------------------------------
  alpha Z        PSCENC =      1278.33848294
  Ewald energy   TEWEN  =    -16011.11606870
  -Hartree energ DENC   =    -12689.86043950
  -exchange      EXHF   =         0.00000000
  -V(xc)+E(xc)   XCENC  =      1240.06777854
  PAW double counting   =     20540.29903729   -21162.91566726
  entropy T*S    EENTRO =         0.00000000
  eigenvalues    EBANDS =     -2273.56842455
  atomic energy  EATOM  =     28895.73697308
  Solvation  Ediel_sol  =         0.00000000
  ---------------------------------------------------
  free energy    TOTEN  =      -183.01832816 eV

  energy without entropy =     -183.01832816  energy(sigma->0) =     -183.01832816


--------------------------------------------------------------------------------------------------------




--------------------------------------- Iteration      1(  10)  ---------------------------------------


    POTLOK:  cpu time    0.0457: real time    0.0477
    SETDIJ:  cpu time    0.0069: real time    0.0069
     EDDAV:  cpu time    9.9851: real time   10.0589
 BZINTS: Fermi energy:  0.473045;320.000000 electrons
         Band energy:***********;  BLOECHL correction:  0.000000
       DOS:  cpu time    0.0023: real time    0.0023
    CHARGE:  cpu time    0.4596: real time    0.4597
    MIXING:  cpu time    0.0014: real time    0.0014
    --------------------------------------------
      LOOP:  cpu time   10.5010: real time   10.5769

 eigenvalue-minimisations  :  9448
 total energy-change (2. order) :-0.2646570E-01  (-0.2226809E-01)
 number of electron     320.0000825 magnetization      -0.0000000
 augmentation part       64.4883798 magnetization      -0.0000000

 Broyden mixing:
  rms(total) = 0.70093E-01    rms(broyden)= 0.70071E-01
  rms(prec ) = 0.84642E-01
  weight for this iteration     100.00

 eigenvalues of (default mixing * dielectric matrix)
  average eigenvalue GAMMA=   1.1101
  2.4504  1.1346  0.6564  0.6564  0.6528

 Free energy of the ion-electron system (eV)
  ---------------------------------------------------
  alpha Z        PSCENC =      1278.33848294
  Ewald energy   TEWEN  =    -16011.11606870
  -Hartree energ DENC   =    -12694.36930719
  -exchange      EXHF   =         0.00000000
  -V(xc)+E(xc)   XCENC  =      1240.09826853
  PAW double counting   =     20562.84043230   -21188.69777456
  entropy T*S    EENTRO =         0.00000000
  eigenvalues    EBANDS =     -2265.87580026
  atomic energy  EATOM  =     28895.73697308
  Solvation  Ediel_sol  =         0.00000000
  ---------------------------------------------------
  free energy    TOTEN  =      -183.04479386 eV

  energy without entropy =     -183.04479386  energy(sigma->0) =     -183.04479386


--------------------------------------------------------------------------------------------------------




--------------------------------------- Iteration      1(  11)  ---------------------------------------


    POTLOK:  cpu time    0.0484: real time    0.0502
    SETDIJ:  cpu time    0.0070: real time    0.0070
     EDDAV:  cpu time   10.3733: real time   10.4028
 BZINTS: Fermi energy:  0.494589;320.000000 electrons
         Band energy:***********;  BLOECHL correction:  0.000000
       DOS:  cpu time    0.0020: real time    0.0020
    CHARGE:  cpu time    0.4776: real time    0.4777
    MIXING:  cpu time    0.0013: real time    0.0013
    --------------------------------------------
      LOOP:  cpu time   10.9097: real time   10.9410

 eigenvalue-minimisations  :  9944
 total energy-change (2. order) :-0.8737351E-03  (-0.4087010E-02)
 number of electron     320.0000827 magnetization      -0.0000000
 augmentation part       64.4744070 magnetization      -0.0000000

 Broyden mixing:
  rms(total) = 0.24558E-01    rms(broyden)= 0.24469E-01
  rms(prec ) = 0.28657E-01
  weight for this iteration     100.00

 eigenvalues of (default mixing * dielectric matrix)
  average eigenvalue GAMMA=   1.1087
  2.4472  1.3344  0.9179  0.6549  0.6549  0.6429

 Free energy of the ion-electron system (eV)
  ---------------------------------------------------
  alpha Z        PSCENC =      1278.33848294
  Ewald energy   TEWEN  =    -16011.11606870
  -Hartree energ DENC   =    -12695.04703763
  -exchange      EXHF   =         0.00000000
  -V(xc)+E(xc)   XCENC  =      1239.89708486
  PAW double counting   =     20556.89899347   -21183.06127838
  entropy T*S    EENTRO =         0.00000000
  eigenvalues    EBANDS =     -2264.69281724
  atomic energy  EATOM  =     28895.73697308
  Solvation  Ediel_sol  =         0.00000000
  ---------------------------------------------------
  free energy    TOTEN  =      -183.04566759 eV

  energy without entropy =     -183.04566759  energy(sigma->0) =     -183.04566759


--------------------------------------------------------------------------------------------------------




--------------------------------------- Iteration      1(  12)  ---------------------------------------


    POTLOK:  cpu time    0.0463: real time    0.0485
    SETDIJ:  cpu time    0.0068: real time    0.0070
     EDDAV:  cpu time    8.3608: real time    8.3978
 BZINTS: Fermi energy:  0.497729;320.000000 electrons
         Band energy:***********;  BLOECHL correction:  0.000000
       DOS:  cpu time    0.0020: real time    0.0020
    CHARGE:  cpu time    0.4574: real time    0.4577
    MIXING:  cpu time    0.0013: real time    0.0013
    --------------------------------------------
      LOOP:  cpu time    8.8746: real time    8.9144

 eigenvalue-minimisations  :  7528
 total energy-change (2. order) :-0.3382620E-02  (-0.1249854E-02)
 number of electron     320.0000827 magnetization      -0.0000000
 augmentation part       64.4836329 magnetization      -0.0000000

 Broyden mixing:
  rms(total) = 0.11234E-01    rms(broyden)= 0.11228E-01
  rms(prec ) = 0.13480E-01
  weight for this iteration     100.00

 eigenvalues of (default mixing * dielectric matrix)
  average eigenvalue GAMMA=   1.2141
  2.4994  2.0890  1.0828  0.6622  0.6622  0.8562  0.6466

 Free energy of the ion-electron system (eV)
  ---------------------------------------------------
  alpha Z        PSCENC =      1278.33848294
  Ewald energy   TEWEN  =    -16011.11606870
  -Hartree energ DENC   =    -12697.60103062
  -exchange      EXHF   =         0.00000000
  -V(xc)+E(xc)   XCENC  =      1240.09074210
  PAW double counting   =     20557.49391904   -21183.57997696
  entropy T*S    EENTRO =         0.00000000
  eigenvalues    EBANDS =     -2262.41209109
  atomic energy  EATOM  =     28895.73697308
  Solvation  Ediel_sol  =         0.00000000
  ---------------------------------------------------
  free energy    TOTEN  =      -183.04905021 eV

  energy without entropy =     -183.04905021  energy(sigma->0) =     -183.04905021


--------------------------------------------------------------------------------------------------------




--------------------------------------- Iteration      1(  13)  ---------------------------------------


    POTLOK:  cpu time    0.0467: real time    0.0485
    SETDIJ:  cpu time    0.0070: real time    0.0070
     EDDAV:  cpu time    8.5841: real time    8.6106
 BZINTS: Fermi energy:  0.496458;320.000000 electrons
         Band energy:***********;  BLOECHL correction:  0.000000
       DOS:  cpu time    0.0022: real time    0.0022
    CHARGE:  cpu time    0.4603: real time    0.4604
    MIXING:  cpu time    0.0014: real time    0.0014
    --------------------------------------------
      LOOP:  cpu time    9.1017: real time    9.1300

 eigenvalue-minimisations  :  7824
 total energy-change (2. order) :-0.8436030E-03  (-0.1800882E-03)
 number of electron     320.0000826 magnetization      -0.0000000
 augmentation part       64.4782169 magnetization      -0.0000000

 Broyden mixing:
  rms(total) = 0.41053E-02    rms(broyden)= 0.41000E-02
  rms(prec ) = 0.46162E-02
  weight for this iteration     100.00

 eigenvalues of (default mixing * dielectric matrix)
  average eigenvalue GAMMA=   1.2288
  2.6984  2.4075  1.0158  1.0158  0.6606  0.6606  0.6484  0.7232

 Free energy of the ion-electron system (eV)
  ---------------------------------------------------
  alpha Z        PSCENC =      1278.33848294
  Ewald energy   TEWEN  =    -16011.11606870
  -Hartree energ DENC   =    -12699.73168523
  -exchange      EXHF   =         0.00000000
  -V(xc)+E(xc)   XCENC  =      1240.18077329
  PAW double counting   =     20558.34838821   -21184.43252263
  entropy T*S    EENTRO =         0.00000000
  eigenvalues    EBANDS =     -2260.37423478
  atomic energy  EATOM  =     28895.73697308
  Solvation  Ediel_sol  =         0.00000000
  ---------------------------------------------------
  free energy    TOTEN  =      -183.04989382 eV

  energy without entropy =     -183.04989382  energy(sigma->0) =     -183.04989382


--------------------------------------------------------------------------------------------------------




--------------------------------------- Iteration      1(  14)  ---------------------------------------


    POTLOK:  cpu time    0.0459: real time    0.0479
    SETDIJ:  cpu time    0.0069: real time    0.0069
     EDDAV:  cpu time    9.4517: real time    9.4749
 BZINTS: Fermi energy:  0.572167;320.000000 electrons
         Band energy:***********;  BLOECHL correction:  0.000000
       DOS:  cpu time    0.0023: real time    0.0023
    CHARGE:  cpu time    0.4633: real time    0.4681
    MIXING:  cpu time    0.0015: real time    0.0015
    --------------------------------------------
      LOOP:  cpu time    9.9716: real time   10.0016

 eigenvalue-minimisations  :  8864
 total energy-change (2. order) :-0.5058204E-04  (-0.1312719E-04)
 number of electron     320.0000826 magnetization      -0.0000000
 augmentation part       64.4783257 magnetization      -0.0000000

 Broyden mixing:
  rms(total) = 0.20958E-02    rms(broyden)= 0.20950E-02
  rms(prec ) = 0.23814E-02
  weight for this iteration     100.00

 eigenvalues of (default mixing * dielectric matrix)
  average eigenvalue GAMMA=   1.2116
  2.7845  2.3997  1.1022  1.1022  0.6617  0.6617  0.8748  0.6520  0.6655

 Free energy of the ion-electron system (eV)
  ---------------------------------------------------
  alpha Z        PSCENC =      1278.33848294
  Ewald energy   TEWEN  =    -16011.11606870
  -Hartree energ DENC   =    -12699.67451116
  -exchange      EXHF   =         0.00000000
  -V(xc)+E(xc)   XCENC  =      1240.17315468
  PAW double counting   =     20557.72550813   -21183.78564907
  entropy T*S    EENTRO =         0.00000000
  eigenvalues    EBANDS =     -2260.44783430
  atomic energy  EATOM  =     28895.73697308
  Solvation  Ediel_sol  =         0.00000000
  ---------------------------------------------------
  free energy    TOTEN  =      -183.04994440 eV

  energy without entropy =     -183.04994440  energy(sigma->0) =     -183.04994440


--------------------------------------------------------------------------------------------------------




--------------------------------------- Iteration      1(  15)  ---------------------------------------


    POTLOK:  cpu time    0.0811: real time    0.0828
    SETDIJ:  cpu time    0.0070: real time    0.0070
     EDDAV:  cpu time    8.6823: real time    8.7020
 BZINTS: Fermi energy:  0.559931;320.000000 electrons
         Band energy:***********;  BLOECHL correction:  0.000000
       DOS:  cpu time    0.0024: real time    0.0024
    CHARGE:  cpu time    0.4579: real time    0.4581
    MIXING:  cpu time    0.0021: real time    0.0021
    --------------------------------------------
      LOOP:  cpu time    9.2327: real time    9.2543

 eigenvalue-minimisations  :  7824
 total energy-change (2. order) :-0.2004430E-04  (-0.2764335E-05)
 number of electron     320.0000826 magnetization      -0.0000000
 augmentation part       64.4795688 magnetization      -0.0000000

 Broyden mixing:
  rms(total) = 0.98363E-03    rms(broyden)= 0.98049E-03
  rms(prec ) = 0.11532E-02
  weight for this iteration     100.00

 eigenvalues of (default mixing * dielectric matrix)
  average eigenvalue GAMMA=   1.2402
  2.8885  2.3651  1.5348  1.1088  1.1088  0.6624  0.6624  0.7469  0.6371  0.6868

 Free energy of the ion-electron system (eV)
  ---------------------------------------------------
  alpha Z        PSCENC =      1278.33848294
  Ewald energy   TEWEN  =    -16011.11606870
  -Hartree energ DENC   =    -12699.63573879
  -exchange      EXHF   =         0.00000000
  -V(xc)+E(xc)   XCENC  =      1240.17281393
  PAW double counting   =     20557.43980669   -21183.48790682
  entropy T*S    EENTRO =         0.00000000
  eigenvalues    EBANDS =     -2260.49832677
  atomic energy  EATOM  =     28895.73697308
  Solvation  Ediel_sol  =         0.00000000
  ---------------------------------------------------
  free energy    TOTEN  =      -183.04996444 eV

  energy without entropy =     -183.04996444  energy(sigma->0) =     -183.04996444


--------------------------------------------------------------------------------------------------------




--------------------------------------- Iteration      1(  16)  ---------------------------------------


    POTLOK:  cpu time    0.0480: real time    0.0481
    SETDIJ:  cpu time    0.0070: real time    0.0070
     EDDAV:  cpu time    9.6825: real time    9.7561
 BZINTS: Fermi energy:  0.548065;320.000000 electrons
         Band energy:***********;  BLOECHL correction:  0.000000
       DOS:  cpu time    0.0022: real time    0.0022
    CHARGE:  cpu time    0.4593: real time    0.4593
    MIXING:  cpu time    0.0021: real time    0.0021
    --------------------------------------------
      LOOP:  cpu time   10.2011: real time   10.2748

 eigenvalue-minimisations  :  9104
 total energy-change (2. order) :-0.8134590E-05  (-0.8150820E-06)
 number of electron     320.0000826 magnetization      -0.0000000
 augmentation part       64.4799920 magnetization      -0.0000000

 Broyden mixing:
  rms(total) = 0.47659E-03    rms(broyden)= 0.47613E-03
  rms(prec ) = 0.52509E-03
  weight for this iteration     100.00

 eigenvalues of (default mixing * dielectric matrix)
  average eigenvalue GAMMA=   1.2391
  2.9646  2.3952  1.9451  1.0661  1.0661  0.8891  0.6626  0.6626  0.7194  0.6536
  0.6060

 Free energy of the ion-electron system (eV)
  ---------------------------------------------------
  alpha Z        PSCENC =      1278.33848294
  Ewald energy   TEWEN  =    -16011.11606870
  -Hartree energ DENC   =    -12699.70633087
  -exchange      EXHF   =         0.00000000
  -V(xc)+E(xc)   XCENC  =      1240.17938120
  PAW double counting   =     20557.42003318   -21183.46828203
  entropy T*S    EENTRO =         0.00000000
  eigenvalues    EBANDS =     -2260.43416138
  atomic energy  EATOM  =     28895.73697308
  Solvation  Ediel_sol  =         0.00000000
  ---------------------------------------------------
  free energy    TOTEN  =      -183.04997258 eV

  energy without entropy =     -183.04997258  energy(sigma->0) =     -183.04997258


--------------------------------------------------------------------------------------------------------




--------------------------------------- Iteration      1(  17)  ---------------------------------------


    POTLOK:  cpu time    0.0459: real time    0.0480
    SETDIJ:  cpu time    0.0070: real time    0.0070
     EDDAV:  cpu time    8.5258: real time    8.5307
 BZINTS: Fermi energy:  0.535464;320.000000 electrons
         Band energy:***********;  BLOECHL correction:  0.000000
       DOS:  cpu time    0.0023: real time    0.0023
    CHARGE:  cpu time    0.4948: real time    0.5053
    MIXING:  cpu time    0.0019: real time    0.0019
    --------------------------------------------
      LOOP:  cpu time    9.0777: real time    9.0952

 eigenvalue-minimisations  :  7864
 total energy-change (2. order) :-0.1545090E-05  (-0.2456348E-06)
 number of electron     320.0000826 magnetization      -0.0000000
 augmentation part       64.4796569 magnetization      -0.0000000

 Broyden mixing:
  rms(total) = 0.18436E-03    rms(broyden)= 0.18419E-03
  rms(prec ) = 0.20230E-03
  weight for this iteration     100.00

 eigenvalues of (default mixing * dielectric matrix)
  average eigenvalue GAMMA=   1.2372
  3.0089  2.4527  2.0434  1.1275  1.1275  1.0363  0.6625  0.6625  0.7722  0.7294
  0.6433  0.5799

 Free energy of the ion-electron system (eV)
  ---------------------------------------------------
  alpha Z        PSCENC =      1278.33848294
  Ewald energy   TEWEN  =    -16011.11606870
  -Hartree energ DENC   =    -12699.74991037
  -exchange      EXHF   =         0.00000000
  -V(xc)+E(xc)   XCENC  =      1240.18246261
  PAW double counting   =     20557.41789034   -21183.46996928
  entropy T*S    EENTRO =         0.00000000
  eigenvalues    EBANDS =     -2260.38983475
  atomic energy  EATOM  =     28895.73697308
  Solvation  Ediel_sol  =         0.00000000
  ---------------------------------------------------
  free energy    TOTEN  =      -183.04997412 eV

  energy without entropy =     -183.04997412  energy(sigma->0) =     -183.04997412


--------------------------------------------------------------------------------------------------------




--------------------------------------- Iteration      1(  18)  ---------------------------------------


    POTLOK:  cpu time    0.0467: real time    0.0488
    SETDIJ:  cpu time    0.0070: real time    0.0070
     EDDAV:  cpu time    6.0375: real time    6.0850
 BZINTS: Fermi energy:  0.523191;320.000000 electrons
         Band energy:***********;  BLOECHL correction:  0.000000
       DOS:  cpu time    0.0023: real time    0.0023
    CHARGE:  cpu time    0.4578: real time    0.4580
    MIXING:  cpu time    0.0020: real time    0.0020
    --------------------------------------------
      LOOP:  cpu time    6.5533: real time    6.6031

 eigenvalue-minimisations  :  4672
 total energy-change (2. order) :-0.2566339E-06  (-0.1445894E-07)
 number of electron     320.0000826 magnetization      -0.0000000
 augmentation part       64.4795883 magnetization      -0.0000000

 Broyden mixing:
  rms(total) = 0.81575E-04    rms(broyden)= 0.81435E-04
  rms(prec ) = 0.93619E-04
  weight for this iteration     100.00

 eigenvalues of (default mixing * dielectric matrix)
  average eigenvalue GAMMA=   1.2355
  3.0132  2.4742  2.1324  1.1824  1.1824  1.0700  0.9593  0.6623  0.6623  0.8213
  0.6857  0.6429  0.5728

 Free energy of the ion-electron system (eV)
  ---------------------------------------------------
  alpha Z        PSCENC =      1278.33848294
  Ewald energy   TEWEN  =    -16011.11606870
  -Hartree energ DENC   =    -12699.74906064
  -exchange      EXHF   =         0.00000000
  -V(xc)+E(xc)   XCENC  =      1240.18258377
  PAW double counting   =     20557.39835104   -21183.45109212
  entropy T*S    EENTRO =         0.00000000
  eigenvalues    EBANDS =     -2260.39014374
  atomic energy  EATOM  =     28895.73697308
  Solvation  Ediel_sol  =         0.00000000
  ---------------------------------------------------
  free energy    TOTEN  =      -183.04997438 eV

  energy without entropy =     -183.04997438  energy(sigma->0) =     -183.04997438


--------------------------------------------------------------------------------------------------------




--------------------------------------- Iteration      1(  19)  ---------------------------------------


    POTLOK:  cpu time    0.0480: real time    0.0480
    SETDIJ:  cpu time    0.0070: real time    0.0070
     EDDAV:  cpu time    5.9436: real time    5.9474
 BZINTS: Fermi energy:  0.521627;320.000000 electrons
         Band energy:***********;  BLOECHL correction:  0.000000
       DOS:  cpu time    0.0024: real time    0.0024
    CHARGE:  cpu time    0.4571: real time    0.4573
    MIXING:  cpu time    0.0020: real time    0.0020
    --------------------------------------------
      LOOP:  cpu time    6.4601: real time    6.4641

 eigenvalue-minimisations  :  4528
 total energy-change (2. order) :-0.1817862E-06  (-0.9624638E-08)
 number of electron     320.0000826 magnetization      -0.0000000
 augmentation part       64.4796703 magnetization      -0.0000000

 Broyden mixing:
  rms(total) = 0.44272E-04    rms(broyden)= 0.44207E-04
  rms(prec ) = 0.50642E-04
  weight for this iteration     100.00

 eigenvalues of (default mixing * dielectric matrix)
  average eigenvalue GAMMA=   1.2616
  3.0166  2.5792  2.2966  1.4885  1.1906  1.1906  1.1605  0.6624  0.6624  0.7760
  0.7760  0.6577  0.6329  0.5724

 Free energy of the ion-electron system (eV)
  ---------------------------------------------------
  alpha Z        PSCENC =      1278.33848294
  Ewald energy   TEWEN  =    -16011.11606870
  -Hartree energ DENC   =    -12699.74379017
  -exchange      EXHF   =         0.00000000
  -V(xc)+E(xc)   XCENC  =      1240.18250835
  PAW double counting   =     20557.38851079   -21183.44107125
  entropy T*S    EENTRO =         0.00000000
  eigenvalues    EBANDS =     -2260.39551960
  atomic energy  EATOM  =     28895.73697308
  Solvation  Ediel_sol  =         0.00000000
  ---------------------------------------------------
  free energy    TOTEN  =      -183.04997456 eV

  energy without entropy =     -183.04997456  energy(sigma->0) =     -183.04997456


--------------------------------------------------------------------------------------------------------




--------------------------------------- Iteration      1(  20)  ---------------------------------------


    POTLOK:  cpu time    0.0461: real time    0.0491
    SETDIJ:  cpu time    0.0069: real time    0.0069
     EDDAV:  cpu time    5.7394: real time    5.7584
 BZINTS: Fermi energy:  0.521624;320.000000 electrons
         Band energy:***********;  BLOECHL correction:  0.000000
       DOS:  cpu time    0.0024: real time    0.0024
    --------------------------------------------
      LOOP:  cpu time    5.7947: real time    5.8167

 eigenvalue-minimisations  :  4264
 total energy-change (2. order) :-0.6945265E-07  (-0.2996300E-08)
 number of electron     320.0000826 magnetization      -0.0000000
 augmentation part       64.4796703 magnetization      -0.0000000

 Free energy of the ion-electron system (eV)
  ---------------------------------------------------
  alpha Z        PSCENC =      1278.33848294
  Ewald energy   TEWEN  =    -16011.11606870
  -Hartree energ DENC   =    -12699.74545062
  -exchange      EXHF   =         0.00000000
  -V(xc)+E(xc)   XCENC  =      1240.18271342
  PAW double counting   =     20557.39035715   -21183.44376097
  entropy T*S    EENTRO =         0.00000000
  eigenvalues    EBANDS =     -2260.39322092
  atomic energy  EATOM  =     28895.73697308
  Solvation  Ediel_sol  =         0.00000000
  ---------------------------------------------------
  free energy    TOTEN  =      -183.04997463 eV

  energy without entropy =     -183.04997463  energy(sigma->0) =     -183.04997463


--------------------------------------------------------------------------------------------------------




 average (electrostatic) potential at core
  the test charge radii are     0.7167  0.9791  1.1312
  (the norm of the test charge is              1.0000)
       1 -78.4164       2 -78.4164       3 -78.4164       4 -78.4164       5 -78.4164
       6 -78.4164       7 -78.4164       8 -78.4164       9 -78.4165      10 -78.4165
      11 -78.4165      12 -78.4165      13 -78.4164      14 -78.4164      15 -78.4164
      16 -78.4164      17 -78.4164      18 -78.4164      19 -78.4164      20 -78.4164
      21 -78.4165      22 -78.4165      23 -78.4165      24 -78.4165      25 -46.7728
      26 -46.7728      27 -46.7728      28 -46.7728      29 -46.7728      30 -46.7728
      31 -46.7728      32 -46.7728      33 -49.4759      34 -49.4759      35 -49.4759
      36 -49.4759      37 -49.4759      38 -49.4759      39 -49.4759      40 -49.4759
 
 
 
 E-fermi :   0.5216     XC(G=0):  -8.6945     alpha+bet : -7.8451


 spin component 1

 k-point     1 :       0.0000    0.0000    0.0000
  band No.  band energies     occupation 
      1     -22.3757      1.00000
      2     -22.3587      1.00000
      3     -22.1732      1.00000
      4     -22.1573      1.00000
      5     -22.0402      1.00000
      6     -22.0346      1.00000
      7     -21.9194      1.00000
      8     -21.9125      1.00000
      9     -21.9066      1.00000
     10     -21.8988      1.00000
     11     -21.8636      1.00000
     12     -21.8612      1.00000
     13     -21.8583      1.00000
     14     -21.8559      1.00000
     15     -21.8346      1.00000
     16     -21.8290      1.00000
     17     -21.7138      1.00000
     18     -21.7057      1.00000
     19     -21.7000      1.00000
     20     -21.6927      1.00000
     21     -21.6478      1.00000
     22     -21.6455      1.00000
     23     -21.6425      1.00000
     24     -21.6401      1.00000
     25     -19.7378      1.00000
     26     -19.7369      1.00000
     27     -19.7362      1.00000
     28     -19.7361      1.00000
     29     -19.7343      1.00000
     30     -19.7341      1.00000
     31     -19.7338      1.00000
     32     -19.7113      1.00000
     33      -7.0042      1.00000
     34      -7.0042      1.00000
     35      -6.9191      1.00000
     36      -6.8550      1.00000
     37      -6.8545      1.00000
     38      -6.8539      1.00000
     39      -6.7084      1.00000
     40      -6.7060      1.00000
     41      -6.7037      1.00000
     42      -6.6376      1.00000
     43      -6.6320      1.00000
     44      -6.6263      1.00000
     45      -6.6007      1.00000
     46      -6.6007      1.00000
     47      -6.5867      1.00000
     48      -6.5862      1.00000
     49      -6.5860      1.00000
     50      -6.5652      1.00000
     51      -6.5623      1.00000
     52      -6.5599      1.00000
     53      -6.4958      1.00000
     54      -6.4956      1.00000
     55      -6.4955      1.00000
     56      -6.4329      1.00000
     57      -5.7384      1.00000
     58      -5.6460      1.00000
     59      -5.4324      1.00000
     60      -5.3787      1.00000
     61      -5.1863      1.00000
     62      -5.1105      1.00000
     63      -4.9607      1.00000
     64      -4.8472      1.00000
     65      -4.7764      1.00000
     66      -4.7635      1.00000
     67      -4.7548      1.00000
     68      -4.6925      1.00000
     69      -4.6556      1.00000
     70      -4.5956      1.00000
     71      -4.5434      1.00000
     72      -4.5255      1.00000
     73      -4.5178      1.00000
     74      -4.4988      1.00000
     75      -4.4363      1.00000
     76      -4.3867      1.00000
     77      -4.2665      1.00000
     78      -4.1495      1.00000
     79      -4.1185      1.00000
     80      -4.0564      1.00000
     81      -4.0396      1.00000
     82      -4.0100      1.00000
     83      -3.9928      1.00000
     84      -3.9693      1.00000
     85      -3.8382      1.00000
     86      -3.7855      1.00000
     87      -3.7738      1.00000
     88      -3.7581      1.00000
     89      -3.7425      1.00000
     90      -3.7341      1.00000
     91      -3.7340      1.00000
     92      -3.7314      1.00000
     93      -3.7208      1.00000
     94      -3.7150      1.00000
     95      -3.7065      1.00000
     96      -3.6947      1.00000
     97      -3.6476      1.00000
     98      -3.6324      1.00000
     99      -3.6304      1.00000
    100      -3.5815      1.00000
    101      -3.5258      1.00000
    102      -3.5063      1.00000
    103      -3.4910      1.00000
    104      -3.4722      1.00000
    105      -3.2886      1.00000
    106      -3.1934      1.00000
    107      -3.1604      1.00000
    108      -3.1015      1.00000
    109      -3.0988      1.00000
    110      -3.0889      1.00000
    111      -3.0329      1.00000
    112      -2.9924      1.00000
    113      -2.9586      1.00000
    114      -2.8561      1.00000
    115      -2.8508      1.00000
    116      -2.8499      1.00000
    117      -2.8459      1.00000
    118      -2.7907      1.00000
    119      -2.7418      1.00000
    120      -2.6722      1.00000
    121      -2.6128      1.00000
    122      -2.6074      1.00000
    123      -2.5736      1.00000
    124      -2.5425      1.00000
    125      -2.5172      1.00000
    126      -2.5019      1.00000
    127      -2.4147      1.00000
    128      -2.3897      1.00000
    129      -1.5727      1.00000
    130      -1.5583      1.00000
    131      -1.2959      1.00000
    132      -1.2920      1.00000
    133      -1.2917      1.00000
    134      -1.2878      1.00000
    135      -0.8527      1.00000
    136      -0.8380      1.00000
    137      -0.8335      1.00000
    138      -0.8196      1.00000
    139      -0.6893      1.00000
    140      -0.6889      1.00000
    141      -0.5812      1.00000
    142      -0.5722      1.00000
    143      -0.4308      1.00000
    144      -0.4224      1.00000
    145      -0.4183      1.00000
    146      -0.4159      1.00000
    147      -0.4116      1.00000
    148      -0.4040      1.00000
    149      -0.3753      1.00000
    150      -0.3438      1.00000
    151      -0.0759      1.00000
    152      -0.0740      1.00000
    153      -0.0736      1.00000
    154      -0.0719      1.00000
    155       0.2437      1.00000
    156       0.2443      1.00000
    157       0.2549      1.00000
    158       0.2557      1.00000
    159       0.4928      1.00000
    160       0.4928      1.00000
    161       1.8161      0.00000
    162       1.8447      0.00000
[...]
   26        0.296   0.367   8.176   8.839
   27        0.296   0.367   8.176   8.839
   28        0.296   0.367   8.176   8.839
   29        0.296   0.367   8.176   8.839
   30        0.296   0.367   8.176   8.839
   31        0.296   0.367   8.176   8.839
   32        0.296   0.367   8.176   8.839
   33        1.838   4.719   0.017   6.574
   34        1.838   4.719   0.017   6.574
   35        1.838   4.719   0.017   6.574
   36        1.838   4.719   0.017   6.574
   37        1.838   4.719   0.017   6.574
   38        1.838   4.719   0.017   6.574
   39        1.838   4.719   0.017   6.574
   40        1.838   4.719   0.017   6.574
--------------------------------------------------
tot         58.727 144.576  65.549 268.852
 


 magnetization (x)
 
# of ion       s       p       d       tot
------------------------------------------
    1        0.004   0.101   0.000   0.105
    2       -0.004  -0.101   0.000  -0.105
    3       -0.004  -0.101   0.000  -0.105
    4        0.004   0.101   0.000   0.105
    5        0.004   0.101   0.000   0.105
    6       -0.004  -0.101   0.000  -0.105
    7       -0.004  -0.101   0.000  -0.105
    8        0.004   0.101   0.000   0.105
    9       -0.004  -0.100   0.000  -0.104
   10        0.004   0.100   0.000   0.104
   11        0.004   0.100   0.000   0.104
   12       -0.004  -0.100   0.000  -0.104
   13        0.004   0.101   0.000   0.105
   14       -0.004  -0.101   0.000  -0.105
   15       -0.004  -0.101   0.000  -0.105
   16        0.004   0.101   0.000   0.105
   17        0.004   0.101   0.000   0.105
   18       -0.004  -0.101   0.000  -0.105
   19       -0.004  -0.101   0.000  -0.105
   20        0.004   0.101   0.000   0.105
   21       -0.004  -0.100   0.000  -0.104
   22        0.004   0.100   0.000   0.104
   23        0.004   0.100   0.000   0.104
   24       -0.004  -0.100   0.000  -0.104
   25        0.000  -0.001   1.644   1.642
   26       -0.000   0.001  -1.644  -1.642
   27       -0.000   0.001  -1.644  -1.642
   28        0.000  -0.001   1.644   1.642
   29        0.000  -0.001   1.644   1.642
   30       -0.000   0.001  -1.644  -1.642
   31       -0.000   0.001  -1.644  -1.642
   32        0.000  -0.001   1.644   1.642
   33        0.000   0.000   0.000   0.001
   34       -0.000  -0.000  -0.000  -0.001
   35       -0.000  -0.000  -0.000  -0.001
   36        0.000   0.000   0.000   0.001
   37        0.000   0.000   0.000   0.001
   38       -0.000  -0.000  -0.000  -0.001
   39       -0.000  -0.000  -0.000  -0.001
   40        0.000   0.000   0.000   0.001
--------------------------------------------------
tot          0.000   0.000  -0.000   0.000
 
    CHARGE:  cpu time    0.4392: real time    0.4393
    FORLOC:  cpu time    0.0052: real time    0.0052
    FORNL :  cpu time    1.4918: real time    1.4923
    STRESS:  cpu time    4.4558: real time    4.4632
    FORCOR:  cpu time    0.0478: real time    0.0478
    FORHAR:  cpu time    0.0095: real time    0.0095
    MIXING:  cpu time    0.0022: real time    0.0022
    OFIELD:  cpu time    0.0001: real time    0.0001

  FORCE on cell =-STRESS in cart. coord.  units (eV):
  Direction    XX          YY          ZZ          XY          YZ          ZX
  --------------------------------------------------------------------------------------
  Alpha Z  1278.33848  1278.33848  1278.33848
  Ewald   -7609.75632 -7610.00282  -791.44196    -0.20307    -0.00000     0.00000
  Hartree  2322.02339  2321.81657  8055.91104    -0.18102    -0.00000    -0.00000
  E(xc)   -1677.20232 -1677.20321 -1675.12905    -0.00095     0.00000    -0.00000
  Local     557.07870   557.50662-11901.94726     0.37674     0.00000     0.00000
  n-local -1127.02792 -1127.04837 -1113.13211     0.00486     0.00000     0.00000
  augment   750.20080   750.20532   727.58410     0.00177    -0.00000    -0.00000
  Kinetic  5506.29995  5506.48546  5419.76386    -0.04271     0.00000    -0.00000
  Fock        0.00000     0.00000     0.00000     0.00000     0.00000     0.00000
  -------------------------------------------------------------------------------------
  Total       0.02770     0.02509    -0.05289    -0.00226     0.00000    -0.00000
  in kB       0.05898     0.05342    -0.11261    -0.00482     0.00000    -0.00000
  external pressure =       -0.00 kB  Pullay stress =        0.00 kB


 VOLUME and BASIS-vectors are now :
 -----------------------------------------------------------------------------
  energy-cutoff  :      520.00
  volume of cell :      752.52
      direct lattice vectors                 reciprocal lattice vectors
    12.775245568  0.000000000  0.000000000     0.078276382  0.045192789  0.000000000
    -6.387622784 11.063711963  0.000000000     0.000000000  0.090385578  0.000000000
     0.000000000  0.000000000  5.324128930     0.000000000  0.000000000  0.187824152

  length of vectors
    12.775245568 12.775267012  5.324128930     0.090385730  0.090385578  0.187824152


 FORCES acting on ions
    electron-ion (+dipol)            ewald-force                    non-local-force                 convergence-correction
 -----------------------------------------------------------------------------------------------
   -.123E-03 -.392E+03 -.228E-04   -.107E-02 0.408E+03 -.641E-08   0.103E-02 -.163E+02 0.000E+00   -.149E-05 0.168E-03 -.517E-12
   -.123E-03 -.392E+03 -.228E-04   -.107E-02 0.408E+03 -.641E-08   0.103E-02 -.163E+02 0.000E+00   -.149E-05 0.168E-03 -.571E-12
   -.123E-03 -.392E+03 -.228E-04   -.107E-02 0.408E+03 -.641E-08   0.103E-02 -.163E+02 0.000E+00   -.149E-05 0.168E-03 -.515E-12
   -.123E-03 -.392E+03 -.228E-04   -.107E-02 0.408E+03 -.641E-08   0.103E-02 -.163E+02 0.000E+00   -.149E-05 0.168E-03 -.564E-12
   0.339E+03 0.196E+03 0.226E-04   -.354E+03 -.204E+03 -.641E-08   0.142E+02 0.817E+01 0.000E+00   -.146E-03 -.824E-04 -.518E-12
   0.339E+03 0.196E+03 0.226E-04   -.354E+03 -.204E+03 -.642E-08   0.142E+02 0.817E+01 0.000E+00   -.146E-03 -.824E-04 -.528E-12
   0.339E+03 0.196E+03 0.226E-04   -.354E+03 -.204E+03 -.642E-08   0.142E+02 0.817E+01 0.000E+00   -.146E-03 -.824E-04 -.541E-12
   0.339E+03 0.196E+03 0.226E-04   -.354E+03 -.204E+03 -.642E-08   0.142E+02 0.817E+01 0.000E+00   -.146E-03 -.824E-04 -.527E-12
   -.339E+03 0.196E+03 -.889E-07   0.354E+03 -.204E+03 -.641E-08   -.142E+02 0.817E+01 0.000E+00   0.154E-03 -.886E-04 -.590E-12
   -.339E+03 0.196E+03 -.889E-07   0.354E+03 -.204E+03 -.641E-08   -.142E+02 0.817E+01 0.000E+00   0.154E-03 -.886E-04 -.596E-12
   -.339E+03 0.196E+03 -.889E-07   0.354E+03 -.204E+03 -.641E-08   -.142E+02 0.817E+01 0.000E+00   0.154E-03 -.886E-04 -.592E-12
   -.339E+03 0.196E+03 -.889E-07   0.354E+03 -.204E+03 -.641E-08   -.142E+02 0.817E+01 0.000E+00   0.154E-03 -.886E-04 -.595E-12
   0.123E-03 0.392E+03 0.226E-04   0.107E-02 -.408E+03 -.641E-08   -.103E-02 0.163E+02 0.207E-24   0.149E-05 -.168E-03 -.611E-12
   0.123E-03 0.392E+03 0.226E-04   0.107E-02 -.408E+03 -.641E-08   -.103E-02 0.163E+02 0.103E-24   0.149E-05 -.168E-03 -.573E-12
   0.123E-03 0.392E+03 0.226E-04   0.107E-02 -.408E+03 -.641E-08   -.103E-02 0.163E+02 0.207E-24   0.149E-05 -.168E-03 -.597E-12
   0.123E-03 0.392E+03 0.226E-04   0.107E-02 -.408E+03 -.641E-08   -.103E-02 0.163E+02 0.103E-24   0.149E-05 -.168E-03 -.579E-12
   -.339E+03 -.196E+03 -.228E-04   0.354E+03 0.204E+03 -.642E-08   -.142E+02 -.817E+01 -.414E-24   0.146E-03 0.824E-04 -.583E-12
   -.339E+03 -.196E+03 -.228E-04   0.354E+03 0.204E+03 -.642E-08   -.142E+02 -.817E+01 -.414E-24   0.146E-03 0.824E-04 -.545E-12
   -.339E+03 -.196E+03 -.228E-04   0.354E+03 0.204E+03 -.642E-08   -.142E+02 -.817E+01 0.000E+00   0.146E-03 0.824E-04 -.583E-12
   -.339E+03 -.196E+03 -.228E-04   0.354E+03 0.204E+03 -.642E-08   -.142E+02 -.817E+01 -.414E-24   0.146E-03 0.824E-04 -.545E-12
   0.339E+03 -.196E+03 -.894E-07   -.354E+03 0.204E+03 -.641E-08   0.142E+02 -.817E+01 0.000E+00   -.154E-03 0.886E-04 -.640E-12
   0.339E+03 -.196E+03 -.894E-07   -.354E+03 0.204E+03 -.641E-08   0.142E+02 -.817E+01 0.258E-25   -.154E-03 0.886E-04 -.630E-12
   0.339E+03 -.196E+03 -.893E-07   -.354E+03 0.204E+03 -.641E-08   0.142E+02 -.817E+01 0.000E+00   -.154E-03 0.886E-04 -.637E-12
   0.339E+03 -.196E+03 -.894E-07   -.354E+03 0.204E+03 -.641E-08   0.142E+02 -.817E+01 0.000E+00   -.154E-03 0.886E-04 -.623E-12
   -.462E-10 0.972E-09 -.322E-08   0.265E-09 -.724E-08 0.206E-07   0.310E-24 -.414E-24 0.000E+00   -.462E-11 0.354E-09 -.629E-11
   -.449E-10 0.972E-09 -.322E-08   0.265E-09 -.724E-08 0.206E-07   -.775E-24 0.207E-24 0.000E+00   -.467E-11 0.353E-09 -.624E-11
   -.159E-08 0.665E-08 -.224E-08   0.874E-08 0.171E-08 0.100E-07   -.569E-24 0.207E-24 0.000E+00   -.669E-11 -.422E-09 0.778E-11
   -.158E-08 0.666E-08 -.221E-08   0.874E-08 0.171E-08 0.100E-07   -.572E-24 -.343E-24 0.000E+00   -.732E-11 -.422E-09 0.780E-11
   -.467E-10 0.972E-09 -.368E-08   0.267E-09 -.724E-08 0.181E-07   0.517E-25 0.414E-24 0.000E+00   -.469E-11 0.354E-09 0.656E-11
   -.455E-10 0.972E-09 -.368E-08   0.267E-09 -.724E-08 0.181E-07   0.491E-24 -.103E-24 0.103E-24   -.473E-11 0.353E-09 0.645E-11
   -.159E-08 0.665E-08 -.469E-08   0.874E-08 0.171E-08 0.287E-07   0.414E-24 -.103E-24 -.103E-24   -.676E-11 -.422E-09 -.749E-11
   -.159E-08 0.666E-08 -.468E-08   0.874E-08 0.171E-08 0.287E-07   0.207E-24 0.414E-24 0.000E+00   -.738E-11 -.422E-09 -.756E-11
   -.772E-02 0.544E-02 -.276E-07   0.754E-02 -.538E-02 -.113E-09   0.201E-03 -.116E-03 0.000E+00   -.280E-05 0.170E-05 0.904E-12
   -.772E-02 0.544E-02 -.276E-07   0.754E-02 -.538E-02 -.113E-09   0.201E-03 -.116E-03 0.000E+00   -.280E-05 0.170E-05 0.916E-12
   -.772E-02 0.544E-02 -.276E-07   0.754E-02 -.538E-02 -.113E-09   0.201E-03 -.116E-03 0.000E+00   -.280E-05 0.170E-05 0.909E-12
   -.772E-02 0.544E-02 -.276E-07   0.754E-02 -.538E-02 -.113E-09   0.201E-03 -.116E-03 0.000E+00   -.280E-05 0.170E-05 0.915E-12
   0.772E-02 -.544E-02 -.276E-07   -.754E-02 0.538E-02 -.113E-09   -.201E-03 0.116E-03 0.000E+00   0.280E-05 -.170E-05 0.972E-12
   0.772E-02 -.544E-02 -.276E-07   -.754E-02 0.538E-02 -.113E-09   -.201E-03 0.116E-03 0.000E+00   0.280E-05 -.170E-05 0.986E-12
   0.772E-02 -.544E-02 -.276E-07   -.754E-02 0.538E-02 -.113E-09   -.201E-03 0.116E-03 0.000E+00   0.280E-05 -.170E-05 0.975E-12
   0.772E-02 -.544E-02 -.276E-07   -.754E-02 0.538E-02 -.113E-09   -.201E-03 0.116E-03 0.000E+00   0.280E-05 -.170E-05 0.989E-12
 -----------------------------------------------------------------------------------------------
   0.289E-07 0.200E-05 -.239E-05   0.541E-12 0.107E-12 -.791E-14   0.107E-13 0.373E-13 -.595E-24   -.691E-10 -.397E-09 -.522E-11
 
 
 POSITION                                       TOTAL-FORCE (eV/Angst)
 -----------------------------------------------------------------------------------
      3.19377      7.08259      1.33103        -0.000129      0.001776     -0.000000
     -3.19385      7.08259      1.33103        -0.000129      0.001776      0.000000
      6.38758      1.55073      1.33103        -0.000129      0.001776      0.000000
     -0.00004      1.55073      1.33103        -0.000129      0.001776      0.000000
      5.04463     10.28838      1.33103        -0.001603     -0.000777      0.000000
     -1.34299     10.28838      1.33103        -0.001603     -0.000777     -0.000000
      8.23844      4.75653      1.33103        -0.001603     -0.000777     -0.000000
      1.85082      4.75653      1.33103        -0.001603     -0.000777      0.000000
      1.34300     10.28833      1.33103         0.001528     -0.000882      0.000000
     -5.04462     10.28833      1.33103         0.001528     -0.000882      0.000000
      4.53681      4.75647      1.33103         0.001528     -0.000882      0.000000
     -1.85081      4.75647      1.33103         0.001528     -0.000882      0.000000
      6.38767      9.51298      3.99310         0.000129     -0.001776      0.000000
      0.00004      9.51298      3.99310         0.000129     -0.001776     -0.000000
      9.58148      3.98112      3.99310         0.000129     -0.001776      0.000000
      3.19385      3.98112      3.99310         0.000129     -0.001776     -0.000000
      4.53680      6.30718      3.99310         0.001603      0.000777     -0.000000
     -1.85082      6.30718      3.99310         0.001603      0.000777     -0.000000
      7.73061      0.77533      3.99310         0.001603      0.000777     -0.000000
      1.34299      0.77533      3.99310         0.001603      0.000777     -0.000000
      8.23843      6.30724      3.99310        -0.001528      0.000882      0.000000
      1.85081      6.30724      3.99310        -0.001528      0.000882      0.000000
     11.43224      0.77538      3.99310        -0.001528      0.000882      0.000000
      5.04462      0.77538      3.99310        -0.001528      0.000882      0.000000
      0.00000      0.00000      0.00000        -0.000000      0.000000      0.000000
      6.38762      0.00000      0.00000        -0.000000      0.000000      0.000000
      9.58143      5.53186      0.00000        -0.000000      0.000000      0.000000
      3.19381      5.53186      0.00000        -0.000000      0.000000      0.000000
      0.00000      0.00000      2.66206        -0.000000      0.000000      0.000000
      6.38762      0.00000      2.66206        -0.000000      0.000000      0.000000
      9.58143      5.53186      2.66206        -0.000000      0.000000      0.000000
      3.19381      5.53186      2.66206        -0.000000      0.000000      0.000000
      3.19382      9.21975      3.99310         0.000034     -0.000020      0.000000
     -3.19380      9.21975      3.99310         0.000034     -0.000020      0.000000
      6.38763      3.68790      3.99310         0.000034     -0.000020      0.000000
      0.00001      3.68790      3.99310         0.000034     -0.000020      0.000000
      6.38761      7.37581      1.33103        -0.000034      0.000020      0.000000
     -0.00001      7.37581      1.33103        -0.000034      0.000020      0.000000
      9.58143      1.84396      1.33103        -0.000034      0.000020      0.000000
      3.19380      1.84396      1.33103        -0.000034      0.000020      0.000000
 -----------------------------------------------------------------------------------
    total drift:                                0.000000      0.000002     -0.000002


--------------------------------------------------------------------------------------------------------



  FREE ENERGIE OF THE ION-ELECTRON SYSTEM (eV)
  ---------------------------------------------------
  free  energy   TOTEN  =      -183.04997463 eV

  energy  without entropy=     -183.04997463  energy(sigma->0) =     -183.04997463
 


--------------------------------------------------------------------------------------------------------


    POTLOK:  cpu time    0.0591: real time    0.0591


--------------------------------------------------------------------------------------------------------


     LOOP+:  cpu time  188.0831: real time  188.7776
    4ORBIT:  cpu time    0.0000: real time    0.0000
 


 total charge     
 
# of ion       s       p       d       tot
------------------------------------------
    1        1.736   4.328   0.000   6.064
    2        1.736   4.328   0.000   6.064
    3        1.736   4.328   0.000   6.064
    4        1.736   4.328   0.000   6.064
    5        1.736   4.329   0.000   6.065
    6        1.736   4.329   0.000   6.065
    7        1.736   4.329   0.000   6.065
    8        1.736   4.329   0.000   6.065
    9        1.736   4.329   0.000   6.064
   10        1.736   4.329   0.000   6.064
   11        1.736   4.329   0.000   6.064
   12        1.736   4.329   0.000   6.064
   13        1.736   4.328   0.000   6.064
   14        1.736   4.328   0.000   6.064
   15        1.736   4.328   0.000   6.064
   16        1.736   4.328   0.000   6.064
   17        1.736   4.329   0.000   6.065
   18        1.736   4.329   0.000   6.065
   19        1.736   4.329   0.000   6.065
   20        1.736   4.329   0.000   6.065
   21        1.736   4.329   0.000   6.064
   22        1.736   4.329   0.000   6.064
   23        1.736   4.329   0.000   6.064
   24        1.736   4.329   0.000   6.064
   25        0.296   0.367   8.176   8.839
   26        0.296   0.367   8.176   8.839
   27        0.296   0.367   8.176   8.839
   28        0.296   0.367   8.176   8.839
   29        0.296   0.367   8.176   8.839
   30        0.296   0.367   8.176   8.839
   31        0.296   0.367   8.176   8.839
   32        0.296   0.367   8.176   8.839
   33        1.838   4.719   0.017   6.574
   34        1.838   4.719   0.017   6.574
   35        1.838   4.719   0.017   6.574
   36        1.838   4.719   0.017   6.574
   37        1.838   4.719   0.017   6.574
   38        1.838   4.719   0.017   6.574
   39        1.838   4.719   0.017   6.574
   40        1.838   4.719   0.017   6.574
--------------------------------------------------
tot         58.727 144.576  65.549 268.852
 


 magnetization (x)
 
# of ion       s       p       d       tot
------------------------------------------
    1        0.004   0.101   0.000   0.105
    2       -0.004  -0.101   0.000  -0.105
    3       -0.004  -0.101   0.000  -0.105
    4        0.004   0.101   0.000   0.105
    5        0.004   0.101   0.000   0.105
    6       -0.004  -0.101   0.000  -0.105
    7       -0.004  -0.101   0.000  -0.105
    8        0.004   0.101   0.000   0.105
    9       -0.004  -0.100   0.000  -0.104
   10        0.004   0.100   0.000   0.104
   11        0.004   0.100   0.000   0.104
   12       -0.004  -0.100   0.000  -0.104
   13        0.004   0.101   0.000   0.105
   14       -0.004  -0.101   0.000  -0.105
   15       -0.004  -0.101   0.000  -0.105
   16        0.004   0.101   0.000   0.105
   17        0.004   0.101   0.000   0.105
   18       -0.004  -0.101   0.000  -0.105
   19       -0.004  -0.101   0.000  -0.105
   20        0.004   0.101   0.000   0.105
   21       -0.004  -0.100   0.000  -0.104
   22        0.004   0.100   0.000   0.104
   23        0.004   0.100   0.000   0.104
   24       -0.004  -0.100   0.000  -0.104
   25        0.000  -0.001   1.644   1.642
   26       -0.000   0.001  -1.644  -1.642
   27       -0.000   0.001  -1.644  -1.642
   28        0.000  -0.001   1.644   1.642
   29        0.000  -0.001   1.644   1.642
   30       -0.000   0.001  -1.644  -1.642
   31       -0.000   0.001  -1.644  -1.642
   32        0.000  -0.001   1.644   1.642
   33        0.000   0.000   0.000   0.001
   34       -0.000  -0.000  -0.000  -0.001
   35       -0.000  -0.000  -0.000  -0.001
   36        0.000   0.000   0.000   0.001
   37        0.000   0.000   0.000   0.001
   38       -0.000  -0.000  -0.000  -0.001
   39       -0.000  -0.000  -0.000  -0.001
   40        0.000   0.000   0.000   0.001
--------------------------------------------------
tot          0.000   0.000  -0.000   0.000
 
 BZINTS: Fermi energy:  0.521624;320.000000 electrons
         Band energy:***********;  BLOECHL correction:  0.000000

 total amount of memory used by VASP MPI-rank0    66568. kBytes
=======================================================================

   base      :      30000. kBytes
   nonlr-proj:       7318. kBytes
   fftplans  :       1395. kBytes
   grid      :       3519. kBytes
   one-center:         62. kBytes
   wavefun   :      24274. kBytes
 
  
  
 General timing and accounting informations for this job:
 ========================================================
  
                  Total CPU time used (sec):      197.757
                            User time (sec):      194.157
                          System time (sec):        3.600
                         Elapsed time (sec):      200.953
  
                   Maximum memory used (kb):      137836.
                   Average memory used (kb):           0.
  
                          Minor page faults:        50310
                          Major page faults:           18
                 Voluntary context switches:         1774
