 vasp.5.4.4.18Apr17-6-g9f103f2a35 (build Dec 13 2018 10:28:32) complex          
  
 executed on             LinuxIFC date 2019.05.21  08:50:46
 running on   96 total cores
 distrk:  each k-point on   96 cores,    1 groups
 distr:  one band on NCORES_PER_BAND=  24 cores,    4 groups


--------------------------------------------------------------------------------------------------------


 INCAR:
 POTCAR:   PAW_PBE F 08Apr2002                    
 POTCAR:   PAW_PBE Ni 06Sep2000                   
 POTCAR:   PAW_PBE Cs_sv 08Apr2002                

 ----------------------------------------------------------------------------- 
|                                                                             |
|           W    W    AA    RRRRR   N    N  II  N    N   GGGG   !!!           |
|           W    W   A  A   R    R  NN   N  II  NN   N  G    G  !!!           |
|           W    W  A    A  R    R  N N  N  II  N N  N  G       !!!           |
|           W WW W  AAAAAA  RRRRR   N  N N  II  N  N N  G  GGG   !            |
|           WW  WW  A    A  R   R   N   NN  II  N   NN  G    G                |
|           W    W  A    A  R    R  N    N  II  N    N   GGGG   !!!           |
|                                                                             |
|      For optimal performance we recommend to set                            |
|        NCORE= 4 - approx SQRT( number of cores)                             |
|      NCORE specifies how many cores store one orbital (NPAR=cpu/NCORE).     |
|      This setting can  greatly improve the performance of VASP for DFT.     |
|      The default,   NCORE=1            might be grossly inefficient         |
|      on modern multi-core architectures or massively parallel machines.     |
|      Do your own testing !!!!                                               |
|      Unfortunately you need to use the default for GW and RPA calculations. |
|      (for HF NCORE is supported but not extensively tested yet)             |
|                                                                             |
 ----------------------------------------------------------------------------- 

 POTCAR:   PAW_PBE F 08Apr2002                    
   VRHFIN =F: s2p5                                                              
   LEXCH  = PE                                                                  
   EATOM  =   659.4942 eV,   48.4715 Ry                                         
                                                                                
   TITEL  = PAW_PBE F 08Apr2002                                                 
   LULTRA =        F    use ultrasoft PP ?                                      
   IUNSCR =        0    unscreen: 0-lin 1-nonlin 2-no                           
   RPACOR =     .000    partial core radius                                     
   POMASS =   18.998; ZVAL   =    7.000    mass and valenz                      
   RCORE  =    1.520    outmost cutoff radius                                   
   RWIGS  =    1.500; RWIGS  =     .794    wigner-seitz radius (au A)           
   ENMAX  =  400.000; ENMIN  =  300.000 eV                                      
   ICORE  =        2    local potential                                         
   LCOR   =        T    correct aug charges                                     
   LPAW   =        T    paw PP                                                  
   EAUG   =  613.614                                                            
   DEXC   =     .000                                                            
   RMAX   =    2.254    core radius for proj-oper                               
   RAUG   =    1.300    factor for augmentation sphere                          
   RDEP   =    1.539    radius for radial grids                                 
   QCUT   =   -5.545; QGAM   =   11.091    optimization parameters              
                                                                                
   Description                                                                  
     l     E      TYP  RCUT    TYP  RCUT                                        
     0   .000     23  1.200                                                     
     0  -.700     23  1.200                                                     
     1   .000     23  1.520                                                     
     1   .100     23  1.520                                                     
     2   .000      7  1.500                                                     
  local pseudopotential read in
  atomic valenz-charges read in
  non local Contribution for L=           0  read in
    real space projection operators read in
  non local Contribution for L=           0  read in
    real space projection operators read in
  non local Contribution for L=           1  read in
    real space projection operators read in
  non local Contribution for L=           1  read in
    real space projection operators read in
    PAW grid and wavefunctions read in
 
   number of l-projection  operators is LMAX  =           4
   number of lm-projection operators is LMMAX =           8
 
 POTCAR:   PAW_PBE Ni 06Sep2000                   
   VRHFIN =Ni:                                                                  
   LEXCH  = PE                                                                  
   EATOM  =  1077.9025 eV,   79.2236 Ry                                         
                                                                                
   TITEL  = PAW_PBE Ni 06Sep2000                                                
   LULTRA =        F    use ultrasoft PP ?                                      
   IUNSCR =        1    unscreen: 0-lin 1-nonlin 2-no                           
   RPACOR =    2.000    partial core radius                                     
   POMASS =   58.690; ZVAL   =   10.000    mass and valenz                      
   RCORE  =    2.300    outmost cutoff radius                                   
   RWIGS  =    2.430; RWIGS  =    1.286    wigner-seitz radius (au A)           
   ENMAX  =  269.533; ENMIN  =  202.150 eV                                      
   RCLOC  =    1.681    cutoff for local pot                                    
   LCOR   =        T    correct aug charges                                     
   LPAW   =        T    paw PP                                                  
   EAUG   =  544.565                                                            
   DEXC   =    -.009                                                            
   RMAX   =    2.808    core radius for proj-oper                               
   RAUG   =    1.300    factor for augmentation sphere                          
   RDEP   =    2.390    radius for radial grids                                 
   QCUT   =   -4.451; QGAM   =    8.902    optimization parameters              
                                                                                
   Description                                                                  
     l     E      TYP  RCUT    TYP  RCUT                                        
     2   .000     23  2.300                                                     
     2   .000     23  2.300                                                     
     0   .000     23  2.300                                                     
     0   .000     23  2.300                                                     
     1  -.200     23  2.300                                                     
     1   .000     23  2.300                                                     
     3   .000      7   .000                                                     
  local pseudopotential read in
  partial core-charges read in
  atomic valenz-charges read in
  non local Contribution for L=           2  read in
    real space projection operators read in
  non local Contribution for L=           2  read in
    real space projection operators read in
  non local Contribution for L=           0  read in
    real space projection operators read in
  non local Contribution for L=           0  read in
    real space projection operators read in
  non local Contribution for L=           1  read in
    real space projection operators read in
  non local Contribution for L=           1  read in
    real space projection operators read in
    PAW grid and wavefunctions read in
 
   number of l-projection  operators is LMAX  =           6
   number of lm-projection operators is LMMAX =          18
 
 POTCAR:   PAW_PBE Cs_sv 08Apr2002                
   VRHFIN =Cs: 5s5p6s                                                           
   LEXCH  = PE                                                                  
   EATOM  =   555.6835 eV,   40.8416 Ry                                         
                                                                                
   TITEL  = PAW_PBE Cs_sv 08Apr2002                                             
   LULTRA =        F    use ultrasoft PP ?                                      
   IUNSCR =        1    unscreen: 0-lin 1-nonlin 2-no                           
   RPACOR =    2.200    partial core radius                                     
   POMASS =  132.900; ZVAL   =    9.000    mass and valenz                      
   RCORE  =    2.500    outmost cutoff radius                                   
   RWIGS  =    2.500; RWIGS  =    1.323    wigner-seitz radius (au A)           
   ENMAX  =  220.318; ENMIN  =  165.238 eV                                      
   RCLOC  =    2.207    cutoff for local pot                                    
   LCOR   =        T    correct aug charges                                     
   LPAW   =        T    paw PP                                                  
   EAUG   =  407.933                                                            
   DEXC   =    -.004                                                            
   RMAX   =    3.106    core radius for proj-oper                               
   RAUG   =    1.300    factor for augmentation sphere                          
   RDEP   =    2.590    radius for radial grids                                 
   QCUT   =   -4.024; QGAM   =    8.048    optimization parameters              
                                                                                
   Description                                                                  
     l     E      TYP  RCUT    TYP  RCUT                                        
     0   .000     23  1.900                                                     
     0   .000     23  1.900                                                     
     0   .000     23  1.900                                                     
     0   .000     23  1.900                                                     
     1   .000     23  2.500                                                     
     1  -.200     23  2.500                                                     
     2   .000     23  2.500                                                     
  local pseudopotential read in
  partial core-charges read in
  atomic valenz-charges read in
  non local Contribution for L=           0  read in
    real space projection operators read in
  non local Contribution for L=           0  read in
    real space projection operators read in
  non local Contribution for L=           1  read in
    real space projection operators read in
  non local Contribution for L=           1  read in
    real space projection operators read in
  non local Contribution for L=           2  read in
    real space projection operators read in
    PAW grid and wavefunctions read in
 
   number of l-projection  operators is LMAX  =           5
   number of lm-projection operators is LMMAX =          13
 
 PAW_PBE F 08Apr2002                    :
 energy of atom  1       EATOM= -659.4942
 kinetic energy error for atom=    0.0323 (will be added to EATOM!!)
 PAW_PBE Ni 06Sep2000                   :
 energy of atom  2       EATOM=-1077.9025
 kinetic energy error for atom=    0.0030 (will be added to EATOM!!)
 PAW_PBE Cs_sv 08Apr2002                :
 energy of atom  3       EATOM= -555.6835
 kinetic energy error for atom=    0.0016 (will be added to EATOM!!)
 
 
 POSCAR: For VASP. System= small                 
  positions in cartesian coordinates
  velocities in cartesian coordinates
  No initial velocities read in
 exchange correlation table for  LEXCH =        8
   RHO(1)=    0.500       N(1)  =     2000
   RHO(2)=  100.500       N(2)  =     4000
 


--------------------------------------------------------------------------------------------------------


 ion  position               nearest neighbor table
   1  0.570  0.640  0.250-  32 2.04  28 2.04
   2  0.070  0.640  0.250-  31 2.04  27 2.04
   3  0.570  0.140  0.250-  30 2.04  26 2.04
   4  0.070  0.140  0.250-  29 2.04  25 2.04
   5  0.860  0.930  0.250-  29 2.04  25 2.04
   6  0.360  0.930  0.250-  30 2.04  26 2.04
   7  0.860  0.430  0.250-  31 2.04  27 2.04
   8  0.360  0.430  0.250-  32 2.04  28 2.04
   9  0.570  0.930  0.250-  30 2.04  26 2.04
  10  0.070  0.930  0.250-  29 2.04  25 2.04
  11  0.570  0.430  0.250-  32 2.04  28 2.04
  12  0.070  0.430  0.250-  31 2.04  27 2.04
  13  0.930  0.860  0.750-  25 2.04  29 2.04
  14  0.430  0.860  0.750-  26 2.04  30 2.04
  15  0.930  0.360  0.750-  27 2.04  31 2.04
  16  0.430  0.360  0.750-  28 2.04  32 2.04
  17  0.640  0.570  0.750-  28 2.04  32 2.04
  18  0.140  0.570  0.750-  27 2.04  31 2.04
  19  0.640  0.070  0.750-  26 2.04  30 2.04
  20  0.140  0.070  0.750-  25 2.04  29 2.04
  21  0.930  0.570  0.750-  27 2.04  31 2.04
  22  0.430  0.570  0.750-  28 2.04  32 2.04
  23  0.930  0.070  0.750-  25 2.04  29 2.04
  24  0.430  0.070  0.750-  26 2.04  30 2.04
  25  0.000  0.000  0.000-  20 2.04   5 2.04   4 2.04  13 2.04  23 2.04  10 2.04  29 2.66  29 2.66

  26  0.500  0.000  0.000-  19 2.04   6 2.04   3 2.04  14 2.04  24 2.04   9 2.04  30 2.66  30 2.66

  27  1.000  0.500  0.000-  18 2.04   7 2.04  15 2.04   2 2.04  21 2.04  12 2.04  31 2.66  31 2.66

  28  0.500  0.500  0.000-  17 2.04   8 2.04  16 2.04   1 2.04  22 2.04  11 2.04  32 2.66  32 2.66

  29  0.000  0.000  0.500-   5 2.04  20 2.04   4 2.04  13 2.04  10 2.04  23 2.04  25 2.66  25 2.66

  30  0.500  0.000  0.500-   6 2.04  19 2.04   3 2.04  14 2.04   9 2.04  24 2.04  26 2.66  26 2.66

  31  1.000  0.500  0.500-   7 2.04  18 2.04   2 2.04  15 2.04  12 2.04  21 2.04  27 2.66  27 2.66

  32  0.500  0.500  0.500-   8 2.04  17 2.04   1 2.04  16 2.04  11 2.04  22 2.04  28 2.66  28 2.66

  33  0.667  0.833  0.750-
  34  0.167  0.833  0.750-
  35  0.667  0.333  0.750-
  36  0.167  0.333  0.750-
  37  0.833  0.667  0.250-
  38  0.333  0.667  0.250-
  39  0.833  0.167  0.250-
  40  0.333  0.167  0.250-
 
  LATTYP: Found a hexagonal cell.
 ALAT       =    12.7752670119
 C/A-ratio  =     0.4167528495
  
  Lattice vectors:
  
 A1 = (   6.3876227840,  11.0637119627,   0.0000000000)
 A2 = (   6.3876227840, -11.0637119627,   0.0000000000)
 A3 = (   0.0000000000,   0.0000000000,  -5.3241289298)


Analysis of symmetry for initial positions (statically):
=====================================================================
 Subroutine PRICEL returns following result:
 
  LATTYP: Found a hexagonal cell.
 ALAT       =     6.3876335059
 C/A-ratio  =     0.8335056989
  
  Lattice vectors:
  
 A1 = (   3.1938113920,   5.5318559813,   0.0000000000)
 A2 = (   3.1938113920,  -5.5318559813,   0.0000000000)
 A3 = (   0.0000000000,   0.0000000000,  -5.3241289298)
 
   4 primitive cells build up your supercell.
 

 Routine SETGRP: Setting up the symmetry group for a 
 hexagonal supercell.


 Subroutine GETGRP returns: Found  8 space group operations
 (whereof  4 operations were pure point group operations)
 out of a pool of 24 trial point group operations.


The static configuration has the point symmetry C_2h.
 The point group associated with its full space group is D_2h.


Analysis of symmetry for dynamics (positions and initial velocities):
=====================================================================
 Subroutine PRICEL returns following result:
 
  LATTYP: Found a hexagonal cell.
 ALAT       =     6.3876335059
 C/A-ratio  =     0.8335056989
  
  Lattice vectors:
  
 A1 = (   3.1938113920,   5.5318559813,   0.0000000000)
 A2 = (   3.1938113920,  -5.5318559813,   0.0000000000)
 A3 = (   0.0000000000,   0.0000000000,  -5.3241289298)
 
   4 primitive cells build up your supercell.
 

 Routine SETGRP: Setting up the symmetry group for a 
 hexagonal supercell.


 Subroutine GETGRP returns: Found  8 space group operations
 (whereof  4 operations were pure point group operations)
 out of a pool of 24 trial point group operations.


The dynamic configuration has the point symmetry C_2h.
 The point group associated with its full space group is D_2h.


Analysis of structural, dynamic, and magnetic symmetry:
=====================================================================
 Subroutine PRICEL returns following result:
 
  LATTYP: Found a simple orthorhombic cell.
 ALAT       =     5.3241289298
 B/A-ratio  =     1.1997498310
 C/A-ratio  =     2.0780323145
  
  Lattice vectors:
  
 A1 = (   0.0000000000,   0.0000000000,   5.3241289298)
 A2 = (  -6.3876227840,   0.0000000000,   0.0000000000)
 A3 = (   0.0000000000, -11.0637119627,   0.0000000000)
 
   2 primitive cells build up your supercell.
 

 Routine SETGRP: Setting up the symmetry group for a 
 hexagonal supercell.


 Subroutine GETGRP returns: Found  2 space group operations
 (whereof  2 operations were pure point group operations)
 out of a pool of 24 trial point group operations.


The magnetic configuration has the point symmetry S_2 .


 Subroutine INISYM returns: Found  2 space group operations
 (whereof  2 operations are pure point group operations),
 and found     2 'primitive' translations

 
 
 KPOINTS: Automatic mesh                          

Automatic generation of k-mesh.
Space group operators:
 irot       det(A)        alpha          n_x          n_y          n_z        tau_x        tau_y        tau_z
    1     1.000000     0.000000     1.000000     0.000000     0.000000     0.000000     0.000000     0.000000
    2    -1.000000     0.000000     1.000000     0.000000     0.000000     0.000000     0.000000     0.000000
 
 Subroutine IBZKPT returns following result:
 ===========================================
 
 Found     12 irreducible k-points:
 
 Following reciprocal coordinates:
            Coordinates               Weight
  0.000000  0.000000  0.000000      1.000000
  0.500000  0.000000  0.000000      1.000000
  0.000000  0.500000  0.000000      1.000000
  0.500000  0.500000  0.000000      1.000000
  0.000000  0.000000  0.250000      2.000000
  0.500000  0.000000  0.250000      2.000000
  0.000000  0.500000  0.250000      2.000000
  0.500000  0.500000  0.250000      2.000000
  0.000000  0.000000  0.500000      1.000000
  0.500000  0.000000  0.500000      1.000000
  0.000000  0.500000  0.500000      1.000000
  0.500000  0.500000  0.500000      1.000000
 
 Following cartesian coordinates:
            Coordinates               Weight
  0.000000  0.000000  0.000000      1.000000
  0.039138  0.022596  0.000000      1.000000
  0.000000  0.045193  0.000000      1.000000
  0.039138  0.067789  0.000000      1.000000
  0.000000  0.000000  0.046956      2.000000
  0.039138  0.022596  0.046956      2.000000
  0.000000  0.045193  0.046956      2.000000
  0.039138  0.067789  0.046956      2.000000
  0.000000  0.000000  0.093912      1.000000
  0.039138  0.022596  0.093912      1.000000
  0.000000  0.045193  0.093912      1.000000
  0.039138  0.067789  0.093912      1.000000
 


--------------------------------------------------------------------------------------------------------




 Dimension of arrays:
   k-points           NKPTS =     12   k-points in BZ     NKDIM =     12   number of bands    NBANDS=    192
   number of dos      NEDOS =    301   number of ions     NIONS =     40
   non local maximal  LDIM  =      6   non local SUM 2l+1 LMDIM =     18
   total plane-waves  NPLWV = 368640
   max r-space proj   IRMAX =   9164   max aug-charges    IRDMAX=   9965
   dimension x,y,z NGX =    96 NGY =   96 NGZ =   40
   dimension x,y,z NGXF=   140 NGYF=  140 NGZF=   60
   support grid    NGXF=   140 NGYF=  140 NGZF=   60
   ions per type =              24   8   8
   NGX,Y,Z   is equivalent  to a cutoff of  12.49, 12.49, 12.49 a.u.
   NGXF,Y,Z  is equivalent  to a cutoff of  18.22, 18.22, 18.74 a.u.

 SYSTEM =  CsNiF3 AF without U                     
 POSCAR =  For VASP. System= small                 

 Startparameter for this run:
   NWRITE =      2    write-flag & timer
   PREC   = high      normal or accurate (medium, high low for compatibility)
   ISTART =      0    job   : 0-new  1-cont  2-samecut
   ICHARG =      2    charge: 1-file 2-atom 10-const
   ISPIN  =      2    spin polarized calculation?
   LNONCOLLINEAR =      F non collinear calculations
   LSORBIT =      F    spin-orbit coupling
   INIWAV =      1    electr: 0-lowe 1-rand  2-diag
   LASPH  =      F    aspherical Exc in radial PAW
   METAGGA=      F    non-selfconsistent MetaGGA calc.

 Electronic Relaxation 1
   ENCUT  =  520.0 eV  38.22 Ry    6.18 a.u.  23.75 23.75  9.90*2*pi/ulx,y,z
   ENINI  =  520.0     initial cutoff
   ENAUG  =  613.6 eV  augmentation charge cutoff
   NELM   =    100;   NELMIN=  2; NELMDL= -5     # of ELM steps 
   EDIFF  = 0.1E-06   stopping-criterion for ELM
   LREAL  =      T    real-space projection
   NLSPLINE    = F    spline interpolate recip. space projectors
   LCOMPAT=      F    compatible to vasp.4.4
   GGA_COMPAT  = T    GGA compatible to vasp.4.4-vasp.4.6
   LMAXPAW     = -100 max onsite density
   LMAXMIX     =    2 max onsite mixed and CHGCAR
   VOSKOWN=      0    Vosko Wilk Nusair interpolation
   ROPT   =    0.00000   0.00000   0.00000
 Ionic relaxation
   EDIFFG = 0.1E-05   stopping-criterion for IOM
   NSW    =      0    number of steps for IOM
   NBLOCK =      1;   KBLOCK =      1    inner block; outer block 
   IBRION =     -1    ionic relax: 0-MD 1-quasi-New 2-CG
   NFREE  =      0    steps in history (QN), initial steepest desc. (CG)
   ISIF   =      2    stress and relaxation
   IWAVPR =     10    prediction:  0-non 1-charg 2-wave 3-comb
   ISYM   =      2    0-nonsym 1-usesym 2-fastsym
   LCORR  =      T    Harris-Foulkes like correction to forces

   POTIM  = 0.5000    time-step for ionic-motion
   TEIN   =    0.0    initial temperature
   TEBEG  =    0.0;   TEEND  =   0.0 temperature during run
   SMASS  =  -3.00    Nose mass-parameter (am)
   estimated Nose-frequenzy (Omega)   =  0.10E-29 period in steps =****** mass=  -0.373E-26a.u.
   SCALEE = 1.0000    scale energy and forces
   NPACO  =    256;   APACO  = 16.0  distance and # of slots for P.C.
   PSTRESS=    0.0 pullay stress

  Mass of Ions in am
   POMASS =  19.00 58.69132.90
  Ionic Valenz
   ZVAL   =   7.00 10.00  9.00
  Atomic Wigner-Seitz radii
   RWIGS  =  -1.00 -1.00 -1.00
  virtual crystal weights 
   VCA    =   1.00  1.00  1.00
   NELECT =     320.0000    total number of electrons
   NUPDOWN=      -1.0000    fix difference up-down

 DOS related values:
   EMIN   =  10.00;   EMAX   =-10.00  energy-range for DOS
   EFERMI =   0.00
   ISMEAR =     0;   SIGMA  =   0.20  broadening in eV -4-tet -1-fermi 0-gaus

 Electronic relaxation 2 (details)
   IALGO  =     38    algorithm
   LDIAG  =      T    sub-space diagonalisation (order eigenvalues)
   LSUBROT=      F    optimize rotation matrix (better conditioning)
   TURBO    =      0    0=normal 1=particle mesh
   IRESTART =      0    0=no restart 2=restart with 2 vectors
   NREBOOT  =      0    no. of reboots
   NMIN     =      0    reboot dimension
   EREF     =   0.00    reference energy to select bands
   IMIX   =      4    mixing-type and parameters
     AMIX     =   0.40;   BMIX     =  1.00
     AMIX_MAG =   1.60;   BMIX_MAG =  1.00
     AMIN     =   0.10
     WC   =   100.;   INIMIX=   1;  MIXPRE=   1;  MAXMIX= -45

 Intra band minimization:
   WEIMIN = 0.0000     energy-eigenvalue tresh-hold
   EBREAK =  0.13E-09  absolut break condition
   DEPER  =   0.30     relativ break condition  

   TIME   =   0.40     timestep for ELM

  volume/ion in A,a.u.               =      18.81       126.96
  Fermi-wavevector in a.u.,A,eV,Ry     =   1.231077  2.326398 20.620322  1.515551
  Thomas-Fermi vector in A             =   2.365901
 
 Write flags
   LWAVE        =      F    write WAVECAR
   LDOWNSAMPLE  =      F    k-point downsampling of WAVECAR
   LCHARG       =      F    write CHGCAR
   LVTOT        =      F    write LOCPOT, total local potential
   LVHAR        =      F    write LOCPOT, Hartree potential only
   LELF         =      F    write electronic localiz. function (ELF)
   LORBIT       =     11    0 simple, 1 ext, 2 COOP (PROOUT), +10 PAW based schemes


 Dipole corrections
   LMONO  =      F    monopole corrections only (constant potential shift)
   LDIPOL =      F    correct potential (dipole corrections)
   IDIPOL =      0    1-x, 2-y, 3-z, 4-all directions 
   EPSILON=  1.0000000 bulk dielectric constant

 Exchange correlation treatment:
   GGA     =    --    GGA type
   LEXCH   =     8    internal setting for exchange type
   VOSKOWN=      0    Vosko Wilk Nusair interpolation
   LHFCALC =     F    Hartree Fock is set to
   LHFONE  =     F    Hartree Fock one center treatment
   AEXX    =    0.0000 exact exchange contribution

 Linear response parameters
   LEPSILON=     F    determine dielectric tensor
   LRPA    =     F    only Hartree local field effects (RPA)
   LNABLA  =     F    use nabla operator in PAW spheres
   LVEL    =     F    velocity operator in full k-point grid
   LINTERFAST=   F  fast interpolation
   KINTER  =     0    interpolate to denser k-point grid
   CSHIFT  =0.1000    complex shift for real part using Kramers Kronig
   OMEGAMAX=  -1.0    maximum frequency
   DEG_THRESHOLD= 0.2000000E-02 threshold for treating states as degnerate
   RTIME   =   -0.100 relaxation time in fs
  (WPLASMAI=    0.000 imaginary part of plasma frequency in eV, 0.658/RTIME)
   DFIELD  = 0.0000000 0.0000000 0.0000000 field for delta impulse in time
 
 Orbital magnetization related:
   ORBITALMAG=     F  switch on orbital magnetization
   LCHIMAG   =     F  perturbation theory with respect to B field
   DQ        =  0.001000  dq finite difference perturbation B field
   LLRAUG    =     F  two centre corrections for induced B field



--------------------------------------------------------------------------------------------------------


 Static calculation
 charge density and potential will be updated during run
 spin polarized calculation
 Variant of blocked Davidson
 Davidson routine will perform the subspace rotation
 perform sub-space diagonalisation
    after iterative eigenvector-optimisation
 modified Broyden-mixing scheme, WC =      100.0
 initial mixing is a Kerker type mixing with AMIX =  0.4000 and BMIX =      1.0000
 Hartree-type preconditioning will be used
 using additional bands           32
 real space projection scheme for non local part
 use partial core corrections
 calculate Harris-corrections to forces 
   (improved forces if not selfconsistent)
 use gradient corrections 
 use of overlap-Matrix (Vanderbilt PP)
 Gauss-broadening in eV      SIGMA  =   0.20


--------------------------------------------------------------------------------------------------------


  energy-cutoff  :      520.00
  volume of cell :      752.52
      direct lattice vectors                 reciprocal lattice vectors
    12.775245568  0.000000000  0.000000000     0.078276382  0.045192789  0.000000000
    -6.387622784 11.063711963  0.000000000     0.000000000  0.090385578  0.000000000
     0.000000000  0.000000000  5.324128930     0.000000000  0.000000000  0.187824152

  length of vectors
    12.775245568 12.775267012  5.324128930     0.090385730  0.090385578  0.187824152


 
 k-points in units of 2pi/SCALE and weight: Automatic mesh                          
   0.00000000  0.00000000  0.00000000       0.062
   0.03913819  0.02259639  0.00000000       0.062
   0.00000000  0.04519279  0.00000000       0.062
   0.03913819  0.06778918  0.00000000       0.062
   0.00000000  0.00000000  0.04695604       0.125
   0.03913819  0.02259639  0.04695604       0.125
   0.00000000  0.04519279  0.04695604       0.125
   0.03913819  0.06778918  0.04695604       0.125
   0.00000000  0.00000000  0.09391208       0.062
   0.03913819  0.02259639  0.09391208       0.062
   0.00000000  0.04519279  0.09391208       0.062
   0.03913819  0.06778918  0.09391208       0.062
 
 k-points in reciprocal lattice and weights: Automatic mesh                          
   0.00000000  0.00000000  0.00000000       0.062
   0.50000000  0.00000000  0.00000000       0.062
   0.00000000  0.50000000  0.00000000       0.062
   0.50000000  0.50000000  0.00000000       0.062
   0.00000000  0.00000000  0.25000000       0.125
   0.50000000  0.00000000  0.25000000       0.125
   0.00000000  0.50000000  0.25000000       0.125
   0.50000000  0.50000000  0.25000000       0.125
   0.00000000  0.00000000  0.50000000       0.062
   0.50000000  0.00000000  0.50000000       0.062
   0.00000000  0.50000000  0.50000000       0.062
   0.50000000  0.50000000  0.50000000       0.062
 
 position of ions in fractional coordinates (direct lattice) 
   0.57007855  0.64016376  0.25000000
   0.07007855  0.64016376  0.25000000
   0.57007855  0.14016376  0.25000000
   0.07007855  0.14016376  0.25000000
   0.85983624  0.92992145  0.25000000
   0.35983624  0.92992145  0.25000000
   0.85983624  0.42992145  0.25000000
   0.35983624  0.42992145  0.25000000
   0.57008349  0.92991651  0.25000000
   0.07008349  0.92991651  0.25000000
   0.57008349  0.42991651  0.25000000
   0.07008349  0.42991651  0.25000000
   0.92992145  0.85983624  0.75000000
   0.42992145  0.85983624  0.75000000
   0.92992145  0.35983624  0.75000000
   0.42992145  0.35983624  0.75000000
   0.64016376  0.57007855  0.75000000
   0.14016376  0.57007855  0.75000000
   0.64016376  0.07007855  0.75000000
   0.14016376  0.07007855  0.75000000
   0.92991651  0.57008349  0.75000000
   0.42991651  0.57008349  0.75000000
   0.92991651  0.07008349  0.75000000
   0.42991651  0.07008349  0.75000000
   0.00000000  0.00000000  0.00000000
   0.50000000  0.00000000  0.00000000
   1.00000000  0.50000000  0.00000000
   0.50000000  0.50000000  0.00000000
   0.00000000  0.00000000  0.50000000
   0.50000000  0.00000000  0.50000000
   1.00000000  0.50000000  0.50000000
   0.50000000  0.50000000  0.50000000
   0.66666713  0.83333287  0.75000000
   0.16666713  0.83333287  0.75000000
   0.66666713  0.33333287  0.75000000
   0.16666713  0.33333287  0.75000000
   0.83333287  0.66666713  0.25000000
   0.33333287  0.66666713  0.25000000
   0.83333287  0.16666713  0.25000000
   0.33333287  0.16666713  0.25000000
 
 position of ions in cartesian coordinates  (Angst):
   3.19376888  7.08258743  1.33103223
  -3.19385391  7.08258743  1.33103223
   6.38758027  1.55073145  1.33103223
  -0.00004252  1.55073145  1.33103223
   5.04463170 10.28838306  1.33103223
  -1.34299108 10.28838306  1.33103223
   8.23844310  4.75652708  1.33103223
   1.85082031  4.75652708  1.33103223
   1.34300064 10.28832845  1.33103223
  -5.04462215 10.28832845  1.33103223
   4.53681203  4.75647247  1.33103223
  -1.85081076  4.75647247  1.33103223
   6.38766530  9.51298052  3.99309670
   0.00004252  9.51298052  3.99309670
   9.58147669  3.98112454  3.99309670
   3.19385391  3.98112454  3.99309670
   4.53680247  6.30718488  3.99309670
  -1.85082031  6.30718488  3.99309670
   7.73061386  0.77532890  3.99309670
   1.34299108  0.77532890  3.99309670
   8.23843354  6.30723949  3.99309670
   1.85081076  6.30723949  3.99309670
  11.43224493  0.77538351  3.99309670
   5.04462215  0.77538351  3.99309670
   0.00000000  0.00000000  0.00000000
   6.38762278  0.00000000  0.00000000
   9.58143418  5.53185598  0.00000000
   3.19381139  5.53185598  0.00000000
   0.00000000  0.00000000  2.66206446
   6.38762278  0.00000000  2.66206446
   9.58143418  5.53185598  2.66206446
   3.19381139  5.53185598  2.66206446
   3.19382031  9.21975482  3.99309670
  -3.19380247  9.21975482  3.99309670
   6.38763170  3.68789884  3.99309670
   0.00000892  3.68789884  3.99309670
   6.38761387  7.37581312  1.33103223
  -0.00000892  7.37581312  1.33103223
   9.58142526  1.84395714  1.33103223
   3.19380247  1.84395714  1.33103223
 


--------------------------------------------------------------------------------------------------------


 k-point  1 :   0.0000 0.0000 0.0000  plane waves:   20197
 k-point  2 :   0.5000 0.0000 0.0000  plane waves:   20226
 k-point  3 :   0.0000 0.5000 0.0000  plane waves:   20226
 k-point  4 :   0.5000 0.5000 0.0000  plane waves:   20226
 k-point  5 :   0.0000 0.0000 0.2500  plane waves:   20294
 k-point  6 :   0.5000 0.0000 0.2500  plane waves:   20258
 k-point  7 :   0.0000 0.5000 0.2500  plane waves:   20258
 k-point  8 :   0.5000 0.5000 0.2500  plane waves:   20258
 k-point  9 :   0.0000 0.0000 0.5000  plane waves:   20240
 k-point 10 :   0.5000 0.0000 0.5000  plane waves:   20320
 k-point 11 :   0.0000 0.5000 0.5000  plane waves:   20320
 k-point 12 :   0.5000 0.5000 0.5000  plane waves:   20320

 maximum and minimum number of plane-waves per node :       882      806

 maximum number of plane-waves:     20320
 maximum index in each direction: 
   IXMAX=   23   IYMAX=   23   IZMAX=    9
   IXMIN=  -24   IYMIN=  -24   IZMIN=  -10


 real space projection operators:
  total allocation   :      19689.81 KBytes
  max/ min on nodes  :        844.06        757.81


 parallel 3D FFT for wavefunctions:
    minimum data exchange during FFTs selected (reduces bandwidth)
 parallel 3D FFT for charge:
    minimum data exchange during FFTs selected (reduces bandwidth)


 total amount of memory used by VASP MPI-rank0    57405. kBytes
=======================================================================

   base      :      30000. kBytes
   nonlr-proj:       7318. kBytes
   fftplans  :       1046. kBytes
   grid      :       2759. kBytes
   one-center:         62. kBytes
   wavefun   :      16220. kBytes
 
     INWAV:  cpu time    0.0000: real time    0.0000
 Broyden mixing: mesh for mixing (old mesh)
   NGX = 47   NGY = 47   NGZ = 19
  (NGX  =140   NGY  =140   NGZ  = 60)
  gives a total of  41971 points

 initial charge density was supplied:
 charge density of overlapping atoms calculated
 number of electron     320.0000000 magnetization      -0.0000000
 keeping initial charge density in first step


--------------------------------------------------------------------------------------------------------


 Maximum index for non-local projection operator          385
 Maximum index for augmentation-charges          485 (set IRDMAX)


--------------------------------------------------------------------------------------------------------


 First call to EWALD:  gamma=   0.195
 Maximum number of real-space cells 2x 2x 4
 Maximum number of reciprocal cells 4x 4x 2

    FEWALD:  cpu time    0.0019: real time    0.0019


--------------------------------------- Iteration      1(   1)  ---------------------------------------


    POTLOK:  cpu time    0.0865: real time    0.0882
    SETDIJ:  cpu time    0.0076: real time    0.0076
     EDDAV:  cpu time    7.2335: real time    7.3210
       DOS:  cpu time    0.0044: real time    0.0044
    --------------------------------------------
      LOOP:  cpu time    7.3321: real time    7.4214

 eigenvalue-minimisations  :  9216
 total energy-change (2. order) : 0.3971590E+04  (-0.1460405E+05)
 number of electron     320.0000000 magnetization       0.0000000
 augmentation part      320.0000000 magnetization       0.0000000

 Free energy of the ion-electron system (eV)
  ---------------------------------------------------
  alpha Z        PSCENC =      1278.33848294
  Ewald energy   TEWEN  =    -16011.11606870
  -Hartree energ DENC   =    -12510.24273293
  -exchange      EXHF   =         0.00000000
  -V(xc)+E(xc)   XCENC  =      1221.40563993
  PAW double counting   =     19640.54138542   -20241.63226317
  entropy T*S    EENTRO =        -0.13330510
  eigenvalues    EBANDS =      1698.69221677
  atomic energy  EATOM  =     28895.73697308
  Solvation  Ediel_sol  =         0.00000000
  ---------------------------------------------------
  free energy    TOTEN  =      3971.59032824 eV

  energy without entropy =     3971.72363334  energy(sigma->0) =     3971.65698079


--------------------------------------------------------------------------------------------------------




--------------------------------------- Iteration      1(   2)  ---------------------------------------


     EDDAV:  cpu time    7.5780: real time    7.7305
       DOS:  cpu time    0.0049: real time    0.0049
    --------------------------------------------
      LOOP:  cpu time    7.5828: real time    7.7354

 eigenvalue-minimisations  :  9904
 total energy-change (2. order) :-0.3477657E+04  (-0.3227175E+04)
 number of electron     320.0000000 magnetization       0.0000000
 augmentation part      320.0000000 magnetization       0.0000000

 Free energy of the ion-electron system (eV)
  ---------------------------------------------------
  alpha Z        PSCENC =      1278.33848294
  Ewald energy   TEWEN  =    -16011.11606870
  -Hartree energ DENC   =    -12510.24273293
  -exchange      EXHF   =         0.00000000
  -V(xc)+E(xc)   XCENC  =      1221.40563993
  PAW double counting   =     19640.54138542   -20241.63226317
  entropy T*S    EENTRO =        -0.32276921
  eigenvalues    EBANDS =     -1778.77494760
  atomic energy  EATOM  =     28895.73697308
  Solvation  Ediel_sol  =         0.00000000
  ---------------------------------------------------
  free energy    TOTEN  =       493.93369976 eV

  energy without entropy =      494.25646897  energy(sigma->0) =      494.09508437


--------------------------------------------------------------------------------------------------------




--------------------------------------- Iteration      1(   3)  ---------------------------------------


     EDDAV:  cpu time    7.7196: real time    7.8493
       DOS:  cpu time    0.0051: real time    0.0051
    --------------------------------------------
      LOOP:  cpu time    7.7247: real time    7.8545

 eigenvalue-minimisations  : 10064
 total energy-change (2. order) :-0.6637765E+03  (-0.6445974E+03)
 number of electron     320.0000000 magnetization       0.0000000
 augmentation part      320.0000000 magnetization       0.0000000

 Free energy of the ion-electron system (eV)
  ---------------------------------------------------
  alpha Z        PSCENC =      1278.33848294
  Ewald energy   TEWEN  =    -16011.11606870
  -Hartree energ DENC   =    -12510.24273293
  -exchange      EXHF   =         0.00000000
  -V(xc)+E(xc)   XCENC  =      1221.40563993
  PAW double counting   =     19640.54138542   -20241.63226317
  entropy T*S    EENTRO =        -0.33845912
  eigenvalues    EBANDS =     -2442.53578770
  atomic energy  EATOM  =     28895.73697308
  Solvation  Ediel_sol  =         0.00000000
  ---------------------------------------------------
  free energy    TOTEN  =      -169.84283025 eV

  energy without entropy =     -169.50437112  energy(sigma->0) =     -169.67360068


--------------------------------------------------------------------------------------------------------




--------------------------------------- Iteration      1(   4)  ---------------------------------------


     EDDAV:  cpu time    8.0696: real time    8.1691
       DOS:  cpu time    0.0051: real time    0.0051
    --------------------------------------------
      LOOP:  cpu time    8.0748: real time    8.1742

 eigenvalue-minimisations  : 10648
 total energy-change (2. order) :-0.3905231E+02  (-0.3816586E+02)
 number of electron     320.0000000 magnetization       0.0000000
 augmentation part      320.0000000 magnetization       0.0000000

 Free energy of the ion-electron system (eV)
  ---------------------------------------------------
  alpha Z        PSCENC =      1278.33848294
  Ewald energy   TEWEN  =    -16011.11606870
  -Hartree energ DENC   =    -12510.24273293
  -exchange      EXHF   =         0.00000000
  -V(xc)+E(xc)   XCENC  =      1221.40563993
  PAW double counting   =     19640.54138542   -20241.63226317
  entropy T*S    EENTRO =        -0.26755170
  eigenvalues    EBANDS =     -2481.65900927
  atomic energy  EATOM  =     28895.73697308
  Solvation  Ediel_sol  =         0.00000000
  ---------------------------------------------------
  free energy    TOTEN  =      -208.89514439 eV

  energy without entropy =     -208.62759269  energy(sigma->0) =     -208.76136854


--------------------------------------------------------------------------------------------------------




--------------------------------------- Iteration      1(   5)  ---------------------------------------


     EDDAV:  cpu time    8.2741: real time    8.3962
       DOS:  cpu time    0.0054: real time    0.0054
    CHARGE:  cpu time    0.3163: real time    0.3163
    MIXING:  cpu time    0.0024: real time    0.0024
    --------------------------------------------
      LOOP:  cpu time    8.5981: real time    8.7203

 eigenvalue-minimisations  : 11328
 total energy-change (2. order) :-0.1538887E+01  (-0.1530109E+01)
 number of electron     320.0000857 magnetization       0.0000000
 augmentation part       64.5927136 magnetization       0.0000000

 Broyden mixing:
  rms(total) = 0.37431E+01    rms(broyden)= 0.37393E+01
  rms(prec ) = 0.46465E+01
  weight for this iteration     100.00

 Free energy of the ion-electron system (eV)
  ---------------------------------------------------
  alpha Z        PSCENC =      1278.33848294
  Ewald energy   TEWEN  =    -16011.11606870
  -Hartree energ DENC   =    -12510.24273293
  -exchange      EXHF   =         0.00000000
  -V(xc)+E(xc)   XCENC  =      1221.40563993
  PAW double counting   =     19640.54138542   -20241.63226317
  entropy T*S    EENTRO =        -0.26695848
  eigenvalues    EBANDS =     -2483.19848930
  atomic energy  EATOM  =     28895.73697308
  Solvation  Ediel_sol  =         0.00000000
  ---------------------------------------------------
  free energy    TOTEN  =      -210.43403120 eV

  energy without entropy =     -210.16707272  energy(sigma->0) =     -210.30055196


--------------------------------------------------------------------------------------------------------




--------------------------------------- Iteration      1(   6)  ---------------------------------------


    POTLOK:  cpu time    0.0863: real time    0.0901
    SETDIJ:  cpu time    0.0080: real time    0.0080
     EDDAV:  cpu time    9.2572: real time    9.3759
       DOS:  cpu time    0.0052: real time    0.0052
    CHARGE:  cpu time    0.3042: real time    0.3386
    MIXING:  cpu time    0.0009: real time    0.0010
    --------------------------------------------
      LOOP:  cpu time    9.6618: real time    9.8188

 eigenvalue-minimisations  : 12952
 total energy-change (2. order) : 0.2720445E+02  (-0.2129573E+02)
 number of electron     320.0000822 magnetization       0.0000000
 augmentation part       66.3120357 magnetization       0.0000000

 Broyden mixing:
  rms(total) = 0.20692E+01    rms(broyden)= 0.20674E+01
  rms(prec ) = 0.22347E+01
  weight for this iteration     100.00

 eigenvalues of (default mixing * dielectric matrix)
  average eigenvalue GAMMA=   0.5990
  0.5990

 Free energy of the ion-electron system (eV)
  ---------------------------------------------------
  alpha Z        PSCENC =      1278.33848294
  Ewald energy   TEWEN  =    -16011.11606870
  -Hartree energ DENC   =    -12662.06179189
  -exchange      EXHF   =         0.00000000
  -V(xc)+E(xc)   XCENC  =      1242.31306855
  PAW double counting   =     20156.40647316   -20729.32188460
  entropy T*S    EENTRO =        -0.00089923
  eigenvalues    EBANDS =     -2353.52393647
  atomic energy  EATOM  =     28895.73697308
  Solvation  Ediel_sol  =         0.00000000
  ---------------------------------------------------
  free energy    TOTEN  =      -183.22958317 eV

  energy without entropy =     -183.22868394  energy(sigma->0) =     -183.22913355


--------------------------------------------------------------------------------------------------------




--------------------------------------- Iteration      1(   7)  ---------------------------------------


    POTLOK:  cpu time    0.0856: real time    0.0928
    SETDIJ:  cpu time    0.0068: real time    0.0068
     EDDAV:  cpu time    9.2910: real time    9.4799
       DOS:  cpu time    0.0050: real time    0.0050
    CHARGE:  cpu time    0.3127: real time    0.3129
    MIXING:  cpu time    0.0012: real time    0.0012
    --------------------------------------------
      LOOP:  cpu time    9.7024: real time    9.8987

 eigenvalue-minimisations  : 12800
 total energy-change (2. order) : 0.5159088E+00  (-0.3068695E+01)
 number of electron     320.0000821 magnetization       0.0000000
 augmentation part       64.3376326 magnetization       0.0000000

 Broyden mixing:
  rms(total) = 0.88249E+00    rms(broyden)= 0.88224E+00
  rms(prec ) = 0.95595E+00
  weight for this iteration     100.00

 eigenvalues of (default mixing * dielectric matrix)
  average eigenvalue GAMMA=   0.6514
  0.6514  0.6514

 Free energy of the ion-electron system (eV)
  ---------------------------------------------------
  alpha Z        PSCENC =      1278.33848294
  Ewald energy   TEWEN  =    -16011.11606870
  -Hartree energ DENC   =    -12690.41687755
  -exchange      EXHF   =         0.00000000
  -V(xc)+E(xc)   XCENC  =      1238.79763026
  PAW double counting   =     20305.97072703   -20909.68234705
  entropy T*S    EENTRO =        -0.00009289
  eigenvalues    EBANDS =     -2290.34210145
  atomic energy  EATOM  =     28895.73697308
  Solvation  Ediel_sol  =         0.00000000
  ---------------------------------------------------
  free energy    TOTEN  =      -182.71367434 eV

  energy without entropy =     -182.71358144  energy(sigma->0) =     -182.71362789


--------------------------------------------------------------------------------------------------------




--------------------------------------- Iteration      1(   8)  ---------------------------------------


    POTLOK:  cpu time    0.0832: real time    0.0861
    SETDIJ:  cpu time    0.0075: real time    0.0075
     EDDAV:  cpu time    8.3758: real time    8.5014
       DOS:  cpu time    0.0051: real time    0.0051
    CHARGE:  cpu time    0.3166: real time    0.3168
    MIXING:  cpu time    0.0099: real time    0.0099
    --------------------------------------------
      LOOP:  cpu time    8.7980: real time    8.9267

 eigenvalue-minimisations  : 11328
 total energy-change (2. order) :-0.3560210E+00  (-0.4591545E+00)
 number of electron     320.0000826 magnetization       0.0000000
 augmentation part       64.4189745 magnetization       0.0000000

 Broyden mixing:
  rms(total) = 0.47622E+00    rms(broyden)= 0.47609E+00
  rms(prec ) = 0.55314E+00
  weight for this iteration     100.00

 eigenvalues of (default mixing * dielectric matrix)
  average eigenvalue GAMMA=   1.0486
  1.7712  0.6873  0.6873

 Free energy of the ion-electron system (eV)
  ---------------------------------------------------
  alpha Z        PSCENC =      1278.33848294
  Ewald energy   TEWEN  =    -16011.11606870
  -Hartree energ DENC   =    -12677.55848364
  -exchange      EXHF   =         0.00000000
  -V(xc)+E(xc)   XCENC  =      1238.41000376
  PAW double counting   =     20355.44668698   -20965.40470521
  entropy T*S    EENTRO =        -0.00001668
  eigenvalues    EBANDS =     -2296.92256792
  atomic energy  EATOM  =     28895.73697308
  Solvation  Ediel_sol  =         0.00000000
  ---------------------------------------------------
  free energy    TOTEN  =      -183.06969538 eV

  energy without entropy =     -183.06967871  energy(sigma->0) =     -183.06968705


--------------------------------------------------------------------------------------------------------




--------------------------------------- Iteration      1(   9)  ---------------------------------------


    POTLOK:  cpu time    0.0881: real time    0.0919
    SETDIJ:  cpu time    0.0069: real time    0.0069
     EDDAV:  cpu time    9.3291: real time    9.4807
       DOS:  cpu time    0.0047: real time    0.0047
    CHARGE:  cpu time    0.3173: real time    0.3174
    MIXING:  cpu time    0.0011: real time    0.0011
    --------------------------------------------
      LOOP:  cpu time    9.7471: real time    9.9026

 eigenvalue-minimisations  : 13040
 total energy-change (2. order) : 0.9753812E-01  (-0.7747195E-01)
 number of electron     320.0000824 magnetization       0.0000000
 augmentation part       64.5885605 magnetization       0.0000000

 Broyden mixing:
  rms(total) = 0.21680E+00    rms(broyden)= 0.21676E+00
  rms(prec ) = 0.23704E+00
  weight for this iteration     100.00

 eigenvalues of (default mixing * dielectric matrix)
  average eigenvalue GAMMA=   1.1061
  2.4214  0.7900  0.6065  0.6065

 Free energy of the ion-electron system (eV)
  ---------------------------------------------------
  alpha Z        PSCENC =      1278.33848294
  Ewald energy   TEWEN  =    -16011.11606870
  -Hartree energ DENC   =    -12688.84998050
  -exchange      EXHF   =         0.00000000
  -V(xc)+E(xc)   XCENC  =      1240.04479606
  PAW double counting   =     20535.24222043   -21157.57783409
  entropy T*S    EENTRO =        -0.00000376
  eigenvalues    EBANDS =     -2274.79074273
  atomic energy  EATOM  =     28895.73697308
  Solvation  Ediel_sol  =         0.00000000
  ---------------------------------------------------
  free energy    TOTEN  =      -182.97215726 eV

  energy without entropy =     -182.97215350  energy(sigma->0) =     -182.97215538


--------------------------------------------------------------------------------------------------------




--------------------------------------- Iteration      1(  10)  ---------------------------------------


    POTLOK:  cpu time    0.0849: real time    0.0884
    SETDIJ:  cpu time    0.0068: real time    0.0068
     EDDAV:  cpu time    9.0309: real time    9.1827
       DOS:  cpu time    0.0045: real time    0.0045
    CHARGE:  cpu time    0.3120: real time    0.3120
    MIXING:  cpu time    0.0012: real time    0.0012
    --------------------------------------------
      LOOP:  cpu time    9.4403: real time    9.5955

 eigenvalue-minimisations  : 12448
 total energy-change (2. order) :-0.1681307E-01  (-0.2670368E-01)
 number of electron     320.0000826 magnetization       0.0000000
 augmentation part       64.4861236 magnetization       0.0000000

 Broyden mixing:
  rms(total) = 0.81613E-01    rms(broyden)= 0.81574E-01
  rms(prec ) = 0.97414E-01
  weight for this iteration     100.00

 eigenvalues of (default mixing * dielectric matrix)
  average eigenvalue GAMMA=   1.0966
  2.4245  1.0789  0.6571  0.6571  0.6654

 Free energy of the ion-electron system (eV)
  ---------------------------------------------------
  alpha Z        PSCENC =      1278.33848294
  Ewald energy   TEWEN  =    -16011.11606870
  -Hartree energ DENC   =    -12693.38797146
  -exchange      EXHF   =         0.00000000
  -V(xc)+E(xc)   XCENC  =      1240.04764624
  PAW double counting   =     20559.38963863   -21185.25936964
  entropy T*S    EENTRO =        -0.00000374
  eigenvalues    EBANDS =     -2266.73829768
  atomic energy  EATOM  =     28895.73697308
  Solvation  Ediel_sol  =         0.00000000
  ---------------------------------------------------
  free energy    TOTEN  =      -182.98897033 eV

  energy without entropy =     -182.98896659  energy(sigma->0) =     -182.98896846


--------------------------------------------------------------------------------------------------------




--------------------------------------- Iteration      1(  11)  ---------------------------------------


    POTLOK:  cpu time    0.0831: real time    0.0865
    SETDIJ:  cpu time    0.0068: real time    0.0068
     EDDAV:  cpu time    9.4950: real time    9.6009
       DOS:  cpu time    0.0047: real time    0.0047
    CHARGE:  cpu time    0.3121: real time    0.3121
    MIXING:  cpu time    0.0010: real time    0.0010
    --------------------------------------------
      LOOP:  cpu time    9.9028: real time   10.0121

 eigenvalue-minimisations  : 13136
 total energy-change (2. order) : 0.1953029E-02  (-0.5057483E-02)
 number of electron     320.0000827 magnetization       0.0000000
 augmentation part       64.4746007 magnetization       0.0000000

 Broyden mixing:
  rms(total) = 0.25595E-01    rms(broyden)= 0.25524E-01
  rms(prec ) = 0.31102E-01
  weight for this iteration     100.00

 eigenvalues of (default mixing * dielectric matrix)
  average eigenvalue GAMMA=   1.0927
  2.4676  1.0602  1.0602  0.6592  0.6592  0.6497

 Free energy of the ion-electron system (eV)
  ---------------------------------------------------
  alpha Z        PSCENC =      1278.33848294
  Ewald energy   TEWEN  =    -16011.11606870
  -Hartree energ DENC   =    -12693.95504675
  -exchange      EXHF   =         0.00000000
  -V(xc)+E(xc)   XCENC  =      1239.88385994
  PAW double counting   =     20555.19613457   -21181.36006698
  entropy T*S    EENTRO =        -0.00000503
  eigenvalues    EBANDS =     -2265.71128038
  atomic energy  EATOM  =     28895.73697308
  Solvation  Ediel_sol  =         0.00000000
  ---------------------------------------------------
  free energy    TOTEN  =      -182.98701730 eV

  energy without entropy =     -182.98701228  energy(sigma->0) =     -182.98701479


--------------------------------------------------------------------------------------------------------




--------------------------------------- Iteration      1(  12)  ---------------------------------------


    POTLOK:  cpu time    0.0830: real time    0.0870
    SETDIJ:  cpu time    0.0070: real time    0.0070
     EDDAV:  cpu time    7.8338: real time    7.9597
       DOS:  cpu time    0.0047: real time    0.0047
    CHARGE:  cpu time    0.3122: real time    0.3124
    MIXING:  cpu time    0.0012: real time    0.0012
    --------------------------------------------
      LOOP:  cpu time    8.2419: real time    8.3720

 eigenvalue-minimisations  : 10352
 total energy-change (2. order) :-0.2988312E-02  (-0.1226632E-02)
 number of electron     320.0000827 magnetization       0.0000000
 augmentation part       64.4770210 magnetization       0.0000000

 Broyden mixing:
  rms(total) = 0.14384E-01    rms(broyden)= 0.14366E-01
  rms(prec ) = 0.18160E-01
  weight for this iteration     100.00

 eigenvalues of (default mixing * dielectric matrix)
  average eigenvalue GAMMA=   1.1277
  2.4860  1.4091  1.0106  1.0106  0.6665  0.6665  0.6448

 Free energy of the ion-electron system (eV)
  ---------------------------------------------------
  alpha Z        PSCENC =      1278.33848294
  Ewald energy   TEWEN  =    -16011.11606870
  -Hartree energ DENC   =    -12696.13114180
  -exchange      EXHF   =         0.00000000
  -V(xc)+E(xc)   XCENC  =      1239.99340327
  PAW double counting   =     20556.04871858   -21182.22591141
  entropy T*S    EENTRO =        -0.00000396
  eigenvalues    EBANDS =     -2263.63445761
  atomic energy  EATOM  =     28895.73697308
  Solvation  Ediel_sol  =         0.00000000
  ---------------------------------------------------
  free energy    TOTEN  =      -182.99000562 eV

  energy without entropy =     -182.99000165  energy(sigma->0) =     -182.99000364


--------------------------------------------------------------------------------------------------------




--------------------------------------- Iteration      1(  13)  ---------------------------------------


    POTLOK:  cpu time    0.0931: real time    0.0993
    SETDIJ:  cpu time    0.0068: real time    0.0068
     EDDAV:  cpu time    8.4744: real time    8.6740
       DOS:  cpu time    0.0048: real time    0.0048
    CHARGE:  cpu time    0.3130: real time    0.3131
    MIXING:  cpu time    0.0039: real time    0.0039
    --------------------------------------------
      LOOP:  cpu time    8.8960: real time    9.1018

 eigenvalue-minimisations  : 11592
 total energy-change (2. order) :-0.9153979E-03  (-0.2033269E-03)
 number of electron     320.0000826 magnetization       0.0000000
 augmentation part       64.4755573 magnetization       0.0000000

 Broyden mixing:
  rms(total) = 0.72917E-02    rms(broyden)= 0.72836E-02
  rms(prec ) = 0.91395E-02
  weight for this iteration     100.00

 eigenvalues of (default mixing * dielectric matrix)
  average eigenvalue GAMMA=   1.1588
  2.4910  2.1017  1.0097  1.0097  0.6608  0.6608  0.7044  0.6324

 Free energy of the ion-electron system (eV)
  ---------------------------------------------------
  alpha Z        PSCENC =      1278.33848294
  Ewald energy   TEWEN  =    -16011.11606870
  -Hartree energ DENC   =    -12698.08758578
  -exchange      EXHF   =         0.00000000
  -V(xc)+E(xc)   XCENC  =      1240.11635867
  PAW double counting   =     20556.88437155   -21183.06313365
  entropy T*S    EENTRO =        -0.00000476
  eigenvalues    EBANDS =     -2261.80031437
  atomic energy  EATOM  =     28895.73697308
  Solvation  Ediel_sol  =         0.00000000
  ---------------------------------------------------
  free energy    TOTEN  =      -182.99092101 eV

  energy without entropy =     -182.99091626  energy(sigma->0) =     -182.99091863


--------------------------------------------------------------------------------------------------------




--------------------------------------- Iteration      1(  14)  ---------------------------------------


    POTLOK:  cpu time    0.0991: real time    0.0992
    SETDIJ:  cpu time    0.0068: real time    0.0068
     EDDAV:  cpu time    8.0721: real time    8.1556
       DOS:  cpu time    0.0050: real time    0.0050
    CHARGE:  cpu time    0.3137: real time    0.3326
    MIXING:  cpu time    0.0012: real time    0.0012
    --------------------------------------------
      LOOP:  cpu time    8.4979: real time    8.6003

 eigenvalue-minimisations  : 10896
 total energy-change (2. order) :-0.2426782E-03  (-0.4563109E-04)
 number of electron     320.0000826 magnetization       0.0000000
 augmentation part       64.4733013 magnetization       0.0000000

 Broyden mixing:
  rms(total) = 0.37562E-02    rms(broyden)= 0.37558E-02
  rms(prec ) = 0.49904E-02
  weight for this iteration     100.00

 eigenvalues of (default mixing * dielectric matrix)
  average eigenvalue GAMMA=   1.2100
  2.7033  2.4277  1.1403  1.1403  0.8504  0.6652  0.6652  0.6671  0.6306

 Free energy of the ion-electron system (eV)
  ---------------------------------------------------
  alpha Z        PSCENC =      1278.33848294
  Ewald energy   TEWEN  =    -16011.11606870
  -Hartree energ DENC   =    -12698.88446208
  -exchange      EXHF   =         0.00000000
  -V(xc)+E(xc)   XCENC  =      1240.14951378
  PAW double counting   =     20556.82071460   -21182.96917742
  entropy T*S    EENTRO =        -0.00000490
  eigenvalues    EBANDS =     -2261.06713499
  atomic energy  EATOM  =     28895.73697308
  Solvation  Ediel_sol  =         0.00000000
  ---------------------------------------------------
  free energy    TOTEN  =      -182.99116369 eV

  energy without entropy =     -182.99115879  energy(sigma->0) =     -182.99116124


--------------------------------------------------------------------------------------------------------




--------------------------------------- Iteration      1(  15)  ---------------------------------------


    POTLOK:  cpu time    0.0824: real time    0.0851
    SETDIJ:  cpu time    0.0068: real time    0.0068
     EDDAV:  cpu time    8.4073: real time    8.5287
       DOS:  cpu time    0.0048: real time    0.0048
    CHARGE:  cpu time    0.3108: real time    0.3108
    MIXING:  cpu time    0.0020: real time    0.0020
    --------------------------------------------
      LOOP:  cpu time    8.8141: real time    8.9382

 eigenvalue-minimisations  : 11440
 total energy-change (2. order) :-0.3959315E-04  (-0.9426865E-05)
 number of electron     320.0000827 magnetization       0.0000000
 augmentation part       64.4740978 magnetization       0.0000000

 Broyden mixing:
  rms(total) = 0.15693E-02    rms(broyden)= 0.15660E-02
  rms(prec ) = 0.26159E-02
  weight for this iteration     100.00

 eigenvalues of (default mixing * dielectric matrix)
  average eigenvalue GAMMA=   1.2125
  2.9266  2.3920  1.2198  1.2198  0.9119  0.6659  0.6659  0.7856  0.6384  0.6986

 Free energy of the ion-electron system (eV)
  ---------------------------------------------------
  alpha Z        PSCENC =      1278.33848294
  Ewald energy   TEWEN  =    -16011.11606870
  -Hartree energ DENC   =    -12699.01210576
  -exchange      EXHF   =         0.00000000
  -V(xc)+E(xc)   XCENC  =      1240.15512533
  PAW double counting   =     20556.42916913   -21182.54971395
  entropy T*S    EENTRO =        -0.00000508
  eigenvalues    EBANDS =     -2260.97306027
  atomic energy  EATOM  =     28895.73697308
  Solvation  Ediel_sol  =         0.00000000
  ---------------------------------------------------
  free energy    TOTEN  =      -182.99120329 eV

  energy without entropy =     -182.99119820  energy(sigma->0) =     -182.99120074


--------------------------------------------------------------------------------------------------------




--------------------------------------- Iteration      1(  16)  ---------------------------------------


    POTLOK:  cpu time    0.0845: real time    0.0888
    SETDIJ:  cpu time    0.0068: real time    0.0068
     EDDAV:  cpu time    9.1985: real time    9.3983
       DOS:  cpu time    0.0046: real time    0.0046
    CHARGE:  cpu time    0.3229: real time    0.3229
    MIXING:  cpu time    0.0016: real time    0.0016
    --------------------------------------------
      LOOP:  cpu time    9.6189: real time    9.8229

 eigenvalue-minimisations  : 12664
 total energy-change (2. order) : 0.3585636E-05  (-0.3133975E-05)
 number of electron     320.0000827 magnetization       0.0000000
 augmentation part       64.4754124 magnetization       0.0000000

 Broyden mixing:
  rms(total) = 0.79785E-03    rms(broyden)= 0.79715E-03
  rms(prec ) = 0.16517E-02
  weight for this iteration     100.00

 eigenvalues of (default mixing * dielectric matrix)
  average eigenvalue GAMMA=   1.1890
  2.9615  2.3976  1.2259  1.1638  1.1638  0.6669  0.6669  0.8092  0.6363  0.6932
  0.6932

 Free energy of the ion-electron system (eV)
  ---------------------------------------------------
  alpha Z        PSCENC =      1278.33848294
  Ewald energy   TEWEN  =    -16011.11606870
  -Hartree energ DENC   =    -12698.99530801
  -exchange      EXHF   =         0.00000000
  -V(xc)+E(xc)   XCENC  =      1240.15852791
  PAW double counting   =     20556.39127886   -21182.50384599
  entropy T*S    EENTRO =        -0.00000531
  eigenvalues    EBANDS =     -2261.00123449
  atomic energy  EATOM  =     28895.73697308
  Solvation  Ediel_sol  =         0.00000000
  ---------------------------------------------------
  free energy    TOTEN  =      -182.99119970 eV

  energy without entropy =     -182.99119439  energy(sigma->0) =     -182.99119705


--------------------------------------------------------------------------------------------------------




--------------------------------------- Iteration      1(  17)  ---------------------------------------


    POTLOK:  cpu time    0.0825: real time    0.0861
    SETDIJ:  cpu time    0.0068: real time    0.0068
     EDDAV:  cpu time    9.7308: real time    9.8422
       DOS:  cpu time    0.0047: real time    0.0047
    CHARGE:  cpu time    0.3104: real time    0.3106
    MIXING:  cpu time    0.0014: real time    0.0014
    --------------------------------------------
      LOOP:  cpu time   10.1366: real time   10.2519

 eigenvalue-minimisations  : 13576
 total energy-change (2. order) : 0.5879101E-05  (-0.1246901E-05)
 number of electron     320.0000827 magnetization       0.0000000
 augmentation part       64.4754736 magnetization       0.0000000

 Broyden mixing:
  rms(total) = 0.52760E-03    rms(broyden)= 0.52739E-03
  rms(prec ) = 0.10510E-02
  weight for this iteration     100.00

 eigenvalues of (default mixing * dielectric matrix)
  average eigenvalue GAMMA=   1.2251
  3.0100  2.4262  1.8411  1.1761  1.1761  0.6656  0.6656  0.8550  0.8006  0.8006
  0.6296  0.6547

 Free energy of the ion-electron system (eV)
  ---------------------------------------------------
  alpha Z        PSCENC =      1278.33848294
  Ewald energy   TEWEN  =    -16011.11606870
  -Hartree energ DENC   =    -12699.00841117
  -exchange      EXHF   =         0.00000000
  -V(xc)+E(xc)   XCENC  =      1240.16230712
  PAW double counting   =     20556.36616650   -21182.48100552
  entropy T*S    EENTRO =        -0.00000554
  eigenvalues    EBANDS =     -2260.98963253
  atomic energy  EATOM  =     28895.73697308
  Solvation  Ediel_sol  =         0.00000000
  ---------------------------------------------------
  free energy    TOTEN  =      -182.99119382 eV

  energy without entropy =     -182.99118828  energy(sigma->0) =     -182.99119105


--------------------------------------------------------------------------------------------------------




--------------------------------------- Iteration      1(  18)  ---------------------------------------


    POTLOK:  cpu time    0.0851: real time    0.0868
    SETDIJ:  cpu time    0.0069: real time    0.0069
     EDDAV:  cpu time    8.7610: real time    8.8463
       DOS:  cpu time    0.0052: real time    0.0052
    CHARGE:  cpu time    0.3281: real time    0.3616
    MIXING:  cpu time    0.0019: real time    0.0019
    --------------------------------------------
      LOOP:  cpu time    9.1882: real time    9.3088

 eigenvalue-minimisations  : 12216
 total energy-change (2. order) : 0.3279834E-05  (-0.9925877E-06)
 number of electron     320.0000827 magnetization       0.0000000
 augmentation part       64.4752551 magnetization       0.0000000

 Broyden mixing:
  rms(total) = 0.37278E-03    rms(broyden)= 0.37264E-03
  rms(prec ) = 0.62249E-03
  weight for this iteration     100.00

 eigenvalues of (default mixing * dielectric matrix)
  average eigenvalue GAMMA=   1.2433
  3.1513  2.4497  2.3582  1.2138  1.2138  0.8216  0.8216  0.6651  0.6651  0.7810
  0.7439  0.6657  0.6127

 Free energy of the ion-electron system (eV)
  ---------------------------------------------------
  alpha Z        PSCENC =      1278.33848294
  Ewald energy   TEWEN  =    -16011.11606870
  -Hartree energ DENC   =    -12699.01255889
  -exchange      EXHF   =         0.00000000
  -V(xc)+E(xc)   XCENC  =      1240.16332429
  PAW double counting   =     20556.32254044   -21182.44135864
  entropy T*S    EENTRO =        -0.00000566
  eigenvalues    EBANDS =     -2260.98251938
  atomic energy  EATOM  =     28895.73697308
  Solvation  Ediel_sol  =         0.00000000
  ---------------------------------------------------
  free energy    TOTEN  =      -182.99119054 eV

  energy without entropy =     -182.99118488  energy(sigma->0) =     -182.99118771


--------------------------------------------------------------------------------------------------------




--------------------------------------- Iteration      1(  19)  ---------------------------------------


    POTLOK:  cpu time    0.0864: real time    0.0898
    SETDIJ:  cpu time    0.0069: real time    0.0069
     EDDAV:  cpu time    9.1341: real time    9.2558
       DOS:  cpu time    0.0046: real time    0.0046
    CHARGE:  cpu time    0.3155: real time    0.3493
    MIXING:  cpu time    0.0021: real time    0.0021
    --------------------------------------------
      LOOP:  cpu time    9.5496: real time    9.7084

 eigenvalue-minimisations  : 12616
 total energy-change (2. order) : 0.7893505E-06  (-0.4224468E-06)
 number of electron     320.0000827 magnetization       0.0000000
 augmentation part       64.4753430 magnetization       0.0000000

 Broyden mixing:
  rms(total) = 0.25564E-03    rms(broyden)= 0.25558E-03
  rms(prec ) = 0.36921E-03
  weight for this iteration     100.00

 eigenvalues of (default mixing * dielectric matrix)
  average eigenvalue GAMMA=   1.2775
  3.3493  2.6977  2.2655  1.4904  1.1314  1.1314  1.0746  0.6656  0.6656  0.7262
  0.7262  0.6940  0.6516  0.6152

 Free energy of the ion-electron system (eV)
  ---------------------------------------------------
  alpha Z        PSCENC =      1278.33848294
  Ewald energy   TEWEN  =    -16011.11606870
  -Hartree energ DENC   =    -12699.00717045
  -exchange      EXHF   =         0.00000000
  -V(xc)+E(xc)   XCENC  =      1240.16317004
  PAW double counting   =     20556.32398489   -21182.44435272
  entropy T*S    EENTRO =        -0.00000577
  eigenvalues    EBANDS =     -2260.98620306
  atomic energy  EATOM  =     28895.73697308
  Solvation  Ediel_sol  =         0.00000000
  ---------------------------------------------------
  free energy    TOTEN  =      -182.99118975 eV

  energy without entropy =     -182.99118398  energy(sigma->0) =     -182.99118687


--------------------------------------------------------------------------------------------------------




--------------------------------------- Iteration      1(  20)  ---------------------------------------


    POTLOK:  cpu time    0.0870: real time    0.0948
    SETDIJ:  cpu time    0.0419: real time    0.0419
     EDDAV:  cpu time    8.3987: real time    8.5400
       DOS:  cpu time    0.0046: real time    0.0046
    CHARGE:  cpu time    0.3511: real time    0.3511
    MIXING:  cpu time    0.0019: real time    0.0019
    --------------------------------------------
      LOOP:  cpu time    8.8853: real time    9.0344

 eigenvalue-minimisations  : 11400
 total energy-change (2. order) : 0.5565562E-06  (-0.1761164E-06)
 number of electron     320.0000827 magnetization       0.0000000
 augmentation part       64.4752446 magnetization       0.0000000

 Broyden mixing:
  rms(total) = 0.12544E-03    rms(broyden)= 0.12533E-03
  rms(prec ) = 0.16817E-03
  weight for this iteration     100.00

 eigenvalues of (default mixing * dielectric matrix)
  average eigenvalue GAMMA=   1.3489
  4.0093  2.9427  2.3492  1.9609  1.1839  1.1839  0.8883  0.8883  0.6658  0.6658
  0.7678  0.7678  0.7062  0.6398  0.6132

 Free energy of the ion-electron system (eV)
  ---------------------------------------------------
  alpha Z        PSCENC =      1278.33848294
  Ewald energy   TEWEN  =    -16011.11606870
  -Hartree energ DENC   =    -12699.00157357
  -exchange      EXHF   =         0.00000000
  -V(xc)+E(xc)   XCENC  =      1240.16233141
  PAW double counting   =     20556.35131820   -21182.47340141
  entropy T*S    EENTRO =        -0.00000582
  eigenvalues    EBANDS =     -2260.98924533
  atomic energy  EATOM  =     28895.73697308
  Solvation  Ediel_sol  =         0.00000000
  ---------------------------------------------------
  free energy    TOTEN  =      -182.99118919 eV

  energy without entropy =     -182.99118337  energy(sigma->0) =     -182.99118628


--------------------------------------------------------------------------------------------------------




--------------------------------------- Iteration      1(  21)  ---------------------------------------


    POTLOK:  cpu time    0.0846: real time    0.0883
    SETDIJ:  cpu time    0.0068: real time    0.0068
     EDDAV:  cpu time    7.4815: real time    7.6240
       DOS:  cpu time    0.0047: real time    0.0047
    --------------------------------------------
      LOOP:  cpu time    7.5776: real time    7.7238

 eigenvalue-minimisations  :  9832
 total energy-change (2. order) : 0.5500260E-07  (-0.7921849E-07)
 number of electron     320.0000827 magnetization       0.0000000
 augmentation part       64.4752446 magnetization       0.0000000

 Free energy of the ion-electron system (eV)
  ---------------------------------------------------
  alpha Z        PSCENC =      1278.33848294
  Ewald energy   TEWEN  =    -16011.11606870
  -Hartree energ DENC   =    -12698.99682892
  -exchange      EXHF   =         0.00000000
  -V(xc)+E(xc)   XCENC  =      1240.16193786
  PAW double counting   =     20556.36439197   -21182.48708355
  entropy T*S    EENTRO =        -0.00000584
  eigenvalues    EBANDS =     -2260.99298798
  atomic energy  EATOM  =     28895.73697308
  Solvation  Ediel_sol  =         0.00000000
  ---------------------------------------------------
  free energy    TOTEN  =      -182.99118914 eV

  energy without entropy =     -182.99118330  energy(sigma->0) =     -182.99118622


--------------------------------------------------------------------------------------------------------




 average (electrostatic) potential at core
  the test charge radii are     0.7167  0.9791  1.1312
  (the norm of the test charge is              1.0000)
       1 -78.4132       2 -78.4132       3 -78.4149       4 -78.4149       5 -78.4150
       6 -78.4150       7 -78.4131       8 -78.4131       9 -78.4149      10 -78.4149
      11 -78.4130      12 -78.4130      13 -78.4149      14 -78.4149      15 -78.4132
      16 -78.4132      17 -78.4131      18 -78.4131      19 -78.4150      20 -78.4150
      21 -78.4130      22 -78.4130      23 -78.4149      24 -78.4149      25 -46.7713
      26 -46.7713      27 -46.8058      28 -46.8058      29 -46.7713      30 -46.7713
      31 -46.8058      32 -46.8058      33 -49.4745      34 -49.4745      35 -49.4749
      36 -49.4749      37 -49.4749      38 -49.4749      39 -49.4745      40 -49.4745
 
 
 
 E-fermi :   1.1028     XC(G=0):  -8.6945     alpha+bet : -7.8451


 spin component 1

 k-point     1 :       0.0000    0.0000    0.0000
  band No.  band energies     occupation 
      1     -22.3669      1.00000
      2     -22.2734      1.00000
      3     -22.2573      1.00000
      4     -22.1629      1.00000
      5     -22.0360      1.00000
      6     -21.9364      1.00000
      7     -21.9308      1.00000
      8     -21.9089      1.00000
      9     -21.9084      1.00000
     10     -21.8584      1.00000
     11     -21.8584      1.00000
     12     -21.8303      1.00000
     13     -21.8155      1.00000
     14     -21.8075      1.00000
     15     -21.8020      1.00000
     16     -21.7945      1.00000
     17     -21.7546      1.00000
     18     -21.7523      1.00000
     19     -21.7493      1.00000
     20     -21.7469      1.00000
     21     -21.7010      1.00000
     22     -21.7005      1.00000
     23     -21.6424      1.00000
     24     -21.6423      1.00000
     25     -19.7364      1.00000
     26     -19.7356      1.00000
     27     -19.7352      1.00000
     28     -19.7349      1.00000
     29     -19.7330      1.00000
     30     -19.7329      1.00000
     31     -19.7329      1.00000
     32     -19.7101      1.00000
     33      -7.0030      1.00000
     34      -7.0030      1.00000
     35      -6.9178      1.00000
     36      -6.8537      1.00000
     37      -6.8533      1.00000
     38      -6.8530      1.00000
     39      -6.7064      1.00000
     40      -6.7047      1.00000
     41      -6.7031      1.00000
     42      -6.6347      1.00000
     43      -6.6307      1.00000
     44      -6.6267      1.00000
     45      -6.5996      1.00000
     46      -6.5996      1.00000
     47      -6.5853      1.00000
     48      -6.5849      1.00000
     49      -6.5848      1.00000
     50      -6.5633      1.00000
     51      -6.5613      1.00000
     52      -6.5595      1.00000
     53      -6.4946      1.00000
     54      -6.4945      1.00000
     55      -6.4943      1.00000
     56      -6.4316      1.00000
     57      -5.7160      1.00000
     58      -5.5766      1.00000
     59      -5.5226      1.00000
     60      -5.3981      1.00000
     61      -5.1603      1.00000
     62      -5.0746      1.00000
     63      -5.0062      1.00000
     64      -4.8093      1.00000
     65      -4.7837      1.00000
     66      -4.7710      1.00000
     67      -4.7002      1.00000
     68      -4.6734      1.00000
     69      -4.6144      1.00000
     70      -4.5871      1.00000
     71      -4.5559      1.00000
     72      -4.5431      1.00000
     73      -4.5194      1.00000
     74      -4.5157      1.00000
     75      -4.4940      1.00000
     76      -4.4033      1.00000
     77      -4.1936      1.00000
     78      -4.1535      1.00000
     79      -4.0893      1.00000
     80      -4.0291      1.00000
     81      -4.0267      1.00000
     82      -4.0144      1.00000
     83      -3.9651      1.00000
     84      -3.9579      1.00000
     85      -3.9403      1.00000
     86      -3.9296      1.00000
     87      -3.9041      1.00000
     88      -3.8204      1.00000
     89      -3.7631      1.00000
     90      -3.7527      1.00000
     91      -3.7409      1.00000
     92      -3.7328      1.00000
     93      -3.7163      1.00000
     94      -3.7155      1.00000
     95      -3.7004      1.00000
     96      -3.6484      1.00000
     97      -3.6359      1.00000
     98      -3.5980      1.00000
     99      -3.5975      1.00000
    100      -3.5559      1.00000
    101      -3.5020      1.00000
    102      -3.4929      1.00000
    103      -3.4716      1.00000
    104      -3.3558      1.00000
    105      -3.3477      1.00000
    106      -3.2713      1.00000
    107      -3.1578      1.00000
    108      -3.1428      1.00000
    109      -3.0927      1.00000
    110      -3.0103      1.00000
    111      -2.9903      1.00000
    112      -2.9740      1.00000
    113      -2.9637      1.00000
    114      -2.9500      1.00000
    115      -2.8494      1.00000
    116      -2.8488      1.00000
    117      -2.8209      1.00000
    118      -2.8097      1.00000
    119      -2.7395      1.00000
    120      -2.6540      1.00000
    121      -2.6340      1.00000
    122      -2.6087      1.00000
    123      -2.5745      1.00000
    124      -2.5666      1.00000
    125      -2.5097      1.00000
    126      -2.4641      1.00000
    127      -2.4470      1.00000
    128      -2.3962      1.00000
    129      -1.5644      1.00000
    130      -1.3313      1.00000
    131      -1.3195      1.00000
    132      -1.2904      1.00000
    133      -1.2903      1.00000
    134      -1.0493      1.00000
    135      -1.0426      1.00000
    136      -1.0391      1.00000
    137      -1.0326      1.00000
    138      -0.8352      1.00000
    139      -0.8345      1.00000
    140      -0.6876      1.00000
    141      -0.5810      1.00000
    142      -0.5615      1.00000
    143      -0.5458      1.00000
    144      -0.5398      1.00000
    145      -0.5145      1.00000
    146      -0.4155      1.00000
    147      -0.4152      1.00000
    148      -0.3859      1.00000
    149      -0.3809      1.00000
    150      -0.0724      1.00000
    151      -0.0724      1.00000
    152       0.1048      1.00000
    153       0.1067      1.00000
    154       0.1483      1.00000
    155       0.1504      1.00000
    156       0.1620      1.00000
    157       0.1633      1.00000
    158       0.2516      1.00000
    159       0.2518      1.00000
    160       0.4943      0.99999
    161       1.7898      0.00000
    162       1.8125      0.00000
    163       1.8173      0.00000
    164       1.8474      0.00000
    165       1.8662      0.00000
    166       1.8664      0.00000
    167       1.8725      0.00000
    168       1.8787      0.00000
    169       3.8874      0.00000
    170       5.4117      0.00000
    171       5.4726      0.00000
    172       5.5470      0.00000
    173       5.8051      0.00000
    174       5.8109      0.00000
[...]
   24        1.736   4.329   0.000   6.064
   25        0.296   0.367   8.176   8.839
   26        0.296   0.367   8.176   8.839
   27        0.296   0.368   8.172   8.837
   28        0.296   0.368   8.172   8.837
   29        0.296   0.367   8.176   8.839
   30        0.296   0.367   8.176   8.839
   31        0.296   0.368   8.172   8.837
   32        0.296   0.368   8.172   8.837
   33        1.838   4.719   0.017   6.574
   34        1.838   4.719   0.017   6.574
   35        1.838   4.719   0.017   6.574
   36        1.838   4.719   0.017   6.574
   37        1.838   4.719   0.017   6.574
   38        1.838   4.719   0.017   6.574
   39        1.838   4.719   0.017   6.574
   40        1.838   4.719   0.017   6.574
--------------------------------------------------
tot         58.729 144.585  65.534 268.847
 


 magnetization (x)
 
# of ion       s       p       d       tot
------------------------------------------
    1       -0.000  -0.000   0.000  -0.000
    2        0.000   0.000   0.000   0.000
    3       -0.004  -0.101   0.000  -0.105
    4        0.004   0.101   0.000   0.105
    5        0.004   0.101   0.000   0.105
    6       -0.004  -0.101   0.000  -0.105
    7       -0.000  -0.000   0.000  -0.000
    8        0.000   0.000   0.000   0.000
    9       -0.004  -0.101   0.000  -0.105
   10        0.004   0.101   0.000   0.105
   11       -0.000  -0.000   0.000  -0.000
   12        0.000   0.000   0.000   0.000
   13        0.004   0.101   0.000   0.105
   14       -0.004  -0.101   0.000  -0.105
   15        0.000   0.000   0.000   0.000
   16       -0.000  -0.000   0.000  -0.000
   17        0.000   0.000   0.000   0.000
   18       -0.000  -0.000   0.000  -0.000
   19       -0.004  -0.101   0.000  -0.105
   20        0.004   0.101   0.000   0.105
   21        0.000   0.000   0.000   0.000
   22       -0.000  -0.000   0.000  -0.000
   23        0.004   0.101   0.000   0.105
   24       -0.004  -0.101   0.000  -0.105
   25        0.000  -0.001   1.644   1.642
   26       -0.000   0.001  -1.644  -1.642
   27        0.002   0.002   1.646   1.651
   28       -0.002  -0.002  -1.646  -1.651
   29        0.000  -0.001   1.644   1.642
   30       -0.000   0.001  -1.644  -1.642
   31       -0.002  -0.002  -1.646  -1.651
   32        0.002   0.002   1.646   1.651
   33        0.000  -0.000  -0.000  -0.000
   34       -0.000   0.000   0.000   0.000
   35       -0.000  -0.000  -0.000  -0.001
   36        0.000   0.000   0.000   0.001
   37        0.000   0.000   0.000   0.001
   38       -0.000  -0.000  -0.000  -0.001
   39       -0.000   0.000   0.000   0.000
   40        0.000  -0.000  -0.000  -0.000
--------------------------------------------------
tot         -0.000   0.000  -0.000  -0.000
 
    CHARGE:  cpu time    0.3053: real time    0.3053
    FORLOC:  cpu time    0.0027: real time    0.0027
    FORNL :  cpu time    1.0443: real time    1.0973
    STRESS:  cpu time    3.0562: real time    3.0762
    FORCOR:  cpu time    0.0708: real time    0.0708
    FORHAR:  cpu time    0.0110: real time    0.0110
    MIXING:  cpu time    0.0014: real time    0.0014
    OFIELD:  cpu time    0.0000: real time    0.0001

  FORCE on cell =-STRESS in cart. coord.  units (eV):
  Direction    XX          YY          ZZ          XY          YZ          ZX
  --------------------------------------------------------------------------------------
  Alpha Z  1278.33848  1278.33848  1278.33848
  Ewald   -7609.75632 -7610.00282  -791.44196    -0.20307    -0.00000     0.00000
  Hartree  2322.02767  2321.81290  8055.15115    -0.17837     0.00000    -0.00079
  E(xc)   -1677.17242 -1677.17352 -1675.10847    -0.00107     0.00000     0.00005
  Local     556.83900   557.28838-11901.46544     0.37352     0.00001     0.00140
  n-local -1126.77304 -1126.77363 -1112.90087     0.00005     0.00000     0.00055
  augment   750.30831   750.31093   727.73289     0.00241    -0.00000    -0.00029
  Kinetic  5506.33249  5506.34048  5419.57881     0.00328    -0.00002    -0.00023
  Fock        0.00000     0.00000     0.00000     0.00000     0.00000     0.00000
  -------------------------------------------------------------------------------------
  Total       0.14416     0.14119    -0.11540    -0.00324    -0.00001     0.00070
  in kB       0.30693     0.30061    -0.24569    -0.00689    -0.00002     0.00148
  external pressure =        0.12 kB  Pullay stress =        0.00 kB


 VOLUME and BASIS-vectors are now :
 -----------------------------------------------------------------------------
  energy-cutoff  :      520.00
  volume of cell :      752.52
      direct lattice vectors                 reciprocal lattice vectors
    12.775245568  0.000000000  0.000000000     0.078276382  0.045192789  0.000000000
    -6.387622784 11.063711963  0.000000000     0.000000000  0.090385578  0.000000000
     0.000000000  0.000000000  5.324128930     0.000000000  0.000000000  0.187824152

  length of vectors
    12.775245568 12.775267012  5.324128930     0.090385730  0.090385578  0.187824152


 FORCES acting on ions
    electron-ion (+dipol)            ewald-force                    non-local-force                 convergence-correction
 -----------------------------------------------------------------------------------------------
   0.425E-03 -.392E+03 -.182E-04   -.107E-02 0.408E+03 -.641E-08   0.660E-03 -.164E+02 0.553E-05   -.613E-05 -.648E-03 -.660E-05
   0.425E-03 -.392E+03 -.182E-04   -.107E-02 0.408E+03 -.641E-08   0.660E-03 -.164E+02 0.553E-05   -.613E-05 -.648E-03 -.660E-05
   0.426E-03 -.392E+03 0.648E-06   -.107E-02 0.408E+03 -.641E-08   0.658E-03 -.163E+02 0.211E-04   -.549E-05 0.172E-03 -.402E-04
   0.426E-03 -.392E+03 0.648E-06   -.107E-02 0.408E+03 -.641E-08   0.658E-03 -.163E+02 0.211E-04   -.549E-05 0.172E-03 -.402E-04
   0.339E+03 0.196E+03 0.588E-04   -.354E+03 -.204E+03 -.641E-08   0.142E+02 0.817E+01 -.543E-04   0.324E-03 -.884E-04 -.357E-04
   0.339E+03 0.196E+03 0.588E-04   -.354E+03 -.204E+03 -.642E-08   0.142E+02 0.817E+01 -.543E-04   0.324E-03 -.884E-04 -.357E-04
   0.339E+03 0.196E+03 -.500E-03   -.354E+03 -.204E+03 -.642E-08   0.142E+02 0.818E+01 0.424E-03   0.711E-04 0.344E-03 -.842E-05
   0.339E+03 0.196E+03 -.500E-03   -.354E+03 -.204E+03 -.642E-08   0.142E+02 0.818E+01 0.424E-03   0.711E-04 0.344E-03 -.842E-05
   -.339E+03 0.196E+03 0.838E-05   0.354E+03 -.204E+03 -.641E-08   -.142E+02 0.817E+01 0.902E-04   -.321E-03 -.994E-04 -.371E-04
   -.339E+03 0.196E+03 0.838E-05   0.354E+03 -.204E+03 -.641E-08   -.142E+02 0.817E+01 0.902E-04   -.321E-03 -.994E-04 -.371E-04
   -.339E+03 0.196E+03 0.531E-03   0.354E+03 -.204E+03 -.641E-08   -.142E+02 0.818E+01 -.415E-03   -.680E-04 0.333E-03 -.507E-05
   -.339E+03 0.196E+03 0.531E-03   0.354E+03 -.204E+03 -.641E-08   -.142E+02 0.818E+01 -.415E-03   -.680E-04 0.333E-03 -.507E-05
   -.426E-03 0.392E+03 -.826E-06   0.107E-02 -.408E+03 -.641E-08   -.658E-03 0.163E+02 -.211E-04   0.549E-05 -.172E-03 0.402E-04
   -.426E-03 0.392E+03 -.826E-06   0.107E-02 -.408E+03 -.641E-08   -.658E-03 0.163E+02 -.211E-04   0.549E-05 -.172E-03 0.402E-04
   -.425E-03 0.392E+03 0.181E-04   0.107E-02 -.408E+03 -.641E-08   -.660E-03 0.164E+02 -.553E-05   0.613E-05 0.648E-03 0.660E-05
   -.425E-03 0.392E+03 0.181E-04   0.107E-02 -.408E+03 -.641E-08   -.660E-03 0.164E+02 -.553E-05   0.613E-05 0.648E-03 0.660E-05
   -.339E+03 -.196E+03 0.500E-03   0.354E+03 0.204E+03 -.642E-08   -.142E+02 -.818E+01 -.424E-03   -.711E-04 -.344E-03 0.842E-05
   -.339E+03 -.196E+03 0.500E-03   0.354E+03 0.204E+03 -.642E-08   -.142E+02 -.818E+01 -.424E-03   -.711E-04 -.344E-03 0.842E-05
   -.339E+03 -.196E+03 -.590E-04   0.354E+03 0.204E+03 -.642E-08   -.142E+02 -.817E+01 0.543E-04   -.324E-03 0.884E-04 0.357E-04
   -.339E+03 -.196E+03 -.590E-04   0.354E+03 0.204E+03 -.642E-08   -.142E+02 -.817E+01 0.543E-04   -.324E-03 0.884E-04 0.357E-04
   0.339E+03 -.196E+03 -.531E-03   -.354E+03 0.204E+03 -.641E-08   0.142E+02 -.818E+01 0.415E-03   0.680E-04 -.333E-03 0.507E-05
   0.339E+03 -.196E+03 -.531E-03   -.354E+03 0.204E+03 -.641E-08   0.142E+02 -.818E+01 0.415E-03   0.680E-04 -.333E-03 0.507E-05
   0.339E+03 -.196E+03 -.856E-05   -.354E+03 0.204E+03 -.641E-08   0.142E+02 -.817E+01 -.902E-04   0.321E-03 0.994E-04 0.371E-04
   0.339E+03 -.196E+03 -.856E-05   -.354E+03 0.204E+03 -.641E-08   0.142E+02 -.817E+01 -.902E-04   0.321E-03 0.994E-04 0.371E-04
   -.462E-10 0.972E-09 -.322E-08   0.265E-09 -.724E-08 0.206E-07   -.827E-24 0.000E+00 0.000E+00   0.898E-12 0.229E-09 0.351E-11
   -.450E-10 0.972E-09 -.322E-08   0.265E-09 -.724E-08 0.206E-07   0.827E-24 0.000E+00 0.000E+00   0.785E-12 0.229E-09 0.351E-11
   -.159E-08 0.665E-08 -.224E-08   0.874E-08 0.171E-08 0.100E-07   0.165E-23 0.000E+00 0.000E+00   0.366E-11 -.207E-09 -.546E-11
   -.158E-08 0.666E-08 -.221E-08   0.874E-08 0.171E-08 0.100E-07   -.827E-24 0.000E+00 0.000E+00   0.324E-11 -.207E-09 -.547E-11
   -.467E-10 0.972E-09 -.368E-08   0.267E-09 -.724E-08 0.181E-07   -.165E-23 0.000E+00 0.000E+00   0.778E-12 0.229E-09 -.378E-11
   -.455E-10 0.972E-09 -.368E-08   0.267E-09 -.724E-08 0.181E-07   -.352E-23 0.000E+00 0.000E+00   0.710E-12 0.229E-09 -.387E-11
   -.159E-08 0.665E-08 -.470E-08   0.874E-08 0.171E-08 0.287E-07   0.310E-24 0.000E+00 0.000E+00   0.353E-11 -.207E-09 0.517E-11
   -.159E-08 0.666E-08 -.468E-08   0.874E-08 0.171E-08 0.287E-07   0.000E+00 0.000E+00 0.000E+00   0.317E-11 -.207E-09 0.511E-11
   -.767E-02 0.716E-02 -.514E-05   0.754E-02 -.538E-02 -.113E-09   0.148E-03 -.458E-03 -.201E-05   -.402E-05 -.512E-03 0.544E-05
   -.767E-02 0.716E-02 -.514E-05   0.754E-02 -.538E-02 -.113E-09   0.148E-03 -.458E-03 -.201E-05   -.402E-05 -.512E-03 0.544E-05
   -.767E-02 0.373E-02 -.390E-05   0.754E-02 -.538E-02 -.113E-09   0.148E-03 0.229E-03 -.115E-05   -.454E-05 0.542E-03 0.383E-05
   -.767E-02 0.373E-02 -.390E-05   0.754E-02 -.538E-02 -.113E-09   0.148E-03 0.229E-03 -.115E-05   -.454E-05 0.542E-03 0.383E-05
   0.767E-02 -.373E-02 0.384E-05   -.754E-02 0.538E-02 -.113E-09   -.148E-03 -.229E-03 0.115E-05   0.454E-05 -.542E-03 -.383E-05
   0.767E-02 -.373E-02 0.384E-05   -.754E-02 0.538E-02 -.113E-09   -.148E-03 -.229E-03 0.115E-05   0.454E-05 -.542E-03 -.383E-05
   0.767E-02 -.716E-02 0.508E-05   -.754E-02 0.538E-02 -.113E-09   -.148E-03 0.458E-03 0.201E-05   0.402E-05 0.512E-03 -.544E-05
   0.767E-02 -.716E-02 0.508E-05   -.754E-02 0.538E-02 -.113E-09   -.148E-03 0.458E-03 0.201E-05   0.402E-05 0.512E-03 -.544E-05
 -----------------------------------------------------------------------------------------------
   0.289E-07 0.200E-05 -.239E-05   0.541E-12 0.107E-12 -.791E-14   0.888E-14 0.142E-13 0.000E+00   0.232E-10 0.102E-09 0.334E-10
 
 
 POSITION                                       TOTAL-FORCE (eV/Angst)
 -----------------------------------------------------------------------------------
      3.19377      7.08259      1.33103         0.000006      0.012713     -0.000019
     -3.19385      7.08259      1.33103         0.000006      0.012713     -0.000019
      6.38758      1.55073      1.33103         0.000006      0.001779     -0.000018
     -0.00004      1.55073      1.33103         0.000006      0.001779     -0.000018
      5.04463     10.28838      1.33103        -0.001645     -0.000915     -0.000031
     -1.34299     10.28838      1.33103        -0.001645     -0.000915     -0.000031
      8.23844      4.75653      1.33103        -0.011085     -0.006295     -0.000084
      1.85082      4.75653      1.33103        -0.011085     -0.006295     -0.000084
      1.34300     10.28833      1.33103         0.001505     -0.000826      0.000062
     -5.04462     10.28833      1.33103         0.001505     -0.000826      0.000062
      4.53681      4.75647      1.33103         0.010943     -0.006205      0.000111
     -1.85081      4.75647      1.33103         0.010943     -0.006205      0.000111
      6.38767      9.51298      3.99310        -0.000006     -0.001779      0.000018
      0.00004      9.51298      3.99310        -0.000006     -0.001779      0.000018
      9.58148      3.98112      3.99310        -0.000006     -0.012713      0.000019
      3.19385      3.98112      3.99310        -0.000006     -0.012713      0.000019
      4.53680      6.30718      3.99310         0.011085      0.006295      0.000084
     -1.85082      6.30718      3.99310         0.011085      0.006295      0.000084
      7.73061      0.77533      3.99310         0.001645      0.000915      0.000031
      1.34299      0.77533      3.99310         0.001645      0.000915      0.000031
      8.23843      6.30724      3.99310        -0.010943      0.006205     -0.000111
      1.85081      6.30724      3.99310        -0.010943      0.006205     -0.000111
     11.43224      0.77538      3.99310        -0.001505      0.000826     -0.000062
      5.04462      0.77538      3.99310        -0.001505      0.000826     -0.000062
      0.00000      0.00000      0.00000         0.000000      0.000000     -0.000000
      6.38762      0.00000      0.00000         0.000000      0.000000     -0.000000
      9.58143      5.53186      0.00000         0.000000      0.000000     -0.000000
      3.19381      5.53186      0.00000         0.000000      0.000000     -0.000000
      0.00000      0.00000      2.66206         0.000000      0.000000     -0.000000
      6.38762      0.00000      2.66206         0.000000      0.000000     -0.000000
      9.58143      5.53186      2.66206         0.000000      0.000000     -0.000000
      3.19381      5.53186      2.66206         0.000000      0.000000     -0.000000
      3.19382      9.21975      3.99310         0.000023      0.000810     -0.000002
     -3.19380      9.21975      3.99310         0.000023      0.000810     -0.000002
      6.38763      3.68790      3.99310         0.000023     -0.000875     -0.000001
      0.00001      3.68790      3.99310         0.000023     -0.000875     -0.000001
      6.38761      7.37581      1.33103        -0.000023      0.000875      0.000001
     -0.00001      7.37581      1.33103        -0.000023      0.000875      0.000001
      9.58143      1.84396      1.33103        -0.000023     -0.000810      0.000002
      3.19380      1.84396      1.33103        -0.000023     -0.000810      0.000002
 -----------------------------------------------------------------------------------
    total drift:                                0.000000      0.000002     -0.000002


--------------------------------------------------------------------------------------------------------



  FREE ENERGIE OF THE ION-ELECTRON SYSTEM (eV)
  ---------------------------------------------------
  free  energy   TOTEN  =      -182.99118914 eV

  energy  without entropy=     -182.99118330  energy(sigma->0) =     -182.99118622
 


--------------------------------------------------------------------------------------------------------


    POTLOK:  cpu time    0.0935: real time    0.0935


--------------------------------------------------------------------------------------------------------


     LOOP+:  cpu time  190.6104: real time  193.6375
    4ORBIT:  cpu time    0.0000: real time    0.0000
 


 total charge     
 
# of ion       s       p       d       tot
------------------------------------------
    1        1.736   4.329   0.000   6.065
    2        1.736   4.329   0.000   6.065
    3        1.736   4.329   0.000   6.064
    4        1.736   4.329   0.000   6.064
    5        1.736   4.329   0.000   6.064
    6        1.736   4.329   0.000   6.064
    7        1.736   4.329   0.000   6.065
    8        1.736   4.329   0.000   6.065
    9        1.736   4.329   0.000   6.064
   10        1.736   4.329   0.000   6.064
   11        1.736   4.329   0.000   6.065
   12        1.736   4.329   0.000   6.065
   13        1.736   4.329   0.000   6.064
   14        1.736   4.329   0.000   6.064
   15        1.736   4.329   0.000   6.065
   16        1.736   4.329   0.000   6.065
   17        1.736   4.329   0.000   6.065
   18        1.736   4.329   0.000   6.065
   19        1.736   4.329   0.000   6.064
   20        1.736   4.329   0.000   6.064
   21        1.736   4.329   0.000   6.065
   22        1.736   4.329   0.000   6.065
   23        1.736   4.329   0.000   6.064
   24        1.736   4.329   0.000   6.064
   25        0.296   0.367   8.176   8.839
   26        0.296   0.367   8.176   8.839
   27        0.296   0.368   8.172   8.837
   28        0.296   0.368   8.172   8.837
   29        0.296   0.367   8.176   8.839
   30        0.296   0.367   8.176   8.839
   31        0.296   0.368   8.172   8.837
   32        0.296   0.368   8.172   8.837
   33        1.838   4.719   0.017   6.574
   34        1.838   4.719   0.017   6.574
   35        1.838   4.719   0.017   6.574
   36        1.838   4.719   0.017   6.574
   37        1.838   4.719   0.017   6.574
   38        1.838   4.719   0.017   6.574
   39        1.838   4.719   0.017   6.574
   40        1.838   4.719   0.017   6.574
--------------------------------------------------
tot         58.729 144.585  65.534 268.847
 


 magnetization (x)
 
# of ion       s       p       d       tot
------------------------------------------
    1       -0.000  -0.000   0.000  -0.000
    2        0.000   0.000   0.000   0.000
    3       -0.004  -0.101   0.000  -0.105
    4        0.004   0.101   0.000   0.105
    5        0.004   0.101   0.000   0.105
    6       -0.004  -0.101   0.000  -0.105
    7       -0.000  -0.000   0.000  -0.000
    8        0.000   0.000   0.000   0.000
    9       -0.004  -0.101   0.000  -0.105
   10        0.004   0.101   0.000   0.105
   11       -0.000  -0.000   0.000  -0.000
   12        0.000   0.000   0.000   0.000
   13        0.004   0.101   0.000   0.105
   14       -0.004  -0.101   0.000  -0.105
   15        0.000   0.000   0.000   0.000
   16       -0.000  -0.000   0.000  -0.000
   17        0.000   0.000   0.000   0.000
   18       -0.000  -0.000   0.000  -0.000
   19       -0.004  -0.101   0.000  -0.105
   20        0.004   0.101   0.000   0.105
   21        0.000   0.000   0.000   0.000
   22       -0.000  -0.000   0.000  -0.000
   23        0.004   0.101   0.000   0.105
   24       -0.004  -0.101   0.000  -0.105
   25        0.000  -0.001   1.644   1.642
   26       -0.000   0.001  -1.644  -1.642
   27        0.002   0.002   1.646   1.651
   28       -0.002  -0.002  -1.646  -1.651
   29        0.000  -0.001   1.644   1.642
   30       -0.000   0.001  -1.644  -1.642
   31       -0.002  -0.002  -1.646  -1.651
   32        0.002   0.002   1.646   1.651
   33        0.000  -0.000  -0.000  -0.000
   34       -0.000   0.000   0.000   0.000
   35       -0.000  -0.000  -0.000  -0.001
   36        0.000   0.000   0.000   0.001
   37        0.000   0.000   0.000   0.001
   38       -0.000  -0.000  -0.000  -0.001
   39       -0.000   0.000   0.000   0.000
   40        0.000  -0.000  -0.000  -0.000
--------------------------------------------------
tot         -0.000   0.000  -0.000  -0.000
 

 total amount of memory used by VASP MPI-rank0    57405. kBytes
=======================================================================

   base      :      30000. kBytes
   nonlr-proj:       7318. kBytes
   fftplans  :       1046. kBytes
   grid      :       2759. kBytes
   one-center:         62. kBytes
   wavefun   :      16220. kBytes
 
  
  
 General timing and accounting informations for this job:
 ========================================================
  
                  Total CPU time used (sec):      203.121
                            User time (sec):      199.106
                          System time (sec):        4.015
                         Elapsed time (sec):      209.529
  
                   Maximum memory used (kb):      141132.
                   Average memory used (kb):           0.
  
                          Minor page faults:        60663
                          Major page faults:           16
                 Voluntary context switches:         3568
