   36   36    1    2
  0.1314651E+02  0.8250148E-09  0.8250148E-09  0.6953274E-09  0.2000000E-15
  1.000000000000000E-004
  CAR 
 AlMn_pv                                 
    180     52    116
 
  0.0000000E+00  0.0000000E+00  0.0000000E+00  0.6666667E-02
    1       -2.522408     -2.511725   1.000000   1.000000
    2       -0.356515     -0.373275   1.000000   1.000000
    3       -0.348841     -0.345776   1.000000   1.000000
    4       -0.334713     -0.305717   1.000000   1.000000
    5       -0.320961     -0.285165   1.000000   1.000000
    6       -0.106688     -0.120376   1.000000   1.000000
    7        1.356626      1.383938   1.000000   1.000000
    8        1.358045      1.396764   1.000000   1.000000
    9        1.372455      1.411487   1.000000   1.000000
   10        1.398410      1.420612   1.000000   1.000000
   11        1.421231      1.433798   1.000000   1.000000
   12        1.522276      1.544396   1.000000   1.000000
   13        1.565221      1.594322   1.000000   1.000000
   14        1.591967      1.622749   1.000000   1.000000
   15        1.637798      1.671562   1.000000   1.000000
   16        2.673374      2.716496   1.000000   1.000000
   17        2.738574      2.797666   1.000000   1.000000
   18        2.782017      2.848293   1.000000   1.000000
   19        2.846233      2.935334   1.000000   1.000000
   20        3.460863      3.462540   1.000000   1.000000
   21        3.472527      3.544718   1.000000   1.000000
   22        3.542363      3.617459   1.000000   1.000000
   23        3.574792      3.664709   1.000000   1.000000
   24        4.035417      4.077644   1.000000   1.000000
   25        4.150998      4.263043   1.000000   1.000000
   26        4.267643      4.408009   1.000000   1.000000
   27        4.446277      4.541031   1.000000   1.000000
   28        4.502700      4.561928   1.000000   1.000000
   29        4.527267      4.634712   1.000000   1.000000
   30        4.535221      4.650106   1.000000   1.000000
   31        4.570069      4.656102   1.000000   1.000000
   32        4.581125      4.665321   1.000000   1.000000
   33        4.601015      4.746361   1.000000   1.000000
   34        4.717942      4.801695   1.000000   1.000000
   35        4.755534      4.910517   1.000000   1.000000
   36        4.791627      4.948620   1.000000   1.000000
   37        4.796777      5.027752   1.000000   1.000000
   38        4.908641      5.153477   1.000000   1.000000
   39        4.963978      5.158975   1.000000   1.000000
   40        5.175844      5.318846   1.000000   1.000000
   41        5.219504      5.342768   1.000000   1.000000
   42        5.282255      5.374698   1.000000   1.000000
   43        5.327033      5.471152   1.000000   1.000000
   44        5.340145      5.482214   1.000000   1.000000
   45        5.358390      5.513031   1.000000   1.000000
   46        5.380401      5.540349   1.000000   1.000000
   47        5.437778      5.564647   1.000000   1.000000
   48        5.460252      5.591343   1.000000   1.000000
   49        5.488916      5.656232   1.000000   1.000000
   50        5.553363      5.665950   1.000000   1.000000
   51        5.563753      5.710947   1.000000   1.000000
   52        5.583830      5.719852   1.000000   1.000000
   53        5.600034      5.736716   1.000000   1.000000
   54        5.681001      5.894235   1.000000   1.000000
   55        5.716801      5.960221   1.000000   1.000000
   56        5.759798      6.071617   1.000000   1.000000
   57        5.803977      6.205120   1.000000   1.000000
   58        5.871033      6.290275   1.000000   1.000000
   59        5.917853      6.343883   1.000000   1.000000
   60        5.931869      6.363731   1.000000   1.000000
   61        6.034129      6.472737   1.000000   1.000000
   62        6.094025      6.483320   1.000000   1.000000
   63        6.215761      6.487808   1.000000   1.000000
   64        6.305834      6.525680   1.000000   1.000000
   65        6.373189      6.534269   1.000000   1.000000
   66        6.394177      6.569461   1.000000   1.000000
   67        6.397482      6.609638   1.000000   1.000000
   68        6.431658      6.627759   1.000000   1.000000
   69        6.443047      6.699349   1.000000   1.000000
   70        6.474159      6.733169   1.000000   1.000000
   71        6.509615      6.752254   1.000000   1.000000
   72        6.551261      6.840728   1.000000   1.000000
   73        6.572014      6.859121   1.000000   1.000000
   74        6.633095      6.896053   1.000000   1.000000
   75        6.648957      6.953924   1.000000   1.000000
   76        6.687559      7.148137   1.000000   1.000204
   77        6.689119      7.181000   1.000000   1.000470
   78        6.715269      7.283578   1.000000   1.004297
   79        6.730550      7.315126   1.000000   1.007466
   80        6.791809      7.318252   1.000000   1.007856
   81        6.823660      7.406105   1.000000   1.024625
   82        6.877667      7.507409   1.000000   1.030276
   83        6.982943      7.615594   1.000001   0.880117
   84        7.045609      7.618347   1.000010   0.872472
   85        7.161818      7.755298   1.000291   0.350644
   86        7.184583      7.765372   1.000514   0.310266
   87        7.238995      7.827278   1.001775   0.108811
   88        7.349492      7.862585   1.012612   0.034434
   89        7.358840      7.958900   1.014332  -0.035346
   90        7.362755      8.038137   1.015099  -0.023343
   91        7.385885      8.136094   1.019997  -0.006051
   92        7.551634      8.173714   0.999283  -0.003013
   93        7.634252      8.255260   0.826584  -0.000500
   94        7.703482      8.323373   0.566746  -0.000083
   95        7.734239      8.324197   0.436953  -0.000082
   96        7.862208      8.394326   0.035164  -0.000010
   97        7.957010      8.407349  -0.035244  -0.000006
   98        7.964104      8.481607  -0.035458  -0.000000
   99        8.030688      8.625539  -0.025053  -0.000000
  100        8.129011      8.628878  -0.006805  -0.000000
  101        8.171571      8.662789  -0.003144  -0.000000
  102        8.172182      8.723031  -0.003105  -0.000000
  103        8.367247      8.802678  -0.000023  -0.000000
  104        8.384084      8.847561  -0.000014  -0.000000
  105        8.453341      8.851425  -0.000001  -0.000000
  106        8.544473      8.884013  -0.000000  -0.000000
  107        8.578919      8.914234  -0.000000  -0.000000
  108        8.708019      8.926344  -0.000000  -0.000000
  109        8.708312      8.949506  -0.000000  -0.000000
  110        8.800712      8.956155  -0.000000  -0.000000
  111        8.814577      8.975590  -0.000000  -0.000000
  112        8.837153      9.028509  -0.000000  -0.000000
  113        8.886201      9.043038  -0.000000  -0.000000
  114        8.909639      9.107814  -0.000000  -0.000000
  115        9.123711      9.117195  -0.000000  -0.000000
  116        9.220584      9.198549  -0.000000  -0.000000
 
  0.2000000E+00  0.0000000E+00  0.0000000E+00  0.1333333E-01
    1       -2.431839     -2.421231   1.000000   1.000000
    2       -1.105987     -1.095289   1.000000   1.000000
    3       -0.259301     -0.255161   1.000000   1.000000
    4       -0.256064     -0.234537   1.000000   1.000000
    5       -0.041455     -0.054134   1.000000   1.000000
    6        0.561399      0.577027   1.000000   1.000000
    7        0.887067      0.893222   1.000000   1.000000
    8        0.923903      0.939534   1.000000   1.000000
    9        0.929600      0.955946   1.000000   1.000000
   10        1.434388      1.459065   1.000000   1.000000
   11        1.453173      1.483556   1.000000   1.000000
   12        1.462829      1.507116   1.000000   1.000000
   13        1.903807      1.948814   1.000000   1.000000
   14        2.285549      2.334202   1.000000   1.000000
   15        2.300811      2.348397   1.000000   1.000000
   16        2.308068      2.350464   1.000000   1.000000
   17        2.328542      2.371245   1.000000   1.000000
   18        2.793119      2.845984   1.000000   1.000000
   19        3.206489      3.285142   1.000000   1.000000
   20        3.221580      3.320297   1.000000   1.000000
   21        3.566594      3.610936   1.000000   1.000000
   22        3.587770      3.658878   1.000000   1.000000
   23        3.717203      3.760307   1.000000   1.000000
   24        4.014832      4.061748   1.000000   1.000000
   25        4.111074      4.216429   1.000000   1.000000
   26        4.232416      4.343978   1.000000   1.000000
   27        4.281486      4.374200   1.000000   1.000000
   28        4.389084      4.530326   1.000000   1.000000
   29        4.438019      4.581440   1.000000   1.000000
   30        4.482863      4.584024   1.000000   1.000000
   31        4.539251      4.617242   1.000000   1.000000
   32        4.547020      4.673487   1.000000   1.000000
   33        4.581408      4.700068   1.000000   1.000000
   34        4.619271      4.757761   1.000000   1.000000
   35        4.751804      4.895357   1.000000   1.000000
   36        4.855192      4.946554   1.000000   1.000000
   37        4.926042      5.087931   1.000000   1.000000
   38        4.989152      5.148265   1.000000   1.000000
   39        5.001058      5.154620   1.000000   1.000000
   40        5.049682      5.218029   1.000000   1.000000
   41        5.112170      5.299040   1.000000   1.000000
   42        5.226296      5.344481   1.000000   1.000000
   43        5.268625      5.387288   1.000000   1.000000
   44        5.309508      5.422363   1.000000   1.000000
   45        5.362338      5.482638   1.000000   1.000000
   46        5.373563      5.542903   1.000000   1.000000
   47        5.442658      5.574768   1.000000   1.000000
   48        5.481235      5.615290   1.000000   1.000000
   49        5.526953      5.663179   1.000000   1.000000
   50        5.544747      5.667803   1.000000   1.000000
   51        5.585141      5.712576   1.000000   1.000000
   52        5.642477      5.725188   1.000000   1.000000
   53        5.664276      5.894631   1.000000   1.000000
   54        5.695501      5.958787   1.000000   1.000000
   55        5.774054      5.992914   1.000000   1.000000
   56        5.806454      6.124633   1.000000   1.000000
   57        5.829698      6.194102   1.000000   1.000000
   58        5.884764      6.244509   1.000000   1.000000
   59        5.915373      6.283249   1.000000   1.000000
   60        5.921883      6.345927   1.000000   1.000000
   61        6.010511      6.392337   1.000000   1.000000
   62        6.131400      6.432764   1.000000   1.000000
   63        6.184502      6.436040   1.000000   1.000000
   64        6.269587      6.486184   1.000000   1.000000
   65        6.324094      6.498897   1.000000   1.000000
   66        6.357204      6.563367   1.000000   1.000000
   67        6.381206      6.639715   1.000000   1.000000
   68        6.413434      6.665381   1.000000   1.000000
   69        6.420370      6.681316   1.000000   1.000000
   70        6.478707      6.721493   1.000000   1.000000
   71        6.489464      6.780608   1.000000   1.000000
   72        6.542464      6.824015   1.000000   1.000000
   73        6.590426      6.870206   1.000000   1.000000
   74        6.597792      6.945117   1.000000   1.000000
   75        6.649698      7.006906   1.000000   1.000003
   76        6.662316      7.198540   1.000000   1.000717
   77        6.691205      7.209126   1.000000   1.000919
   78        6.726246      7.250107   1.000000   1.002237
   79        6.737700      7.287243   1.000000   1.004599
   80        6.762103      7.366721   1.000000   1.015887
   81        6.806659      7.380575   1.000000   1.018813
   82        6.869889      7.501139   1.000000   1.032183
   83        6.895200      7.520044   1.000000   1.024764
   84        6.937428      7.603370   1.000000   0.910511
   85        7.052392      7.678823   1.000013   0.667504
   86        7.144619      7.760353   1.000186   0.330048
   87        7.155062      7.842349   1.000245   0.073348
   88        7.253653      7.857370   1.002407   0.043406
   89        7.363078      8.024761   1.015153  -0.026420
   90        7.428399      8.058170   1.029609  -0.018796
   91        7.518632      8.082933   1.025489  -0.013757
   92        7.610102      8.166177   0.894459  -0.003495
   93        7.653320      8.250696   0.763211  -0.000557
   94        7.751980      8.291761   0.363741  -0.000197
   95        7.776467      8.307291   0.268736  -0.000131
   96        7.913456      8.368759  -0.021807  -0.000022
   97        7.958146      8.374574  -0.035309  -0.000018
   98        7.983614      8.467598  -0.034195  -0.000001
   99        8.035703      8.486026  -0.023897  -0.000000
  100        8.082388      8.634100  -0.013843  -0.000000
  101        8.095101      8.689784  -0.011582  -0.000000
  102        8.201254      8.726284  -0.001718  -0.000000
  103        8.372011      8.773004  -0.000020  -0.000000
  104        8.414442      8.843972  -0.000005  -0.000000
  105        8.424540      8.927256  -0.000004  -0.000000
  106        8.489720      8.928520  -0.000000  -0.000000
  107        8.619883      8.948910  -0.000000  -0.000000
  108        8.648135      8.976597  -0.000000  -0.000000
  109        8.754635      9.024170  -0.000000  -0.000000
  110        8.862126      9.048392  -0.000000  -0.000000
  111        8.895438      9.099571  -0.000000  -0.000000
  112        8.949931      9.103958  -0.000000  -0.000000
  113        9.052428      9.113765  -0.000000  -0.000000
  114        9.120432      9.169488  -0.000000  -0.000000
  115        9.158900      9.250008  -0.000000  -0.000000
  116        9.206535      9.330686  -0.000000  -0.000000
 
  0.4000000E+00  0.0000000E+00  0.0000000E+00  0.1333333E-01
    1       -2.161778     -2.151574   1.000000   1.000000
    2       -1.716971     -1.705815   1.000000   1.000000
    3       -0.014764     -0.010430   1.000000   1.000000
    4       -0.011734      0.009970   1.000000   1.000000
    5        0.151769      0.142395   1.000000   1.000000
    6        0.386816      0.396887   1.000000   1.000000
    7        0.390281      0.413641   1.000000   1.000000
    8        0.466946      0.462998   1.000000   1.000000
    9        1.572258      1.597618   1.000000   1.000000
   10        1.613793      1.637448   1.000000   1.000000
   11        1.640400      1.666142   1.000000   1.000000
   12        1.733532      1.784044   1.000000   1.000000
   13        1.916607      1.959866   1.000000   1.000000
   14        1.944425      1.975536   1.000000   1.000000
   15        2.190210      2.247311   1.000000   1.000000
   16        2.306825      2.383141   1.000000   1.000000
   17        2.670226      2.693125   1.000000   1.000000
   18        2.912084      2.988806   1.000000   1.000000
   19        2.965662      3.032661   1.000000   1.000000
   20        3.541907      3.640755   1.000000   1.000000
   21        3.593493      3.717453   1.000000   1.000000
   22        3.725070      3.767602   1.000000   1.000000
   23        3.750244      3.807238   1.000000   1.000000
   24        3.928512      3.997555   1.000000   1.000000
   25        4.006538      4.093886   1.000000   1.000000
   26        4.083319      4.160440   1.000000   1.000000
   27        4.108677      4.212175   1.000000   1.000000
   28        4.261832      4.401470   1.000000   1.000000
   29        4.291763      4.438635   1.000000   1.000000
   30        4.354871      4.483566   1.000000   1.000000
   31        4.373642      4.554821   1.000000   1.000000
   32        4.544416      4.578190   1.000000   1.000000
   33        4.611026      4.662753   1.000000   1.000000
   34        4.663826      4.759807   1.000000   1.000000
   35        4.757906      4.864763   1.000000   1.000000
   36        4.895405      4.989882   1.000000   1.000000
   37        4.921999      5.069060   1.000000   1.000000
   38        4.964473      5.130963   1.000000   1.000000
   39        5.042291      5.159961   1.000000   1.000000
   40        5.125060      5.254533   1.000000   1.000000
   41        5.138386      5.317748   1.000000   1.000000
   42        5.197636      5.325408   1.000000   1.000000
   43        5.237163      5.382041   1.000000   1.000000
   44        5.301293      5.423662   1.000000   1.000000
   45        5.381317      5.480992   1.000000   1.000000
   46        5.386010      5.548721   1.000000   1.000000
   47        5.444444      5.567841   1.000000   1.000000
   48        5.477681      5.620403   1.000000   1.000000
   49        5.530896      5.648430   1.000000   1.000000
   50        5.553474      5.650105   1.000000   1.000000
   51        5.590334      5.674712   1.000000   1.000000
   52        5.656420      5.732531   1.000000   1.000000
   53        5.686826      5.919596   1.000000   1.000000
   54        5.691957      5.939299   1.000000   1.000000
   55        5.714395      6.104132   1.000000   1.000000
   56        5.763200      6.104427   1.000000   1.000000
   57        5.832881      6.150938   1.000000   1.000000
   58        5.891925      6.189865   1.000000   1.000000
   59        5.903038      6.258945   1.000000   1.000000
   60        5.983007      6.264498   1.000000   1.000000
   61        6.114219      6.315619   1.000000   1.000000
   62        6.156709      6.339634   1.000000   1.000000
   63        6.206424      6.426627   1.000000   1.000000
   64        6.216955      6.435273   1.000000   1.000000
   65        6.218105      6.489751   1.000000   1.000000
   66        6.267980      6.553810   1.000000   1.000000
   67        6.298365      6.613927   1.000000   1.000000
   68        6.401551      6.668924   1.000000   1.000000
   69        6.420434      6.713542   1.000000   1.000000
   70        6.438827      6.722450   1.000000   1.000000
   71        6.477476      6.785589   1.000000   1.000000
   72        6.479276      6.884891   1.000000   1.000000
   73        6.540271      6.979389   1.000000   1.000001
   74        6.602376      6.993747   1.000000   1.000002
   75        6.611799      7.065193   1.000000   1.000019
   76        6.648488      7.166281   1.000000   1.000327
   77        6.693237      7.194222   1.000000   1.000648
   78        6.703119      7.209218   1.000000   1.000920
   79        6.736482      7.244762   1.000000   1.002002
   80        6.779771      7.306291   1.000000   1.006433
   81        6.838959      7.390761   1.000000   1.021081
   82        6.868971      7.479698   1.000000   1.035344
   83        6.888708      7.524976   1.000000   1.021974
   84        6.904857      7.636920   1.000000   0.817903
   85        6.994931      7.665371   1.000002   0.719432
   86        7.034117      7.769162   1.000007   0.296213
   87        7.151439      7.844625   1.000222   0.068169
   88        7.163177      7.923589   1.000302  -0.027181
   89        7.290468      8.005633   1.004877  -0.030564
   90        7.494127      8.050309   1.033742  -0.020544
   91        7.553304      8.059081   0.997401  -0.018599
   92        7.583787      8.130975   0.951915  -0.006601
   93        7.729552      8.186406   0.456857  -0.002338
   94        7.750064      8.211543   0.371428  -0.001376
   95        7.838364      8.250805   0.082156  -0.000556
   96        7.851007      8.316376   0.055570  -0.000101
   97        7.886227      8.384353   0.001676  -0.000014
   98        7.959688      8.400577  -0.035373  -0.000008
   99        7.981020      8.487598  -0.034490  -0.000000
  100        8.068315      8.562129  -0.016623  -0.000000
  101        8.132384      8.569365  -0.006435  -0.000000
  102        8.226969      8.676153  -0.000974  -0.000000
  103        8.366905      8.687105  -0.000023  -0.000000
  104        8.397657      8.829677  -0.000009  -0.000000
  105        8.437594      8.917949  -0.000002  -0.000000
  106        8.447493      8.930850  -0.000002  -0.000000
  107        8.538399      8.946596  -0.000000  -0.000000
  108        8.636494      9.095979  -0.000000  -0.000000
  109        8.791994      9.105920  -0.000000  -0.000000
  110        8.989767      9.118570  -0.000000  -0.000000
  111        9.043605      9.148538  -0.000000  -0.000000
  112        9.074993      9.165593  -0.000000  -0.000000
  113        9.105845      9.193686  -0.000000  -0.000000
  114        9.124566      9.227289  -0.000000  -0.000000
  115        9.155539      9.470062  -0.000000  -0.000000
  116        9.344039      9.694571  -0.000000  -0.000000
 
  0.0000000E+00  0.2000000E+00  0.0000000E+00  0.1333333E-01
    1       -2.431835     -2.421198   1.000000   1.000000
    2       -1.105925     -1.095438   1.000000   1.000000
    3       -0.268759     -0.262349   1.000000   1.000000
    4       -0.246554     -0.226879   1.000000   1.000000
    5       -0.041438     -0.054088   1.000000   1.000000
    6        0.561134      0.576902   1.000000   1.000000
    7        0.886778      0.893830   1.000000   1.000000
    8        0.920211      0.937657   1.000000   1.000000
    9        0.933451      0.957505   1.000000   1.000000
   10        1.426683      1.446950   1.000000   1.000000
   11        1.453213      1.495503   1.000000   1.000000
   12        1.472272      1.507491   1.000000   1.000000
   13        1.902039      1.947762   1.000000   1.000000
   14        2.283639      2.326978   1.000000   1.000000
   15        2.300047      2.344035   1.000000   1.000000
   16        2.309798      2.355650   1.000000   1.000000
   17        2.329626      2.376436   1.000000   1.000000
   18        2.793206      2.843672   1.000000   1.000000
   19        3.195858      3.270211   1.000000   1.000000
   20        3.232047      3.340435   1.000000   1.000000
   21        3.548855      3.595930   1.000000   1.000000
   22        3.606134      3.681806   1.000000   1.000000
   23        3.718227      3.761850   1.000000   1.000000
   24        4.016647      4.060310   1.000000   1.000000
   25        4.116110      4.212533   1.000000   1.000000
   26        4.221399      4.347794   1.000000   1.000000
   27        4.281670      4.372852   1.000000   1.000000
   28        4.386110      4.531468   1.000000   1.000000
   29        4.452554      4.563578   1.000000   1.000000
   30        4.479787      4.587956   1.000000   1.000000
   31        4.515178      4.629107   1.000000   1.000000
   32        4.558009      4.675193   1.000000   1.000000
   33        4.580715      4.677983   1.000000   1.000000
   34        4.630573      4.766422   1.000000   1.000000
   35        4.761935      4.930821   1.000000   1.000000
   36        4.850794      4.980872   1.000000   1.000000
   37        4.911669      5.085813   1.000000   1.000000
   38        4.990048      5.119493   1.000000   1.000000
   39        5.020738      5.142485   1.000000   1.000000
   40        5.065212      5.181893   1.000000   1.000000
   41        5.093372      5.265114   1.000000   1.000000
   42        5.239625      5.324519   1.000000   1.000000
   43        5.241281      5.426009   1.000000   1.000000
   44        5.310664      5.476046   1.000000   1.000000
   45        5.354950      5.500287   1.000000   1.000000
   46        5.378374      5.501467   1.000000   1.000000
   47        5.450926      5.555466   1.000000   1.000000
   48        5.457843      5.619656   1.000000   1.000000
   49        5.514789      5.637865   1.000000   1.000000
   50        5.552840      5.670227   1.000000   1.000000
   51        5.598079      5.696411   1.000000   1.000000
   52        5.633776      5.717008   1.000000   1.000000
   53        5.645110      5.904987   1.000000   1.000000
   54        5.690350      5.967951   1.000000   1.000000
   55        5.762718      6.006628   1.000000   1.000000
   56        5.813474      6.103895   1.000000   1.000000
   57        5.826356      6.217776   1.000000   1.000000
   58        5.886387      6.239452   1.000000   1.000000
   59        5.921016      6.301173   1.000000   1.000000
   60        6.005345      6.365534   1.000000   1.000000
   61        6.032447      6.390262   1.000000   1.000000
   62        6.100465      6.416389   1.000000   1.000000
   63        6.173855      6.482146   1.000000   1.000000
   64        6.261963      6.509119   1.000000   1.000000
   65        6.322611      6.519215   1.000000   1.000000
   66        6.341896      6.568283   1.000000   1.000000
   67        6.398578      6.596424   1.000000   1.000000
   68        6.402861      6.656422   1.000000   1.000000
   69        6.425555      6.704593   1.000000   1.000000
   70        6.481024      6.753206   1.000000   1.000000
   71        6.486068      6.768148   1.000000   1.000000
   72        6.532192      6.786443   1.000000   1.000000
   73        6.596123      6.885656   1.000000   1.000000
   74        6.603833      6.918017   1.000000   1.000000
   75        6.654725      6.985389   1.000000   1.000001
   76        6.664082      7.161299   1.000000   1.000287
   77        6.683200      7.202304   1.000000   1.000784
   78        6.730237      7.246445   1.000000   1.002076
   79        6.738987      7.268292   1.000000   1.003219
   80        6.771962      7.343589   1.000000   1.011591
   81        6.790754      7.445695   1.000000   1.032872
   82        6.848535      7.505927   1.000000   1.030762
   83        6.908674      7.562612   1.000000   0.985791
   84        6.932805      7.643325   1.000000   0.797006
   85        7.053744      7.660860   1.000013   0.736108
   86        7.146522      7.753538   1.000195   0.357152
   87        7.159206      7.851378   1.000272   0.054737
   88        7.292630      7.876217   1.005072   0.013936
   89        7.321686      7.959925   1.008301  -0.035383
   90        7.431832      8.026974   1.030318  -0.025910
   91        7.463059      8.064510   1.035001  -0.017424
   92        7.628148      8.174962   0.845029  -0.002942
   93        7.664405      8.228250   0.723320  -0.000948
   94        7.703390      8.280338   0.567224  -0.000267
   95        7.751969      8.299082   0.363688  -0.000163
   96        7.944507      8.360972  -0.033742  -0.000028
   97        7.946959      8.386118  -0.034161  -0.000013
   98        8.039131      8.473196  -0.023101  -0.000001
   99        8.041964      8.610258  -0.022447  -0.000000
  100        8.146931      8.642751  -0.004989  -0.000000
  101        8.148423      8.675173  -0.004849  -0.000000
  102        8.235490      8.698017  -0.000801  -0.000000
  103        8.288999      8.816213  -0.000213  -0.000000
  104        8.409413      8.875085  -0.000006  -0.000000
  105        8.413762      8.883704  -0.000005  -0.000000
  106        8.490712      8.914892  -0.000000  -0.000000
  107        8.594548      8.947426  -0.000000  -0.000000
  108        8.649048      8.970912  -0.000000  -0.000000
  109        8.746490      9.026458  -0.000000  -0.000000
  110        8.842952      9.035887  -0.000000  -0.000000
  111        8.894554      9.095480  -0.000000  -0.000000
  112        8.963816      9.099298  -0.000000  -0.000000
  113        9.054397      9.120614  -0.000000  -0.000000
  114        9.096515      9.158367  -0.000000  -0.000000
  115        9.172487      9.217653  -0.000000  -0.000000
  116        9.206978      9.326628  -0.000000  -0.000000
 
  0.2000000E+00  0.2000000E+00  0.0000000E+00  0.1333333E-01
    1       -2.341546     -2.331009   1.000000   1.000000
    2       -1.022801     -1.017870   1.000000   1.000000
    3       -1.017598     -1.000179   1.000000   1.000000
    4        0.023604      0.012031   1.000000   1.000000
    5        0.222003      0.237933   1.000000   1.000000
    6        0.638875      0.649731   1.000000   1.000000
    7        0.643546      0.665505   1.000000   1.000000
    8        0.943705      0.953922   1.000000   1.000000
    9        0.957046      0.961160   1.000000   1.000000
   10        1.547116      1.600501   1.000000   1.000000
   11        1.722146      1.749984   1.000000   1.000000
   12        1.748728      1.778312   1.000000   1.000000
   13        1.838580      1.864761   1.000000   1.000000
   14        1.964392      2.012535   1.000000   1.000000
   15        1.972592      2.020078   1.000000   1.000000
   16        2.783467      2.851981   1.000000   1.000000
   17        2.821124      2.895191   1.000000   1.000000
   18        2.838970      2.901498   1.000000   1.000000
   19        2.863901      2.914673   1.000000   1.000000
   20        2.884754      2.953988   1.000000   1.000000
   21        3.612507      3.726320   1.000000   1.000000
   22        3.755453      3.801898   1.000000   1.000000
   23        3.767225      3.820308   1.000000   1.000000
   24        3.785930      3.840811   1.000000   1.000000
   25        4.125341      4.256377   1.000000   1.000000
   26        4.275692      4.359938   1.000000   1.000000
   27        4.297755      4.377466   1.000000   1.000000
   28        4.322760      4.417835   1.000000   1.000000
   29        4.348531      4.466694   1.000000   1.000000
   30        4.381974      4.504293   1.000000   1.000000
   31        4.406811      4.511476   1.000000   1.000000
   32        4.474289      4.573359   1.000000   1.000000
   33        4.559578      4.711591   1.000000   1.000000
   34        4.629336      4.768616   1.000000   1.000000
   35        4.692908      4.824860   1.000000   1.000000
   36        4.821394      5.001082   1.000000   1.000000
   37        4.907401      5.023719   1.000000   1.000000
   38        4.928594      5.041637   1.000000   1.000000
   39        5.034597      5.140662   1.000000   1.000000
   40        5.078895      5.219307   1.000000   1.000000
   41        5.228299      5.306679   1.000000   1.000000
   42        5.244582      5.332928   1.000000   1.000000
   43        5.279057      5.362117   1.000000   1.000000
   44        5.302585      5.448554   1.000000   1.000000