       N       E                     dE             d eps       ncg     rms          ort
DAV:   1     0.133942175336E+04    0.13394E+04   -0.59225E+04  6032   0.139E+03
DAV:   2    -0.721483783509E+02   -0.14116E+04   -0.13718E+04  6032   0.423E+02
DAV:   3    -0.241489265917E+03   -0.16934E+03   -0.14956E+03  6032   0.160E+02
DAV:   4    -0.267218657800E+03   -0.25729E+02   -0.22662E+02  6032   0.688E+01
DAV:   5    -0.269686243973E+03   -0.24676E+01   -0.23527E+01  6032   0.200E+01
DAV:   6    -0.269882460885E+03   -0.19622E+00   -0.19231E+00  6032   0.530E+00
DAV:   7    -0.269903161021E+03   -0.20700E-01   -0.20516E-01  6032   0.149E+00
DAV:   8    -0.269904746421E+03   -0.15854E-02   -0.15770E-02  6032   0.395E-01
SDA:   9    -0.641923864849E+02    0.20571E+03   -0.15770E-02  6032   0.226E+04 0.000E+00
CGA:  10    -0.209956615759E+03   -0.14576E+03   -0.14736E+03  6032   0.102E+03 0.308E+03
CGA:  11    -0.218695871248E+03   -0.87393E+01   -0.86853E+01  6032   0.661E+02 0.120E+01
CGA:  12    -0.227105001000E+03   -0.84091E+01   -0.83820E+01  6032   0.905E+02-0.224E-01
CGA:  13    -0.233472654772E+03   -0.63677E+01   -0.64934E+01  6032   0.122E+02-0.151E+00
CGA:  14    -0.234305054064E+03   -0.83240E+00   -0.84346E+00  6032   0.606E+01-0.871E-01
CGA:  15    -0.234980261851E+03   -0.67521E+00   -0.67720E+00  6032   0.641E+01 0.349E-02
CGA:  16    -0.235642510023E+03   -0.66225E+00   -0.66331E+00  6032   0.202E+01 0.454E-02
CGA:  17    -0.235804577696E+03   -0.16207E+00   -0.16193E+00  6032   0.116E+01 0.259E-02
CGA:  18    -0.235967168473E+03   -0.16259E+00   -0.16258E+00  6032   0.125E+01-0.733E-03
CGA:  19    -0.236072866901E+03   -0.10570E+00   -0.10623E+00  6032   0.505E+00-0.387E-02
CGA:  20    -0.236114102591E+03   -0.41236E-01   -0.41341E-01  6032   0.257E+00-0.855E-03
CGA:  21    -0.236161326682E+03   -0.47224E-01   -0.47185E-01  6032   0.414E+00 0.831E-03
CGA:  22    -0.236196864836E+03   -0.35538E-01   -0.35610E-01  6032   0.154E+00-0.478E-03
CGA:  23    -0.236210052520E+03   -0.13188E-01   -0.13193E-01  6032   0.664E-01-0.153E-03
CGA:  24    -0.236220823870E+03   -0.10771E-01   -0.10773E-01  6032   0.975E-01-0.172E-03
CGA:  25    -0.236233130974E+03   -0.12307E-01   -0.12305E-01  6032   0.728E-01-0.242E-03
CGA:  26    -0.236239878529E+03   -0.67476E-02   -0.67419E-02  6032   0.501E-01-0.159E-03
CGA:  27    -0.236246058892E+03   -0.61804E-02   -0.61786E-02  6032   0.352E-01-0.871E-04
CGA:  28    -0.236249958316E+03   -0.38994E-02   -0.38971E-02  6032   0.214E-01-0.108E-04
CGA:  29    -0.236252044707E+03   -0.20864E-02   -0.20858E-02  6032   0.146E-01 0.133E-04
CGA:  30    -0.236254213049E+03   -0.21683E-02   -0.21684E-02  6032   0.133E-01 0.579E-05
CGA:  31    -0.236255673307E+03   -0.14603E-02   -0.14602E-02  6032   0.102E-01 0.230E-05
CGA:  32    -0.236257009187E+03   -0.13359E-02   -0.13359E-02  6032   0.884E-02 0.928E-05
CGA:  33    -0.236257976360E+03   -0.96717E-03   -0.96779E-03  6032   0.587E-02 0.313E-04
CGA:  34    -0.236258538335E+03   -0.56198E-03   -0.56318E-03  6032   0.283E-02 0.368E-04
CGA:  35    -0.236258962584E+03   -0.42425E-03   -0.42381E-03  6032   0.297E-02 0.333E-04
CGA:  36    -0.236259293854E+03   -0.33127E-03   -0.33182E-03  6032   0.206E-02 0.232E-04
CGA:  37    -0.236259535561E+03   -0.24171E-03   -0.24194E-03  6032   0.160E-02 0.121E-04
CGA:  38    -0.236259774589E+03   -0.23903E-03   -0.23880E-03  6032   0.161E-02 0.152E-04
CGA:  39    -0.236259940738E+03   -0.16615E-03   -0.16663E-03  6032   0.765E-03 0.145E-04
SDA:  40    -0.236260007078E+03   -0.66340E-04   -0.66655E-04  6032   0.405E-03 0.664E-05
CGA:  41    -0.236260044888E+03   -0.37810E-04   -0.37683E-04  6032   0.507E-03-0.337E-05
CGA:  42    -0.236260132098E+03   -0.87210E-04   -0.87780E-04  6032   0.349E-03-0.124E-04
CGA:  43    -0.236260160698E+03   -0.28600E-04   -0.28386E-04  6032   0.216E-03-0.452E-05
CGA:  44    -0.236260205592E+03   -0.44894E-04   -0.45487E-04  6032   0.211E-03-0.700E-05
CGA:  45    -0.236260220893E+03   -0.15301E-04   -0.15130E-04  6032   0.107E-03-0.294E-05
CGA:  46    -0.236260248527E+03   -0.27635E-04   -0.28454E-04  6032   0.164E-03-0.590E-05
CGA:  47    -0.236260262376E+03   -0.13849E-04   -0.13793E-04  6032   0.980E-04-0.115E-05
CGA:  48    -0.236260278269E+03   -0.15893E-04   -0.15856E-04  6032   0.110E-03 0.128E-05
CGA:  49    -0.236260288062E+03   -0.97937E-05   -0.98337E-05  6032   0.613E-04 0.888E-06
CGA:  50    -0.236260297451E+03   -0.93888E-05   -0.94023E-05  6032   0.578E-04-0.675E-06
CGA:  51    -0.236260302195E+03   -0.47436E-05   -0.47334E-05  6032   0.282E-04-0.154E-06
CGA:  52    -0.236260306513E+03   -0.43181E-05   -0.42932E-05  6032   0.349E-04 0.123E-05
CGA:  53    -0.236260310578E+03   -0.40646E-05   -0.40987E-05  6032   0.152E-04 0.166E-05
CGA:  54    -0.236260314140E+03   -0.35627E-05   -0.35145E-05  6032   0.275E-04 0.546E-06
CGA:  55    -0.236260316932E+03   -0.27917E-05   -0.27961E-05  6032   0.919E-05 0.122E-06
CGA:  56    -0.236260317663E+03   -0.73129E-06   -0.72685E-06  6032   0.654E-05-0.748E-07
CGA:  57    -0.236260319309E+03   -0.16459E-05   -0.17310E-05  6032   0.119E-04-0.621E-06
CGA:  58    -0.236260320101E+03   -0.79155E-06   -0.77656E-06  6032   0.499E-05-0.241E-06
CGA:  59    -0.236260321085E+03   -0.98476E-06   -0.10032E-05  6032   0.106E-04-0.245E-06
CGA:  60    -0.236260322086E+03   -0.10008E-05   -0.99146E-06  6032   0.282E-05-0.265E-06
CGA:  61    -0.236260322377E+03   -0.29072E-06   -0.28857E-06  6032   0.394E-05-0.604E-07
CGA:  62    -0.236260323016E+03   -0.63871E-06   -0.63878E-06  6032   0.261E-05-0.331E-07
CGA:  63    -0.236260323195E+03   -0.17925E-06   -0.19022E-06  6032   0.139E-05 0.166E-06
CGA:  64    -0.236260323367E+03   -0.17231E-06   -0.17692E-06  6032   0.127E-05 0.320E-06
CGA:  65    -0.236260323525E+03   -0.15739E-06   -0.16310E-06  6032   0.893E-06 0.179E-06
CGA:  66    -0.236260323687E+03   -0.16281E-06   -0.16645E-06  6032   0.132E-05-0.110E-06
CGA:  67    -0.236260323767E+03   -0.80012E-07   -0.73717E-07  6032   0.455E-06-0.934E-07
   1 F= -.23626032E+03 E0= -.23625519E+03  d E =-.153899E-01  mag=     7.7674
