 vasp.5.4.4.18Apr17-6-g9f103f2a35 (build Dec 20 2018 12:05:58) complex          
  
 executed on             LinuxIFC date 2019.06.20  14:18:09
 running on   32 total cores
 distrk:  each k-point on    8 cores,    4 groups
 distr:  one band on NCORES_PER_BAND=   4 cores,    2 groups


--------------------------------------------------------------------------------------------------------


 INCAR:
 POTCAR:    PAW_PBE Al 04Jan2001                  
 POTCAR:    PAW_PBE Mn 06Sep2000                  

 ----------------------------------------------------------------------------- 
|                                                                             |
|           W    W    AA    RRRRR   N    N  II  N    N   GGGG   !!!           |
|           W    W   A  A   R    R  NN   N  II  NN   N  G    G  !!!           |
|           W    W  A    A  R    R  N N  N  II  N N  N  G       !!!           |
|           W WW W  AAAAAA  RRRRR   N  N N  II  N  N N  G  GGG   !            |
|           WW  WW  A    A  R   R   N   NN  II  N   NN  G    G                |
|           W    W  A    A  R    R  N    N  II  N    N   GGGG   !!!           |
|                                                                             |
|      You have enabled k-point parallelism (KPAR>1).                         |
|      This developmental code was originally  written by Paul Kent at ORNL,  |
|      and carefully double checked in Vienna.                                |
|      GW as well as linear response parallelism added by Martijn Marsman     |
|      and Georg Kresse.                                                      |
|      Carefully verify results versus KPAR=1.                                |
|      Report problems to Paul Kent and Vienna.                               |
|                                                                             |
 ----------------------------------------------------------------------------- 

 POTCAR:    PAW_PBE Al 04Jan2001                  
   VRHFIN =Al: s2p1                                                             
   LEXCH  = PE                                                                  
   EATOM  =    53.5387 eV,    3.9350 Ry                                         
                                                                                
   TITEL  = PAW_PBE Al 04Jan2001                                                
   LULTRA =        F    use ultrasoft PP ?                                      
   IUNSCR =        1    unscreen: 0-lin 1-nonlin 2-no                           
   RPACOR =    1.500    partial core radius                                     
   POMASS =   26.981; ZVAL   =    3.000    mass and valenz                      
   RCORE  =    1.900    outmost cutoff radius                                   
   RWIGS  =    2.650; RWIGS  =    1.402    wigner-seitz radius (au A)           
   ENMAX  =  240.300; ENMIN  =  180.225 eV                                      
   ICORE  =        2    local potential                                         
   LCOR   =        T    correct aug charges                                     
   LPAW   =        T    paw PP                                                  
   EAUG   =  291.052                                                            
   DEXC   =    0.000                                                            
   RMAX   =    1.939    core radius for proj-oper                               
   RAUG   =    1.300    factor for augmentation sphere                          
   RDEP   =    1.966    radius for radial grids                                 
   RDEPT  =    1.856    core radius for aug-charge                              
                                                                                
   Atomic configuration                                                         
    6 entries                                                                   
     n  l   j            E        occ.                                          
     1  0  0.50     -1511.1048   2.0000                                         
     2  0  0.50      -108.1629   2.0000                                         
     2  1  1.50       -69.6402   6.0000                                         
     3  0  0.50        -7.7528   2.0000                                         
     3  1  1.50        -2.7121   1.0000                                         
     3  2  2.50        -2.7212   0.0000                                         
   Description                                                                  
     l       E           TYP  RCUT    TYP  RCUT                                 
     0     -7.7528455     23  1.900                                             
     0     -3.3096929     23  1.900                                             
     1     -2.7120682     23  1.900                                             
     1     13.6058260     23  1.900                                             
     2     -2.7211652      7  1.900                                             
  local pseudopotential read in
  partial core-charges read in
  partial kinetic energy density read in
  atomic valenz-charges read in
  non local Contribution for L=           0  read in
    real space projection operators read in
  non local Contribution for L=           0  read in
    real space projection operators read in
  non local Contribution for L=           1  read in
    real space projection operators read in
  non local Contribution for L=           1  read in
    real space projection operators read in
    PAW grid and wavefunctions read in
 
   number of l-projection  operators is LMAX  =           4
   number of lm-projection operators is LMMAX =           8
 
 POTCAR:    PAW_PBE Mn 06Sep2000                  
   VRHFIN =Mn: d6 s1                                                            
   LEXCH  = PE                                                                  
   EATOM  =   416.7541 eV,   30.6306 Ry                                         
                                                                                
   TITEL  = PAW_PBE Mn 06Sep2000                                                
   LULTRA =        F    use ultrasoft PP ?                                      
   IUNSCR =        1    unscreen: 0-lin 1-nonlin 2-no                           
   RPACOR =    2.000    partial core radius                                     
   POMASS =   54.938; ZVAL   =    7.000    mass and valenz                      
   RCORE  =    2.300    outmost cutoff radius                                   
   RWIGS  =    2.500; RWIGS  =    1.323    wigner-seitz radius (au A)           
   ENMAX  =  269.864; ENMIN  =  202.398 eV                                      
   RCLOC  =    1.725    cutoff for local pot                                    
   LCOR   =        T    correct aug charges                                     
   LPAW   =        T    paw PP                                                  
   EAUG   =  500.711                                                            
   DEXC   =    0.000                                                            
   RMAX   =    2.343    core radius for proj-oper                               
   RAUG   =    1.300    factor for augmentation sphere                          
   RDEP   =    2.338    radius for radial grids                                 
   RDEPT  =    1.911    core radius for aug-charge                              
                                                                                
   Atomic configuration                                                         
    9 entries                                                                   
     n  l   j            E        occ.                                          
     1  0  0.50     -6424.8288   2.0000                                         
     2  0  0.50      -739.1154   2.0000                                         
     2  1  1.50      -625.3949   6.0000                                         
     3  0  0.50       -81.6100   2.0000                                         
     3  1  1.50       -50.4667   6.0000                                         
     3  2  2.50        -3.3745   6.0000                                         
     4  0  0.50        -4.1331   1.0000                                         
     4  1  0.50        -4.0817   0.0000                                         
     4  3  2.50        -1.3606   0.0000                                         
   Description                                                                  
     l       E           TYP  RCUT    TYP  RCUT                                 
     2     -3.3744664     23  2.300                                             
     2     -4.7350490     23  2.300                                             
     0     -4.1331408     23  2.300                                             
     0      7.6656614     23  2.300                                             
     1     -2.7211652     23  2.300                                             
     1     20.4087390     23  2.300                                             
  local pseudopotential read in
  partial core-charges read in
  partial kinetic energy density read in
  atomic valenz-charges read in
  non local Contribution for L=           2  read in
    real space projection operators read in
  non local Contribution for L=           2  read in
    real space projection operators read in
  non local Contribution for L=           0  read in
    real space projection operators read in
  non local Contribution for L=           0  read in
    real space projection operators read in
  non local Contribution for L=           1  read in
    real space projection operators read in
  non local Contribution for L=           1  read in
    real space projection operators read in
    PAW grid and wavefunctions read in
 
   number of l-projection  operators is LMAX  =           6
   number of lm-projection operators is LMMAX =          18
 

 ----------------------------------------------------------------------------- 
|                                                                             |
|  ADVICE TO THIS USER RUNNING 'VASP/VAMP'   (HEAR YOUR MASTER'S VOICE ...):  |
|                                                                             |
|      You have a (more or less) 'large supercell' and for larger cells       |
|      it might be more efficient to use real space projection opertators     |
|      So try LREAL= Auto  in the INCAR   file.                               |
|      Mind:          For very  accurate calculation you might also keep the  |
|      reciprocal projection scheme          (i.e. LREAL=.FALSE.)             |
|                                                                             |
 ----------------------------------------------------------------------------- 

  PAW_PBE Al 04Jan2001                  :
 energy of atom  1       EATOM=  -53.5387
 kinetic energy error for atom=    0.0005 (will be added to EATOM!!)
  PAW_PBE Mn 06Sep2000                  :
 energy of atom  2       EATOM= -416.7541
 kinetic energy error for atom=    0.0080 (will be added to EATOM!!)
 
 
 POSCAR: NewRef: 18, @ ['Mn', array([1.37502469, 
  positions in cartesian coordinates
  velocities in cartesian coordinates
  No initial velocities read in
 exchange correlation table for  LEXCH =        8
   RHO(1)=    0.500       N(1)  =     2000
   RHO(2)=  100.500       N(2)  =     4000
 


--------------------------------------------------------------------------------------------------------


 ion  position               nearest neighbor table
   1  0.000  0.000  0.000-  20 2.61  24 2.61  32 2.61  36 2.61  31 2.61  23 2.61  35 2.61  19 2.61
                             3 2.75   7 2.75   5 2.75  13 2.75
   2  0.000  0.000  0.500-  19 2.61  23 2.61  31 2.61  35 2.61  20 2.61  32 2.61  24 2.61  36 2.61
                             4 2.75   8 2.75   6 2.75  14 2.75
   3  0.000  0.333  0.000-  20 2.61  32 2.61  22 2.61  34 2.61  19 2.61  31 2.61  33 2.61  21 2.61
                             9 2.75   1 2.75   5 2.75  15 2.75
   4  0.000  0.333  0.500-  19 2.61  31 2.61  21 2.61  33 2.61  32 2.61  20 2.61  22 2.61  34 2.61
                            10 2.75   2 2.75   6 2.75  16 2.75
   5  0.000  0.667  0.000-  22 2.61  34 2.61  24 2.61  36 2.61  21 2.61  33 2.61  35 2.61  23 2.61
                             3 2.75  11 2.75   1 2.75  17 2.75
   6  0.000  0.667  0.500-  21 2.61  33 2.61  23 2.61  35 2.61  34 2.61  22 2.61  24 2.61  36 2.61
                             4 2.75  12 2.75   2 2.75  18 2.75
   7  0.333  0.000  0.000-  20 2.61  24 2.61  26 2.61  30 2.61  23 2.61  19 2.61  29 2.61  25 2.61
                            13 2.75   1 2.75   9 2.75  11 2.75
   8  0.333  0.000  0.500-  19 2.61  23 2.61  25 2.61  29 2.61  20 2.61  24 2.61  26 2.61  30 2.61
                            14 2.75   2 2.75  10 2.75  12 2.75
   9  0.333  0.333  0.000-  20 2.61  22 2.61  26 2.61  19 2.61  28 2.61  21 2.61  25 2.61  27 2.61
                             3 2.75   7 2.75  11 2.75  15 2.75
  10  0.333  0.333  0.500-  19 2.61  21 2.61  25 2.61  20 2.61  27 2.61  26 2.61  22 2.61  28 2.61
                             4 2.75   8 2.75  12 2.75  16 2.75
  11  0.333  0.667  0.000-  22 2.61  24 2.61  28 2.61  21 2.61  30 2.61  23 2.61  27 2.61  29 2.61
                            17 2.75   5 2.75   9 2.75   7 2.75
  12  0.333  0.667  0.500-  21 2.61  23 2.61  27 2.61  22 2.61  29 2.61  28 2.61  24 2.61  30 2.61
                            18 2.75   6 2.75  10 2.75   8 2.75
  13  0.667  0.000  0.000-  26 2.61  30 2.61  32 2.61  36 2.61  29 2.61  25 2.61  35 2.61  31 2.61
                             7 2.75  15 2.75   1 2.75  17 2.75
  14  0.667  0.000  0.500-  25 2.61  29 2.61  31 2.61  35 2.61  26 2.61  30 2.61  32 2.61  36 2.61
                             8 2.75  16 2.75   2 2.75  18 2.75
  15  0.667  0.333  0.000-  26 2.61  28 2.61  32 2.61  25 2.61  34 2.61  27 2.61  31 2.61  33 2.61
                            17 2.75   9 2.75  13 2.75   3 2.75
  16  0.667  0.333  0.500-  25 2.61  27 2.61  31 2.61  26 2.61  33 2.61  32 2.61  28 2.61  34 2.61
                            18 2.75  10 2.75  14 2.75   4 2.75
  17  0.667  0.667  0.000-  28 2.61  30 2.61  34 2.61  27 2.61  36 2.61  29 2.61  33 2.61  35 2.61
                            11 2.75  15 2.75  13 2.75   5 2.75
  18  0.667  0.667  0.500-  27 2.61  29 2.61  33 2.61  28 2.61  35 2.61  34 2.61  30 2.61  36 2.61
                            12 2.75  16 2.75  14 2.75   6 2.75
  19  0.167  0.167  0.250-  10 2.61   8 2.61   4 2.61   9 2.61   2 2.61   7 2.61   3 2.61   1 2.61
                            21 2.75  25 2.75  23 2.75  31 2.75
  20  0.167  0.167  0.750-   9 2.61   7 2.61   3 2.61  10 2.61   1 2.61   4 2.61   8 2.61   2 2.61
                            22 2.75  26 2.75  24 2.75  32 2.75
  21  0.167  0.500  0.250-  12 2.61  10 2.61   6 2.61  11 2.61   4 2.61   9 2.61   5 2.61   3 2.61
                            19 2.75  23 2.75  27 2.75  33 2.75
  22  0.167  0.500  0.750-  11 2.61   9 2.61   5 2.61  12 2.61   3 2.61   6 2.61  10 2.61   4 2.61
                            20 2.75  24 2.75  28 2.75  34 2.75
  23  0.167  0.833  0.250-   8 2.61  12 2.61   2 2.61   6 2.61  11 2.61   7 2.61   5 2.61   1 2.61
                            21 2.75  29 2.75  19 2.75  35 2.75
  24  0.167  0.833  0.750-   7 2.61  11 2.61   1 2.61   5 2.61   8 2.61  12 2.61   2 2.61   6 2.61
                            22 2.75  30 2.75  20 2.75  36 2.75
  25  0.500  0.167  0.250-  16 2.61  14 2.61  10 2.61  15 2.61   8 2.61  13 2.61   9 2.61   7 2.61
                            19 2.75  27 2.75  31 2.75  29 2.75
  26  0.500  0.167  0.750-  15 2.61  13 2.61   9 2.61  16 2.61   7 2.61  10 2.61  14 2.61   8 2.61
                            20 2.75  28 2.75  32 2.75  30 2.75
  27  0.500  0.500  0.250-  18 2.61  16 2.61  12 2.61  17 2.61  10 2.61  15 2.61  11 2.61   9 2.61
                            21 2.75  25 2.75  29 2.75  33 2.75
  28  0.500  0.500  0.750-  17 2.61  15 2.61  11 2.61  18 2.61   9 2.61  12 2.61  16 2.61  10 2.61
                            22 2.75  26 2.75  30 2.75  34 2.75
  29  0.500  0.833  0.250-  14 2.61  18 2.61   8 2.61  12 2.61  17 2.61  13 2.61  11 2.61   7 2.61
                            23 2.75  27 2.75  35 2.75  25 2.75
  30  0.500  0.833  0.750-  13 2.61  17 2.61   7 2.61  11 2.61  14 2.61  18 2.61   8 2.61  12 2.61
                            24 2.75  28 2.75  36 2.75  26 2.75
  31  0.833  0.167  0.250-   4 2.61  16 2.61  14 2.61   2 2.61  15 2.61   3 2.61  13 2.61   1 2.61
                            25 2.75  33 2.75  19 2.75  35 2.75
  32  0.833  0.167  0.750-   3 2.61  15 2.61  13 2.61   1 2.61   4 2.61  16 2.61   2 2.61  14 2.61
                            26 2.75  34 2.75  20 2.75  36 2.75
  33  0.833  0.500  0.250-   6 2.61  18 2.61  16 2.61   4 2.61  17 2.61   5 2.61  15 2.61   3 2.61
                            27 2.75  31 2.75  35 2.75  21 2.75
  34  0.833  0.500  0.750-   5 2.61  17 2.61  15 2.61   3 2.61   6 2.61  18 2.61   4 2.61  16 2.61
                            28 2.75  32 2.75  36 2.75  22 2.75
  35  0.833  0.833  0.250-   2 2.61   6 2.61  14 2.61  18 2.61  13 2.61   5 2.61  17 2.61   1 2.61
                            29 2.75  33 2.75  31 2.75  23 2.75
  36  0.833  0.833  0.750-   1 2.61   5 2.61  13 2.61  17 2.61   2 2.61  14 2.61   6 2.61  18 2.61
                            30 2.75  34 2.75  32 2.75  24 2.75
 
  LATTYP: Found a simple tetragonal cell.
 ALAT       =     8.2501481662
 C/A-ratio  =     0.8428059861
  
  Lattice vectors:
  
 A1 = (   8.2501481662,   0.0000000000,   0.0000000000)
 A2 = (   0.0000000000,   8.2501481662,   0.0000000000)
 A3 = (   0.0000000000,   0.0000000000,   6.9532742610)


Analysis of symmetry for initial positions (statically):
=====================================================================
 Subroutine PRICEL returns following result:
 
  LATTYP: Found a simple tetragonal cell.
 ALAT       =     2.7500493888
 C/A-ratio  =     1.2642089792
  
  Lattice vectors:
  
 A1 = (   2.7500493888,   0.0000000000,   0.0000000000)
 A2 = (   0.0000000000,   2.7500493888,   0.0000000000)
 A3 = (   0.0000000000,   0.0000000000,   3.4766371305)
 
  18 primitive cells build up your supercell.
 

 Routine SETGRP: Setting up the symmetry group for a 
 simple tetragonal supercell.


 Subroutine GETGRP returns: Found 16 space group operations
 (whereof 16 operations were pure point group operations)
 out of a pool of 16 trial point group operations.


The static configuration has the point symmetry D_4h.


Analysis of symmetry for dynamics (positions and initial velocities):
=====================================================================
 Subroutine PRICEL returns following result:
 
  LATTYP: Found a simple tetragonal cell.
 ALAT       =     2.7500493888
 C/A-ratio  =     1.2642089792
  
  Lattice vectors:
  
 A1 = (   2.7500493888,   0.0000000000,   0.0000000000)
 A2 = (   0.0000000000,   2.7500493888,   0.0000000000)
 A3 = (   0.0000000000,   0.0000000000,   3.4766371305)
 
  18 primitive cells build up your supercell.
 

 Routine SETGRP: Setting up the symmetry group for a 
 simple tetragonal supercell.


 Subroutine GETGRP returns: Found 16 space group operations
 (whereof 16 operations were pure point group operations)
 out of a pool of 16 trial point group operations.


The dynamic configuration has the point symmetry D_4h.


Analysis of structural, dynamic, and magnetic symmetry:
=====================================================================
 Subroutine PRICEL returns:
 Original cell was already a primitive cell.
 

 Routine SETGRP: Setting up the symmetry group for a 
 simple tetragonal supercell.


 Subroutine GETGRP returns: Found  2 space group operations
 (whereof  1 operations were pure point group operations)
 out of a pool of 16 trial point group operations.


The magnetic configuration has the point symmetry C_1 .
 The point group associated with its full space group is C_1h.


 Subroutine INISYM returns: Found  2 space group operations
 (whereof  1 operations are pure point group operations),
 and found     1 'primitive' translations

 
 
 KPOINTS: automatic KPOINTS                       

Automatic generation of k-mesh.
 generate k-points for:    5    5    6
Space group operators:
 irot       det(A)        alpha          n_x          n_y          n_z        tau_x        tau_y        tau_z
    1     1.000000     0.000001     1.000000     0.000000     0.000000     0.000000     0.000000     0.000000
    2    -1.000000   179.999999     0.000000     0.000000     1.000000     0.000000     0.000000     0.500000
 
 Subroutine IBZKPT returns following result:
 ===========================================
 
 Found     52 irreducible k-points:
 
 Following reciprocal coordinates:
            Coordinates               Weight
  0.000000  0.000000  0.000000      1.000000
  0.200000  0.000000  0.000000      2.000000
  0.400000  0.000000  0.000000      2.000000
  0.000000  0.200000  0.000000      2.000000
  0.200000  0.200000  0.000000      2.000000
  0.400000  0.200000  0.000000      2.000000
 -0.400000  0.200000  0.000000      2.000000
 -0.200000  0.200000  0.000000      2.000000
  0.000000  0.400000  0.000000      2.000000
  0.200000  0.400000  0.000000      2.000000
  0.400000  0.400000  0.000000      2.000000
 -0.400000  0.400000  0.000000      2.000000
 -0.200000  0.400000  0.000000      2.000000
  0.000000  0.000000  0.166667      2.000000
  0.200000  0.000000  0.166667      4.000000
  0.400000  0.000000  0.166667      4.000000
  0.000000  0.200000  0.166667      4.000000
  0.200000  0.200000  0.166667      4.000000
  0.400000  0.200000  0.166667      4.000000
 -0.400000  0.200000  0.166667      4.000000
 -0.200000  0.200000  0.166667      4.000000
  0.000000  0.400000  0.166667      4.000000
  0.200000  0.400000  0.166667      4.000000
  0.400000  0.400000  0.166667      4.000000
 -0.400000  0.400000  0.166667      4.000000
 -0.200000  0.400000  0.166667      4.000000
  0.000000  0.000000  0.333333      2.000000
  0.200000  0.000000  0.333333      4.000000
  0.400000  0.000000  0.333333      4.000000
  0.000000  0.200000  0.333333      4.000000
  0.200000  0.200000  0.333333      4.000000
  0.400000  0.200000  0.333333      4.000000
 -0.400000  0.200000  0.333333      4.000000
 -0.200000  0.200000  0.333333      4.000000
  0.000000  0.400000  0.333333      4.000000
  0.200000  0.400000  0.333333      4.000000
  0.400000  0.400000  0.333333      4.000000
 -0.400000  0.400000  0.333333      4.000000
 -0.200000  0.400000  0.333333      4.000000
  0.000000  0.000000  0.500000      1.000000
  0.200000  0.000000  0.500000      2.000000
  0.400000  0.000000  0.500000      2.000000
  0.000000  0.200000  0.500000      2.000000
  0.200000  0.200000  0.500000      2.000000
  0.400000  0.200000  0.500000      2.000000
 -0.400000  0.200000  0.500000      2.000000
 -0.200000  0.200000  0.500000      2.000000
  0.000000  0.400000  0.500000      2.000000
  0.200000  0.400000  0.500000      2.000000
  0.400000  0.400000  0.500000      2.000000
 -0.400000  0.400000  0.500000      2.000000
 -0.200000  0.400000  0.500000      2.000000
 
 Following cartesian coordinates:
            Coordinates               Weight
  0.000000  0.000000  0.000000      1.000000
  0.024242  0.000000  0.000000      2.000000
  0.048484  0.000000  0.000000      2.000000
  0.000000  0.024242  0.000000      2.000000
  0.024242  0.024242  0.000000      2.000000
  0.048484  0.024242  0.000000      2.000000
 -0.048484  0.024242  0.000000      2.000000
 -0.024242  0.024242  0.000000      2.000000
  0.000000  0.048484  0.000000      2.000000
  0.024242  0.048484  0.000000      2.000000
  0.048484  0.048484  0.000000      2.000000
 -0.048484  0.048484  0.000000      2.000000
 -0.024242  0.048484  0.000000      2.000000
  0.000000  0.000000  0.023970      2.000000
  0.024242  0.000000  0.023970      4.000000
  0.048484  0.000000  0.023970      4.000000
  0.000000  0.024242  0.023970      4.000000
  0.024242  0.024242  0.023970      4.000000
  0.048484  0.024242  0.023970      4.000000
 -0.048484  0.024242  0.023970      4.000000
 -0.024242  0.024242  0.023970      4.000000
  0.000000  0.048484  0.023970      4.000000
  0.024242  0.048484  0.023970      4.000000
  0.048484  0.048484  0.023970      4.000000
 -0.048484  0.048484  0.023970      4.000000
 -0.024242  0.048484  0.023970      4.000000
  0.000000  0.000000  0.047939      2.000000
  0.024242  0.000000  0.047939      4.000000
  0.048484  0.000000  0.047939      4.000000
  0.000000  0.024242  0.047939      4.000000
  0.024242  0.024242  0.047939      4.000000
  0.048484  0.024242  0.047939      4.000000
 -0.048484  0.024242  0.047939      4.000000
 -0.024242  0.024242  0.047939      4.000000
  0.000000  0.048484  0.047939      4.000000
  0.024242  0.048484  0.047939      4.000000
  0.048484  0.048484  0.047939      4.000000
 -0.048484  0.048484  0.047939      4.000000
 -0.024242  0.048484  0.047939      4.000000
  0.000000  0.000000  0.071909      1.000000
  0.024242  0.000000  0.071909      2.000000
  0.048484  0.000000  0.071909      2.000000
  0.000000  0.024242  0.071909      2.000000
  0.024242  0.024242  0.071909      2.000000
  0.048484  0.024242  0.071909      2.000000
 -0.048484  0.024242  0.071909      2.000000
 -0.024242  0.024242  0.071909      2.000000
  0.000000  0.048484  0.071909      2.000000
  0.024242  0.048484  0.071909      2.000000
  0.048484  0.048484  0.071909      2.000000
 -0.048484  0.048484  0.071909      2.000000
 -0.024242  0.048484  0.071909      2.000000
 


--------------------------------------------------------------------------------------------------------




 Dimension of arrays:
   k-points           NKPTS =     52   k-points in BZ     NKDIM =     52   number of bands    NBANDS=    116
   number of dos      NEDOS =    301   number of ions     NIONS =     36
   non local maximal  LDIM  =      6   non local SUM 2l+1 LMDIM =     18
   total plane-waves  NPLWV = 139968
   max r-space proj   IRMAX =      1   max aug-charges    IRDMAX=  92271
   dimension x,y,z NGX =    54 NGY =   54 NGZ =   48
   dimension x,y,z NGXF=   108 NGYF=  108 NGZF=   96
   support grid    NGXF=   216 NGYF=  216 NGZF=  192
   ions per type =              18  18
   NGX,Y,Z   is equivalent  to a cutoff of  10.88, 10.88, 11.48 a.u.
   NGXF,Y,Z  is equivalent  to a cutoff of  21.76, 21.76, 22.95 a.u.

 SYSTEM =  AlMn_pv                                 
 POSCAR =  NewRef: 18, @ ['Mn', array([1.37502469, 

 Startparameter for this run:
   NWRITE =      2    write-flag & timer
   PREC   = accura    normal or accurate (medium, high low for compatibility)
   ISTART =      0    job   : 0-new  1-cont  2-samecut
   ICHARG =      2    charge: 1-file 2-atom 10-const
   ISPIN  =      2    spin polarized calculation?
   LNONCOLLINEAR =      F non collinear calculations
   LSORBIT =      F    spin-orbit coupling
   INIWAV =      1    electr: 0-lowe 1-rand  2-diag
   LASPH  =      F    aspherical Exc in radial PAW
   METAGGA=      F    non-selfconsistent MetaGGA calc.

 Electronic Relaxation 1
   ENCUT  =  404.8 eV  29.75 Ry    5.45 a.u.  13.53 13.53 11.41*2*pi/ulx,y,z
   ENINI  =  404.8     initial cutoff
   ENAUG  =  500.7 eV  augmentation charge cutoff
   NELM   =    100;   NELMIN=  4; NELMDL= -8     # of ELM steps 
   EDIFF  = 0.1E-06   stopping-criterion for ELM
   LREAL  =      F    real-space projection
   NLSPLINE    = F    spline interpolate recip. space projectors
   LCOMPAT=      F    compatible to vasp.4.4
   GGA_COMPAT  = T    GGA compatible to vasp.4.4-vasp.4.6
   LMAXPAW     = -100 max onsite density
   LMAXMIX     =    2 max onsite mixed and CHGCAR
   VOSKOWN=      0    Vosko Wilk Nusair interpolation
   ROPT   =    0.00000   0.00000
 Ionic relaxation
   EDIFFG = 0.1E-05   stopping-criterion for IOM
   NSW    =      0    number of steps for IOM
   NBLOCK =      1;   KBLOCK =      1    inner block; outer block 
   IBRION =     -1    ionic relax: 0-MD 1-quasi-New 2-CG
   NFREE  =      0    steps in history (QN), initial steepest desc. (CG)
   ISIF   =      2    stress and relaxation
   IWAVPR =     10    prediction:  0-non 1-charg 2-wave 3-comb
   ISYM   =      2    0-nonsym 1-usesym 2-fastsym
   LCORR  =      T    Harris-Foulkes like correction to forces

   POTIM  = 0.2000    time-step for ionic-motion
   TEIN   =    0.0    initial temperature
   TEBEG  =    0.0;   TEEND  =   0.0 temperature during run
   SMASS  =  -3.00    Nose mass-parameter (am)
   estimated Nose-frequenzy (Omega)   =  0.10E-29 period in steps =****** mass=  -0.156E-26a.u.
   SCALEE = 1.0000    scale energy and forces
   NPACO  =    256;   APACO  = 16.0  distance and # of slots for P.C.
   PSTRESS=    0.0 pullay stress

  Mass of Ions in am
   POMASS =  26.98 54.94
  Ionic Valenz
   ZVAL   =   3.00  7.00
  Atomic Wigner-Seitz radii
   RWIGS  =  -1.00 -1.00
  virtual crystal weights 
   VCA    =   1.00  1.00
   NELECT =     180.0000    total number of electrons
   NUPDOWN=      -1.0000    fix difference up-down

 DOS related values:
   EMIN   =  10.00;   EMAX   =-10.00  energy-range for DOS
   EFERMI =   0.00
   ISMEAR =     1;   SIGMA  =   0.20  broadening in eV -4-tet -1-fermi 0-gaus

 Electronic relaxation 2 (details)
   IALGO  =     58    algorithm
   LDIAG  =      T    sub-space diagonalisation (order eigenvalues)
   LSUBROT=      F    optimize rotation matrix (better conditioning)
   TURBO    =      0    0=normal 1=particle mesh
   IRESTART =      0    0=no restart 2=restart with 2 vectors
   NREBOOT  =      0    no. of reboots
   NMIN     =      0    reboot dimension
   EREF     =   0.00    reference energy to select bands
   IMIX   =      4    mixing-type and parameters
     AMIX     =   0.40;   BMIX     =  1.00
     AMIX_MAG =   1.60;   BMIX_MAG =  1.00
     AMIN     =   0.10
     WC   =   100.;   INIMIX=   1;  MIXPRE=   1;  MAXMIX= -45

 Intra band minimization:
   WEIMIN = 0.0000     energy-eigenvalue tresh-hold
   EBREAK =  0.22E-09  absolut break condition
   DEPER  =   0.30     relativ break condition  

   TIME   =   0.40     timestep for ELM

  volume/ion in A,a.u.               =      13.15        88.72
  Fermi-wavevector in a.u.,A,eV,Ry     =   1.186118  2.241439 19.141722  1.406877
  Thomas-Fermi vector in A             =   2.322298
 
 Write flags
   LWAVE        =      F    write WAVECAR
   LDOWNSAMPLE  =      F    k-point downsampling of WAVECAR
   LCHARG       =      F    write CHGCAR
   LVTOT        =      F    write LOCPOT, total local potential
   LVHAR        =      F    write LOCPOT, Hartree potential only
   LELF         =      F    write electronic localiz. function (ELF)
   LORBIT       =     10    0 simple, 1 ext, 2 COOP (PROOUT), +10 PAW based schemes


 Dipole corrections
   LMONO  =      F    monopole corrections only (constant potential shift)
   LDIPOL =      F    correct potential (dipole corrections)
   IDIPOL =      0    1-x, 2-y, 3-z, 4-all directions 
   EPSILON=  1.0000000 bulk dielectric constant

 Exchange correlation treatment:
   GGA     =    --    GGA type
   LEXCH   =     8    internal setting for exchange type
   VOSKOWN=      0    Vosko Wilk Nusair interpolation
   LHFCALC =     F    Hartree Fock is set to
   LHFONE  =     F    Hartree Fock one center treatment
   AEXX    =    0.0000 exact exchange contribution

 Linear response parameters
   LEPSILON=     F    determine dielectric tensor
   LRPA    =     F    only Hartree local field effects (RPA)
   LNABLA  =     F    use nabla operator in PAW spheres
   LVEL    =     F    velocity operator in full k-point grid
   LINTERFAST=   F  fast interpolation
   KINTER  =     0    interpolate to denser k-point grid
   CSHIFT  =0.1000    complex shift for real part using Kramers Kronig
   OMEGAMAX=  -1.0    maximum frequency
   DEG_THRESHOLD= 0.2000000E-02 threshold for treating states as degnerate
   RTIME   =   -0.100 relaxation time in fs
  (WPLASMAI=    0.000 imaginary part of plasma frequency in eV, 0.658/RTIME)
   DFIELD  = 0.0000000 0.0000000 0.0000000 field for delta impulse in time
 
 Orbital magnetization related:
   ORBITALMAG=     F  switch on orbital magnetization
   LCHIMAG   =     F  perturbation theory with respect to B field
   DQ        =  0.001000  dq finite difference perturbation B field
   LLRAUG    =     F  two centre corrections for induced B field



--------------------------------------------------------------------------------------------------------


 Static calculation
 charge density and potential will be updated during run
 spin polarized calculation
 Conjugate gradient for all bands (Freysoldt, et al. PRB 79, 241103 (2009))
 preconditioned conjugated gradient                                        
 perform sub-space diagonalisation
    before iterative eigenvector-optimisation
 modified Broyden-mixing scheme, WC =      100.0
 initial mixing is a Kerker type mixing with AMIX =  0.4000 and BMIX =      1.0000
 Hartree-type preconditioning will be used
 using additional bands           26
 reciprocal scheme for non local part
 use partial core corrections
 no Harris-corrections to forces 
 use gradient corrections 
 use of overlap-Matrix (Vanderbilt PP)
 Methfessel and Paxton  Order N= 1 SIGMA  =   0.20


--------------------------------------------------------------------------------------------------------


  energy-cutoff  :      404.80
  volume of cell :      473.27
      direct lattice vectors                 reciprocal lattice vectors
     8.250148166  0.000000000  0.000000000     0.121209944  0.000000000  0.000000000
     0.000000000  8.250148166  0.000000000     0.000000000  0.121209944  0.000000000
     0.000000000  0.000000000  6.953274261     0.000000000  0.000000000  0.143817137

  length of vectors
     8.250148166  8.250148166  6.953274261     0.121209944  0.121209944  0.143817137


 
 k-points in units of 2pi/SCALE and weight: automatic KPOINTS                       
   0.00000000  0.00000000  0.00000000       0.007
   0.02424199  0.00000000  0.00000000       0.013
   0.04848398  0.00000000  0.00000000       0.013
   0.00000000  0.02424199  0.00000000       0.013
   0.02424199  0.02424199  0.00000000       0.013
   0.04848398  0.02424199  0.00000000       0.013
  -0.04848398  0.02424199  0.00000000       0.013
  -0.02424199  0.02424199  0.00000000       0.013
   0.00000000  0.04848398  0.00000000       0.013
   0.02424199  0.04848398  0.00000000       0.013
   0.04848398  0.04848398  0.00000000       0.013
  -0.04848398  0.04848398  0.00000000       0.013
  -0.02424199  0.04848398  0.00000000       0.013
   0.00000000  0.00000000  0.02396952       0.013
   0.02424199  0.00000000  0.02396952       0.027
   0.04848398  0.00000000  0.02396952       0.027
   0.00000000  0.02424199  0.02396952       0.027
   0.02424199  0.02424199  0.02396952       0.027
   0.04848398  0.02424199  0.02396952       0.027
  -0.04848398  0.02424199  0.02396952       0.027
  -0.02424199  0.02424199  0.02396952       0.027
   0.00000000  0.04848398  0.02396952       0.027
   0.02424199  0.04848398  0.02396952       0.027
   0.04848398  0.04848398  0.02396952       0.027
  -0.04848398  0.04848398  0.02396952       0.027
  -0.02424199  0.04848398  0.02396952       0.027
   0.00000000  0.00000000  0.04793905       0.013
   0.02424199  0.00000000  0.04793905       0.027
   0.04848398  0.00000000  0.04793905       0.027
   0.00000000  0.02424199  0.04793905       0.027
   0.02424199  0.02424199  0.04793905       0.027
   0.04848398  0.02424199  0.04793905       0.027
  -0.04848398  0.02424199  0.04793905       0.027
  -0.02424199  0.02424199  0.04793905       0.027
   0.00000000  0.04848398  0.04793905       0.027
   0.02424199  0.04848398  0.04793905       0.027
   0.04848398  0.04848398  0.04793905       0.027
  -0.04848398  0.04848398  0.04793905       0.027
  -0.02424199  0.04848398  0.04793905       0.027
   0.00000000  0.00000000  0.07190857       0.007
   0.02424199  0.00000000  0.07190857       0.013
   0.04848398  0.00000000  0.07190857       0.013
   0.00000000  0.02424199  0.07190857       0.013
   0.02424199  0.02424199  0.07190857       0.013
   0.04848398  0.02424199  0.07190857       0.013
  -0.04848398  0.02424199  0.07190857       0.013
  -0.02424199  0.02424199  0.07190857       0.013
   0.00000000  0.04848398  0.07190857       0.013
   0.02424199  0.04848398  0.07190857       0.013
   0.04848398  0.04848398  0.07190857       0.013
  -0.04848398  0.04848398  0.07190857       0.013
  -0.02424199  0.04848398  0.07190857       0.013
 
 k-points in reciprocal lattice and weights: automatic KPOINTS                       
   0.00000000  0.00000000  0.00000000       0.007
   0.20000000  0.00000000  0.00000000       0.013
   0.40000000  0.00000000  0.00000000       0.013
   0.00000000  0.20000000  0.00000000       0.013
   0.20000000  0.20000000  0.00000000       0.013
   0.40000000  0.20000000  0.00000000       0.013
  -0.40000000  0.20000000  0.00000000       0.013
  -0.20000000  0.20000000  0.00000000       0.013
   0.00000000  0.40000000  0.00000000       0.013
   0.20000000  0.40000000  0.00000000       0.013
   0.40000000  0.40000000  0.00000000       0.013
  -0.40000000  0.40000000  0.00000000       0.013
  -0.20000000  0.40000000  0.00000000       0.013
   0.00000000  0.00000000  0.16666667       0.013
   0.20000000  0.00000000  0.16666667       0.027
   0.40000000  0.00000000  0.16666667       0.027
   0.00000000  0.20000000  0.16666667       0.027
   0.20000000  0.20000000  0.16666667       0.027
   0.40000000  0.20000000  0.16666667       0.027
  -0.40000000  0.20000000  0.16666667       0.027
  -0.20000000  0.20000000  0.16666667       0.027
   0.00000000  0.40000000  0.16666667       0.027
   0.20000000  0.40000000  0.16666667       0.027
   0.40000000  0.40000000  0.16666667       0.027
  -0.40000000  0.40000000  0.16666667       0.027
  -0.20000000  0.40000000  0.16666667       0.027
   0.00000000  0.00000000  0.33333333       0.013
   0.20000000  0.00000000  0.33333333       0.027
   0.40000000  0.00000000  0.33333333       0.027
   0.00000000  0.20000000  0.33333333       0.027
   0.20000000  0.20000000  0.33333333       0.027
   0.40000000  0.20000000  0.33333333       0.027
  -0.40000000  0.20000000  0.33333333       0.027
  -0.20000000  0.20000000  0.33333333       0.027
   0.00000000  0.40000000  0.33333333       0.027
   0.20000000  0.40000000  0.33333333       0.027
   0.40000000  0.40000000  0.33333333       0.027
  -0.40000000  0.40000000  0.33333333       0.027
  -0.20000000  0.40000000  0.33333333       0.027
   0.00000000  0.00000000  0.50000000       0.007
   0.20000000  0.00000000  0.50000000       0.013
   0.40000000  0.00000000  0.50000000       0.013
   0.00000000  0.20000000  0.50000000       0.013
   0.20000000  0.20000000  0.50000000       0.013
   0.40000000  0.20000000  0.50000000       0.013
  -0.40000000  0.20000000  0.50000000       0.013
  -0.20000000  0.20000000  0.50000000       0.013
   0.00000000  0.40000000  0.50000000       0.013
   0.20000000  0.40000000  0.50000000       0.013
   0.40000000  0.40000000  0.50000000       0.013
  -0.40000000  0.40000000  0.50000000       0.013
  -0.20000000  0.40000000  0.50000000       0.013
 
 position of ions in fractional coordinates (direct lattice) 
   0.00000000  0.00000000  0.00000000
   0.00000000  0.00000000  0.50000000
   0.00000000  0.33333333  0.00000000
   0.00000000  0.33333333  0.50000000
   0.00000000  0.66666667  0.00000000
   0.00000000  0.66666667  0.50000000
   0.33333333  0.00000000  0.00000000
   0.33333333  0.00000000  0.50000000
   0.33333333  0.33333333  0.00000000
   0.33333333  0.33333333  0.50000000
   0.33333333  0.66666667  0.00000000
   0.33333333  0.66666667  0.50000000
   0.66666667  0.00000000  0.00000000
   0.66666667  0.00000000  0.50000000
   0.66666667  0.33333333  0.00000000
   0.66666667  0.33333333  0.50000000
   0.66666667  0.66666667  0.00000000
   0.66666667  0.66666667  0.50000000
   0.16666667  0.16666667  0.25000000
   0.16666667  0.16666667  0.75000000
   0.16666667  0.50000000  0.25000000
   0.16666667  0.50000000  0.75000000
   0.16666667  0.83333333  0.25000000
   0.16666667  0.83333333  0.75000000
   0.50000000  0.16666667  0.25000000
   0.50000000  0.16666667  0.75000000
   0.50000000  0.50000000  0.25000000
   0.50000000  0.50000000  0.75000000
   0.50000000  0.83333333  0.25000000
   0.50000000  0.83333333  0.75000000
   0.83333333  0.16666667  0.25000000
   0.83333333  0.16666667  0.75000000
   0.83333333  0.50000000  0.25000000
   0.83333333  0.50000000  0.75000000
   0.83333333  0.83333333  0.25000000
   0.83333333  0.83333333  0.75000000
 
 position of ions in cartesian coordinates  (Angst):
   0.00000000  0.00000000  0.00000000
   0.00000000  0.00000000  3.47663713
   0.00000000  2.75004939  0.00000000
   0.00000000  2.75004939  3.47663713
   0.00000000  5.50009878  0.00000000
   0.00000000  5.50009878  3.47663713
   2.75004939  0.00000000  0.00000000
   2.75004939  0.00000000  3.47663713
   2.75004939  2.75004939  0.00000000
   2.75004939  2.75004939  3.47663713
   2.75004939  5.50009878  0.00000000
   2.75004939  5.50009878  3.47663713
   5.50009878  0.00000000  0.00000000
   5.50009878  0.00000000  3.47663713
   5.50009878  2.75004939  0.00000000
   5.50009878  2.75004939  3.47663713
   5.50009878  5.50009878  0.00000000
   5.50009878  5.50009878  3.47663713
   1.37502469  1.37502469  1.73831857
   1.37502469  1.37502469  5.21495570
   1.37502469  4.12507408  1.73831857
   1.37502469  4.12507408  5.21495570
   1.37502469  6.87512347  1.73831857
   1.37502469  6.87512347  5.21495570
   4.12507408  1.37502469  1.73831857
   4.12507408  1.37502469  5.21495570
   4.12507408  4.12507408  1.73831857
   4.12507408  4.12507408  5.21495570
   4.12507408  6.87512347  1.73831857
   4.12507408  6.87512347  5.21495570
   6.87512347  1.37502469  1.73831857
   6.87512347  1.37502469  5.21495570
   6.87512347  4.12507408  1.73831857
   6.87512347  4.12507408  5.21495570
   6.87512347  6.87512347  1.73831857
   6.87512347  6.87512347  5.21495570
 


--------------------------------------------------------------------------------------------------------


 k-point  1 :   0.0000 0.0000 0.0000  plane waves:    8799
 k-point  2 :   0.2000 0.0000 0.0000  plane waves:    8753
 k-point  3 :   0.4000 0.0000 0.0000  plane waves:    8757
 k-point  4 :   0.0000 0.2000 0.0000  plane waves:    8753
 k-point  5 :   0.2000 0.2000 0.0000  plane waves:    8767
 k-point  6 :   0.4000 0.2000 0.0000  plane waves:    8761
 k-point  7 :  -0.4000 0.2000 0.0000  plane waves:    8761
 k-point  8 :  -0.2000 0.2000 0.0000  plane waves:    8767
 k-point  9 :   0.0000 0.4000 0.0000  plane waves:    8757
 k-point 10 :   0.2000 0.4000 0.0000  plane waves:    8761
 k-point 11 :   0.4000 0.4000 0.0000  plane waves:    8731
 k-point 12 :  -0.4000 0.4000 0.0000  plane waves:    8731
 k-point 13 :  -0.2000 0.4000 0.0000  plane waves:    8761
 k-point 14 :   0.0000 0.0000 0.1667  plane waves:    8763
 k-point 15 :   0.2000 0.0000 0.1667  plane waves:    8771
 k-point 16 :   0.4000 0.0000 0.1667  plane waves:    8747
 k-point 17 :   0.0000 0.2000 0.1667  plane waves:    8771
 k-point 18 :   0.2000 0.2000 0.1667  plane waves:    8764
 k-point 19 :   0.4000 0.2000 0.1667  plane waves:    8768
 k-point 20 :  -0.4000 0.2000 0.1667  plane waves:    8768
 k-point 21 :  -0.2000 0.2000 0.1667  plane waves:    8764
 k-point 22 :   0.0000 0.4000 0.1667  plane waves:    8747
 k-point 23 :   0.2000 0.4000 0.1667  plane waves:    8768
 k-point 24 :   0.4000 0.4000 0.1667  plane waves:    8740
 k-point 25 :  -0.4000 0.4000 0.1667  plane waves:    8740
 k-point 26 :  -0.2000 0.4000 0.1667  plane waves:    8768
 k-point 27 :   0.0000 0.0000 0.3333  plane waves:    8743
 k-point 28 :   0.2000 0.0000 0.3333  plane waves:    8736
 k-point 29 :   0.4000 0.0000 0.3333  plane waves:    8753
 k-point 30 :   0.0000 0.2000 0.3333  plane waves:    8736
 k-point 31 :   0.2000 0.2000 0.3333  plane waves:    8753
 k-point 32 :   0.4000 0.2000 0.3333  plane waves:    8743
 k-point 33 :  -0.4000 0.2000 0.3333  plane waves:    8743
 k-point 34 :  -0.2000 0.2000 0.3333  plane waves:    8753
 k-point 35 :   0.0000 0.4000 0.3333  plane waves:    8753
 k-point 36 :   0.2000 0.4000 0.3333  plane waves:    8743
 k-point 37 :   0.4000 0.4000 0.3333  plane waves:    8755
 k-point 38 :  -0.4000 0.4000 0.3333  plane waves:    8755
 k-point 39 :  -0.2000 0.4000 0.3333  plane waves:    8743
 k-point 40 :   0.0000 0.0000 0.5000  plane waves:    8742
 k-point 41 :   0.2000 0.0000 0.5000  plane waves:    8756
 k-point 42 :   0.4000 0.0000 0.5000  plane waves:    8744
 k-point 43 :   0.0000 0.2000 0.5000  plane waves:    8756
 k-point 44 :   0.2000 0.2000 0.5000  plane waves:    8762
 k-point 45 :   0.4000 0.2000 0.5000  plane waves:    8732
 k-point 46 :  -0.4000 0.2000 0.5000  plane waves:    8732
 k-point 47 :  -0.2000 0.2000 0.5000  plane waves:    8762
 k-point 48 :   0.0000 0.4000 0.5000  plane waves:    8744
 k-point 49 :   0.2000 0.4000 0.5000  plane waves:    8732
 k-point 50 :   0.4000 0.4000 0.5000  plane waves:    8736
 k-point 51 :  -0.4000 0.4000 0.5000  plane waves:    8736
 k-point 52 :  -0.2000 0.4000 0.5000  plane waves:    8732

 maximum and minimum number of plane-waves per node :      2210     2164

 maximum number of plane-waves:      8799
 maximum index in each direction: 
   IXMAX=   13   IYMAX=   13   IZMAX=   11
   IXMIN=  -13   IYMIN=  -13   IZMIN=  -11


 parallel 3D FFT for wavefunctions:
    minimum data exchange during FFTs selected (reduces bandwidth)
 parallel 3D FFT for charge:
    minimum data exchange during FFTs selected (reduces bandwidth)


 total amount of memory used by VASP MPI-rank0   775081. kBytes
=======================================================================

   base      :      30000. kBytes
   nonl-proj :      34307. kBytes
   fftplans  :      21726. kBytes
   grid      :      14732. kBytes
   one-center:        279. kBytes
   wavefun   :     674037. kBytes
 
     INWAV:  cpu time    0.0000: real time    0.0000
 Broyden mixing: mesh for mixing (old mesh)
   NGX = 27   NGY = 27   NGZ = 23
  (NGX  =108   NGY  =108   NGZ  = 96)
  gives a total of  16767 points

 initial charge density was supplied:
 charge density of overlapping atoms calculated
 number of electron     180.0000000 magnetization      12.0000000
 keeping initial charge density in first step


--------------------------------------------------------------------------------------------------------


 Maximum index for augmentation-charges        11261 (set IRDMAX)


--------------------------------------------------------------------------------------------------------


 First call to EWALD:  gamma=   0.227
 Maximum number of real-space cells 3x 3x 3
 Maximum number of reciprocal cells 3x 3x 3

    FEWALD:  cpu time    0.0069: real time    0.0069


--------------------------------------- Iteration      1(   1)  ---------------------------------------


    POTLOK:  cpu time    0.2519: real time    0.2523
    SETDIJ:  cpu time    0.3219: real time    0.3227
    TRIAL :  cpu time   19.3218: real time   19.4072
    CORREC:  cpu time    0.0068: real time    0.0069
    --------------------------------------------
      LOOP:  cpu time   20.1273: real time   20.2247

 eigenvalue-minimisations  : 24128
 total energy-change (2. order) : 0.1339422E+04  (-0.5922472E+04)
 number of electron     180.0000000 magnetization      12.0000000
 augmentation part      180.0000000 magnetization      12.0000000

 Free energy of the ion-electron system (eV)
  ---------------------------------------------------
  alpha Z        PSCENC =       532.25742704
  Ewald energy   TEWEN  =     -8601.05107233
  -Hartree energ DENC   =     -1903.73857242
  -exchange      EXHF   =         0.00000000
  -V(xc)+E(xc)   XCENC  =      -664.66385141
  PAW double counting   =      8494.55058411    -7650.81563588
  entropy T*S    EENTRO =        -0.00277917
  eigenvalues    EBANDS =      2667.76964496
  atomic energy  EATOM  =      8465.11600846
  ---------------------------------------------------
  free energy    TOTEN  =      1339.42175336 eV

  energy without entropy =     1339.42453253  energy(sigma->0) =     1339.42267975


--------------------------------------------------------------------------------------------------------




--------------------------------------- Iteration      1(   2)  ---------------------------------------


    TRIAL :  cpu time   19.1340: real time   19.9573
    CORREC:  cpu time    0.0083: real time    0.0092
    --------------------------------------------
      LOOP:  cpu time   19.1432: real time   19.9696

 eigenvalue-minimisations  : 24128
 total energy-change (2. order) :-0.1411570E+04  (-0.1371803E+04)
 number of electron     180.0000000 magnetization      12.0000000
 augmentation part      180.0000000 magnetization      12.0000000

 Free energy of the ion-electron system (eV)
  ---------------------------------------------------
  alpha Z        PSCENC =       532.25742704
  Ewald energy   TEWEN  =     -8601.05107233
  -Hartree energ DENC   =     -1903.73857242
  -exchange      EXHF   =         0.00000000
  -V(xc)+E(xc)   XCENC  =      -664.66385141
  PAW double counting   =      8494.55058411    -7650.81563588
  entropy T*S    EENTRO =        -0.00004074
  eigenvalues    EBANDS =      1256.19677482
  atomic energy  EATOM  =      8465.11600846
  ---------------------------------------------------
  free energy    TOTEN  =       -72.14837835 eV

  energy without entropy =      -72.14833761  energy(sigma->0) =      -72.14836477


--------------------------------------------------------------------------------------------------------




--------------------------------------- Iteration      1(   3)  ---------------------------------------


    TRIAL :  cpu time   26.5063: real time   26.7297
    CORREC:  cpu time    0.0096: real time    0.0098
    --------------------------------------------
      LOOP:  cpu time   26.5530: real time   26.7780

 eigenvalue-minimisations  : 36644
 total energy-change (2. order) :-0.1693409E+03  (-0.1495645E+03)
 number of electron     180.0000000 magnetization      12.0000000
 augmentation part      180.0000000 magnetization      12.0000000

 Free energy of the ion-electron system (eV)
  ---------------------------------------------------
  alpha Z        PSCENC =       532.25742704
  Ewald energy   TEWEN  =     -8601.05107233
  -Hartree energ DENC   =     -1903.73857242
  -exchange      EXHF   =         0.00000000
  -V(xc)+E(xc)   XCENC  =      -664.66385141
  PAW double counting   =      8494.55058411    -7650.81563588
  entropy T*S    EENTRO =         0.00256948
  eigenvalues    EBANDS =      1086.85327703
  atomic energy  EATOM  =      8465.11600846
  ---------------------------------------------------
  free energy    TOTEN  =      -241.48926592 eV

  energy without entropy =     -241.49183540  energy(sigma->0) =     -241.49012241


--------------------------------------------------------------------------------------------------------




--------------------------------------- Iteration      1(   4)  ---------------------------------------


    TRIAL :  cpu time   28.6915: real time   28.7922
    CORREC:  cpu time    0.0100: real time    0.0110
    --------------------------------------------
      LOOP:  cpu time   28.7036: real time   28.8077

 eigenvalue-minimisations  : 39192
 total energy-change (2. order) :-0.2572939E+02  (-0.2266160E+02)
 number of electron     180.0000000 magnetization      12.0000000
 augmentation part      180.0000000 magnetization      12.0000000

 Free energy of the ion-electron system (eV)
  ---------------------------------------------------
  alpha Z        PSCENC =       532.25742704
  Ewald energy   TEWEN  =     -8601.05107233
  -Hartree energ DENC   =     -1903.73857242
  -exchange      EXHF   =         0.00000000
  -V(xc)+E(xc)   XCENC  =      -664.66385141
  PAW double counting   =      8494.55058411    -7650.81563588
  entropy T*S    EENTRO =         0.03559583
  eigenvalues    EBANDS =      1061.09085880
  atomic energy  EATOM  =      8465.11600846
  ---------------------------------------------------
  free energy    TOTEN  =      -267.21865780 eV

  energy without entropy =     -267.25425363  energy(sigma->0) =     -267.23052308


--------------------------------------------------------------------------------------------------------




--------------------------------------- Iteration      1(   5)  ---------------------------------------


    TRIAL :  cpu time   28.3405: real time   29.2781
    CORREC:  cpu time    0.0101: real time    0.0103
    --------------------------------------------
      LOOP:  cpu time   28.3520: real time   29.2920

 eigenvalue-minimisations  : 39752
 total energy-change (2. order) :-0.2467586E+01  (-0.2352741E+01)
 number of electron     180.0000000 magnetization      12.0000000
 augmentation part      180.0000000 magnetization      12.0000000

 Free energy of the ion-electron system (eV)
  ---------------------------------------------------
  alpha Z        PSCENC =       532.25742704
  Ewald energy   TEWEN  =     -8601.05107233
  -Hartree energ DENC   =     -1903.73857242
  -exchange      EXHF   =         0.00000000
  -V(xc)+E(xc)   XCENC  =      -664.66385141
  PAW double counting   =      8494.55058411    -7650.81563588
  entropy T*S    EENTRO =         0.03854486
  eigenvalues    EBANDS =      1058.62032359
  atomic energy  EATOM  =      8465.11600846
  ---------------------------------------------------
  free energy    TOTEN  =      -269.68624397 eV

  energy without entropy =     -269.72478884  energy(sigma->0) =     -269.69909226


--------------------------------------------------------------------------------------------------------




--------------------------------------- Iteration      1(   6)  ---------------------------------------


    TRIAL :  cpu time   28.9137: real time   29.0109
    CORREC:  cpu time    0.0101: real time    0.0110
    --------------------------------------------
      LOOP:  cpu time   28.9257: real time   29.0263

 eigenvalue-minimisations  : 39632
 total energy-change (2. order) :-0.1962169E+00  (-0.1923149E+00)
 number of electron     180.0000000 magnetization      12.0000000
 augmentation part      180.0000000 magnetization      12.0000000

 Free energy of the ion-electron system (eV)
  ---------------------------------------------------
  alpha Z        PSCENC =       532.25742704
  Ewald energy   TEWEN  =     -8601.05107233
  -Hartree energ DENC   =     -1903.73857242
  -exchange      EXHF   =         0.00000000
  -V(xc)+E(xc)   XCENC  =      -664.66385141
  PAW double counting   =      8494.55058411    -7650.81563588
  entropy T*S    EENTRO =         0.03878315
  eigenvalues    EBANDS =      1058.42386839
  atomic energy  EATOM  =      8465.11600846
  ---------------------------------------------------
  free energy    TOTEN  =      -269.88246089 eV

  energy without entropy =     -269.92124404  energy(sigma->0) =     -269.89538860


--------------------------------------------------------------------------------------------------------




--------------------------------------- Iteration      1(   7)  ---------------------------------------


    TRIAL :  cpu time   28.8120: real time   29.7501
    CORREC:  cpu time    0.0104: real time    0.0113
    --------------------------------------------
      LOOP:  cpu time   28.8260: real time   29.7653

 eigenvalue-minimisations  : 40424
 total energy-change (2. order) :-0.2070014E-01  (-0.2051627E-01)
 number of electron     180.0000000 magnetization      12.0000000
 augmentation part      180.0000000 magnetization      12.0000000

 Free energy of the ion-electron system (eV)
  ---------------------------------------------------
  alpha Z        PSCENC =       532.25742704
  Ewald energy   TEWEN  =     -8601.05107233
  -Hartree energ DENC   =     -1903.73857242
  -exchange      EXHF   =         0.00000000
  -V(xc)+E(xc)   XCENC  =      -664.66385141
  PAW double counting   =      8494.55058411    -7650.81563588
  entropy T*S    EENTRO =         0.03891114
  eigenvalues    EBANDS =      1058.40304026
  atomic energy  EATOM  =      8465.11600846
  ---------------------------------------------------
  free energy    TOTEN  =      -269.90316102 eV

  energy without entropy =     -269.94207217  energy(sigma->0) =     -269.91613140


--------------------------------------------------------------------------------------------------------




--------------------------------------- Iteration      1(   8)  ---------------------------------------


    TRIAL :  cpu time   28.7160: real time   28.8883
    CORREC:  cpu time    0.0103: real time    0.0104
    CHARGE:  cpu time    1.1051: real time    1.1052
    --------------------------------------------
      LOOP:  cpu time   29.8351: real time   30.0102

 eigenvalue-minimisations  : 38928
 total energy-change (2. order) :-0.1585400E-02  (-0.1577045E-02)
 number of electron     179.9999997 magnetization       8.4502682
 augmentation part       42.5547107 magnetization       4.9110560

 Free energy of the ion-electron system (eV)
  ---------------------------------------------------
  alpha Z        PSCENC =       532.25742704
  Ewald energy   TEWEN  =     -8601.05107233
  -Hartree energ DENC   =     -1903.73857242
  -exchange      EXHF   =         0.00000000
  -V(xc)+E(xc)   XCENC  =      -664.66385141
  PAW double counting   =      8494.55058411    -7650.81563588
  entropy T*S    EENTRO =         0.03894737
  eigenvalues    EBANDS =      1058.40141864
  atomic energy  EATOM  =      8465.11600846
  ---------------------------------------------------
  free energy    TOTEN  =      -269.90474642 eV

  energy without entropy =     -269.94369379  energy(sigma->0) =     -269.91772888


--------------------------------------------------------------------------------------------------------




--------------------------------------- Iteration      1(   9)  ---------------------------------------


    POTLOK:  cpu time    0.2525: real time    0.2524
    SETDIJ:  cpu time    0.3421: real time    0.3421
    TRIAL :  cpu time    9.5776: real time   10.3765
    CORREC:  cpu time    3.4906: real time    3.4936
    CHARGE:  cpu time    1.1689: real time    1.1760
    --------------------------------------------
      LOOP:  cpu time   14.8683: real time   15.6808

 eigenvalue-minimisations  :     0
 total energy-change (2. order) : 0.2057124E+03  (-0.1473639E+03)
 number of electron     179.9999997 magnetization       8.7981115
 augmentation part       54.8567966 magnetization       5.7562554

 Free energy of the ion-electron system (eV)
  ---------------------------------------------------
  alpha Z        PSCENC =       532.25742704
  Ewald energy   TEWEN  =     -8601.05107233
  -Hartree energ DENC   =      -837.98611770
  -exchange      EXHF   =         0.00000000
  -V(xc)+E(xc)   XCENC  =      -694.54043628
  PAW double counting   =     12756.76351925   -11809.84310689
  entropy T*S    EENTRO =         0.00687996
  eigenvalues    EBANDS =       125.05244461
  atomic energy  EATOM  =      8465.11600846
  ---------------------------------------------------
  free energy    TOTEN  =       -64.19238648 eV

  energy without entropy =      -64.19926644  energy(sigma->0) =      -64.19467980


--------------------------------------------------------------------------------------------------------




--------------------------------------- Iteration      1(  10)  ---------------------------------------


    POTLOK:  cpu time    0.2468: real time    0.2468
    SETDIJ:  cpu time    0.2867: real time    0.3501
    TRIAL :  cpu time    9.5870: real time    9.6314
    CORREC:  cpu time    3.5081: real time    3.5664
    CHARGE:  cpu time    1.1017: real time    1.1019
    --------------------------------------------
      LOOP:  cpu time   14.7362: real time   14.9039

 eigenvalue-minimisations  :     0
 total energy-change (2. order) :-0.1457642E+03  (-0.8685326E+01)
 number of electron     179.9999996 magnetization       8.7733022
 augmentation part       57.8377822 magnetization       5.9667552

 Free energy of the ion-electron system (eV)
  ---------------------------------------------------
  alpha Z        PSCENC =       532.25742704
  Ewald energy   TEWEN  =     -8601.05107233
  -Hartree energ DENC   =     -1395.89870572
  -exchange      EXHF   =         0.00000000
  -V(xc)+E(xc)   XCENC  =      -675.32217271
  PAW double counting   =     13774.38501327   -12949.24209779
  entropy T*S    EENTRO =        -0.00377674
  eigenvalues    EBANDS =       639.79210407
  atomic energy  EATOM  =      8465.11600846
  ---------------------------------------------------
  free energy    TOTEN  =      -209.95661576 eV

  energy without entropy =     -209.95283902  energy(sigma->0) =     -209.95535684


--------------------------------------------------------------------------------------------------------




--------------------------------------- Iteration      1(  11)  ---------------------------------------


    POTLOK:  cpu time    0.2476: real time    0.2476
    SETDIJ:  cpu time    0.3631: real time    0.3634
    TRIAL :  cpu time    9.4975: real time    9.5372
    CORREC:  cpu time    3.5028: real time    3.5308
    CHARGE:  cpu time    1.1137: real time    1.1139
    --------------------------------------------
      LOOP:  cpu time   14.7270: real time   14.7964

 eigenvalue-minimisations  :     0
 total energy-change (2. order) :-0.8739255E+01  (-0.8382028E+01)
 number of electron     179.9999996 magnetization       8.8734322
 augmentation part       59.2165106 magnetization       6.1584041

 Free energy of the ion-electron system (eV)
  ---------------------------------------------------
  alpha Z        PSCENC =       532.25742704
  Ewald energy   TEWEN  =     -8601.05107233
  -Hartree energ DENC   =     -1572.56961844
  -exchange      EXHF   =         0.00000000
  -V(xc)+E(xc)   XCENC  =      -669.06832492
  PAW double counting   =     14469.20006344   -13673.64711464
  entropy T*S    EENTRO =        -0.02008129
  eigenvalues    EBANDS =       831.07053689
  atomic energy  EATOM  =      8465.11600846
  ---------------------------------------------------
  free energy    TOTEN  =      -218.69587125 eV

  energy without entropy =     -218.67578996  energy(sigma->0) =     -218.68917748


--------------------------------------------------------------------------------------------------------




--------------------------------------- Iteration      1(  12)  ---------------------------------------


    POTLOK:  cpu time    0.2475: real time    0.2479
    SETDIJ:  cpu time    0.3235: real time    0.3236
    TRIAL :  cpu time   10.1731: real time   10.2807
    CORREC:  cpu time    3.5562: real time    3.5655
    CHARGE:  cpu time    1.1247: real time    1.1248
    --------------------------------------------
      LOOP:  cpu time   15.4277: real time   15.5464

 eigenvalue-minimisations  :     0
 total energy-change (2. order) :-0.8409130E+01  (-0.6493386E+01)
 number of electron     179.9999996 magnetization       8.7376588
 augmentation part       58.1722138 magnetization       6.1104026

 Free energy of the ion-electron system (eV)
  ---------------------------------------------------
  alpha Z        PSCENC =       532.25742704
  Ewald energy   TEWEN  =     -8601.05107233
  -Hartree energ DENC   =     -1704.87951271
  -exchange      EXHF   =         0.00000000
  -V(xc)+E(xc)   XCENC  =      -664.71712318
  PAW double counting   =     14481.91831289   -13687.76415450
  entropy T*S    EENTRO =        -0.02071272
  eigenvalues    EBANDS =       952.03519463
  atomic energy  EATOM  =      8465.11600846
  ---------------------------------------------------
  free energy    TOTEN  =      -227.10500100 eV

  energy without entropy =     -227.08428828  energy(sigma->0) =     -227.09809676


--------------------------------------------------------------------------------------------------------




--------------------------------------- Iteration      1(  13)  ---------------------------------------


    POTLOK:  cpu time    0.2480: real time    0.2481
    SETDIJ:  cpu time    0.3417: real time    0.3416
    TRIAL :  cpu time    9.5320: real time   10.3973
    CORREC:  cpu time    3.5454: real time    3.5472
    CHARGE:  cpu time    1.0929: real time    1.1481
    --------------------------------------------
      LOOP:  cpu time   14.7646: real time   15.6871

 eigenvalue-minimisations  :     0
 total energy-change (2. order) :-0.6367654E+01  (-0.8434634E+00)
 number of electron     179.9999997 magnetization       8.6827873
 augmentation part       57.4475051 magnetization       6.0474479

 Free energy of the ion-electron system (eV)
  ---------------------------------------------------
  alpha Z        PSCENC =       532.25742704
  Ewald energy   TEWEN  =     -8601.05107233
  -Hartree energ DENC   =     -1700.32690994
  -exchange      EXHF   =         0.00000000
  -V(xc)+E(xc)   XCENC  =      -665.27725507
  PAW double counting   =     14173.46336273   -13352.31466582
  entropy T*S    EENTRO =        -0.02207633
  eigenvalues    EBANDS =       914.68116288
  atomic energy  EATOM  =      8465.11600846
  ---------------------------------------------------
  free energy    TOTEN  =      -233.47265477 eV

  energy without entropy =     -233.45057844  energy(sigma->0) =     -233.46529600


--------------------------------------------------------------------------------------------------------




--------------------------------------- Iteration      1(  14)  ---------------------------------------


    POTLOK:  cpu time    0.2471: real time    0.2472
    SETDIJ:  cpu time    0.3415: real time    0.3416
    TRIAL :  cpu time    9.5691: real time    9.6068
    CORREC:  cpu time    3.5774: real time    3.5961
    CHARGE:  cpu time    1.1532: real time    1.1534
    --------------------------------------------
      LOOP:  cpu time   14.8903: real time   14.9497

 eigenvalue-minimisations  :     0
 total energy-change (2. order) :-0.8323993E+00  (-0.6772045E+00)
 number of electron     179.9999997 magnetization       8.6142575
 augmentation part       57.1683527 magnetization       5.9533683

 Free energy of the ion-electron system (eV)
  ---------------------------------------------------
  alpha Z        PSCENC =       532.25742704
  Ewald energy   TEWEN  =     -8601.05107233
  -Hartree energ DENC   =     -1662.76106146
  -exchange      EXHF   =         0.00000000
  -V(xc)+E(xc)   XCENC  =      -666.63191721
  PAW double counting   =     13906.05811852   -13074.02312563
  entropy T*S    EENTRO =        -0.02149908
  eigenvalues    EBANDS =       866.75264489
  atomic energy  EATOM  =      8465.11600846
  ---------------------------------------------------
  free energy    TOTEN  =      -234.30505406 eV

  energy without entropy =     -234.28355499  energy(sigma->0) =     -234.29788771


--------------------------------------------------------------------------------------------------------




--------------------------------------- Iteration      1(  15)  ---------------------------------------


    POTLOK:  cpu time    0.2472: real time    0.2473
    SETDIJ:  cpu time    0.3244: real time    0.3244
    TRIAL :  cpu time    9.5642: real time    9.5986
    CORREC:  cpu time    3.4667: real time    3.4867
    CHARGE:  cpu time    1.1167: real time    1.1168
    --------------------------------------------
      LOOP:  cpu time   14.7383: real time   14.7937

 eigenvalue-minimisations  :     0
 total energy-change (2. order) :-0.6752078E+00  (-0.6633095E+00)
 number of electron     179.9999996 magnetization       8.4991136
 augmentation part       57.7010442 magnetization       5.8767323

 Free energy of the ion-electron system (eV)
  ---------------------------------------------------
  alpha Z        PSCENC =       532.25742704
  Ewald energy   TEWEN  =     -8601.05107233
  -Hartree energ DENC   =     -1639.75363061
  -exchange      EXHF   =         0.00000000
  -V(xc)+E(xc)   XCENC  =      -667.35479029
  PAW double counting   =     13483.31735170   -12645.51320714
  entropy T*S    EENTRO =        -0.02229623
  eigenvalues    EBANDS =       838.02315040
  atomic energy  EATOM  =      8465.11600846
  ---------------------------------------------------
  free energy    TOTEN  =      -234.98026185 eV

  energy without entropy =     -234.95796563  energy(sigma->0) =     -234.97282978


--------------------------------------------------------------------------------------------------------




--------------------------------------- Iteration      1(  16)  ---------------------------------------


    POTLOK:  cpu time    0.2475: real time    0.2476
    SETDIJ:  cpu time    0.3572: real time    0.3572
    TRIAL :  cpu time   10.4420: real time   10.4855
    CORREC:  cpu time    3.5504: real time    3.5597
    CHARGE:  cpu time    1.1054: real time    1.1056
    --------------------------------------------
      LOOP:  cpu time   15.7046: real time   15.7581

 eigenvalue-minimisations  :     0
 total energy-change (2. order) :-0.6622482E+00  (-0.1619322E+00)
 number of electron     179.9999996 magnetization       8.4567826
 augmentation part       58.0435964 magnetization       5.8814645

 Free energy of the ion-electron system (eV)
  ---------------------------------------------------
  alpha Z        PSCENC =       532.25742704
  Ewald energy   TEWEN  =     -8601.05107233
  -Hartree energ DENC   =     -1655.08735943
  -exchange      EXHF   =         0.00000000
  -V(xc)+E(xc)   XCENC  =      -666.60180987
  PAW double counting   =     13096.08404460   -12261.78681671
  entropy T*S    EENTRO =        -0.02204070
  eigenvalues    EBANDS =       855.44936445
  atomic energy  EATOM  =      8465.11600846
  ---------------------------------------------------
  free energy    TOTEN  =      -235.64251002 eV

  energy without entropy =     -235.62046933  energy(sigma->0) =     -235.63516312


--------------------------------------------------------------------------------------------------------




--------------------------------------- Iteration      1(  17)  ---------------------------------------


    POTLOK:  cpu time    0.2488: real time    0.2490
    SETDIJ:  cpu time    0.3186: real time    0.3256
    TRIAL :  cpu time    9.4454: real time   10.3466
    CORREC:  cpu time    3.5179: real time    3.5681
    CHARGE:  cpu time    1.1029: real time    1.1030
    --------------------------------------------
      LOOP:  cpu time   14.6484: real time   15.6089

 eigenvalue-minimisations  :     0
 total energy-change (2. order) :-0.1620677E+00  (-0.1625832E+00)
 number of electron     179.9999996 magnetization       8.3636180
 augmentation part       58.2319630 magnetization       5.8824084

 Free energy of the ion-electron system (eV)
  ---------------------------------------------------
  alpha Z        PSCENC =       532.25742704
  Ewald energy   TEWEN  =     -8601.05107233
  -Hartree energ DENC   =     -1669.81414336
  -exchange      EXHF   =         0.00000000
  -V(xc)+E(xc)   XCENC  =      -665.95564563
  PAW double counting   =     13036.30295425   -12205.53887674
  entropy T*S    EENTRO =        -0.02186337
  eigenvalues    EBANDS =       872.90081132
  atomic energy  EATOM  =      8465.11600846
  ---------------------------------------------------
  free energy    TOTEN  =      -235.80457770 eV

  energy without entropy =     -235.78271433  energy(sigma->0) =     -235.79728991


--------------------------------------------------------------------------------------------------------




--------------------------------------- Iteration      1(  18)  ---------------------------------------


    POTLOK:  cpu time    0.2477: real time    0.2477
    SETDIJ:  cpu time    0.3408: real time    0.3409
    TRIAL :  cpu time    9.5881: real time    9.6414
    CORREC:  cpu time    3.6028: real time    3.6141
    CHARGE:  cpu time    1.1157: real time    1.1163
    --------------------------------------------
      LOOP:  cpu time   14.9003: real time   14.9659

 eigenvalue-minimisations  :     0
 total energy-change (2. order) :-0.1625908E+00  (-0.1062274E+00)
 number of electron     179.9999996 magnetization       8.3061970
 augmentation part       58.0851493 magnetization       5.8812497

 Free energy of the ion-electron system (eV)
  ---------------------------------------------------
  alpha Z        PSCENC =       532.25742704
  Ewald energy   TEWEN  =     -8601.05107233
  -Hartree energ DENC   =     -1677.19077075
  -exchange      EXHF   =         0.00000000
  -V(xc)+E(xc)   XCENC  =      -665.48271800
  PAW double counting   =     13003.07090718   -12174.53924307
  entropy T*S    EENTRO =        -0.02098902
  eigenvalues    EBANDS =       881.87415638
  atomic energy  EATOM  =      8465.11600846
  ---------------------------------------------------
  free energy    TOTEN  =      -235.96716847 eV

  energy without entropy =     -235.94617945  energy(sigma->0) =     -235.96017213


--------------------------------------------------------------------------------------------------------




--------------------------------------- Iteration      1(  19)  ---------------------------------------


    POTLOK:  cpu time    0.2477: real time    0.2477
    SETDIJ:  cpu time    0.3204: real time    0.3318
    TRIAL :  cpu time    9.5540: real time    9.5719
    CORREC:  cpu time    3.4801: real time    3.5043
    CHARGE:  cpu time    1.1447: real time    1.1456
    --------------------------------------------
      LOOP:  cpu time   14.7503: real time   14.8059

 eigenvalue-minimisations  :     0
 total energy-change (2. order) :-0.1056984E+00  (-0.4134094E-01)
 number of electron     179.9999996 magnetization       8.2733873
 augmentation part       57.9115834 magnetization       5.8720859

 Free energy of the ion-electron system (eV)
  ---------------------------------------------------
  alpha Z        PSCENC =       532.25742704
  Ewald energy   TEWEN  =     -8601.05107233
  -Hartree energ DENC   =     -1668.51001479
  -exchange      EXHF   =         0.00000000
  -V(xc)+E(xc)   XCENC  =      -665.62273619
  PAW double counting   =     12981.58227836   -12151.67627625
  entropy T*S    EENTRO =        -0.02080127
  eigenvalues    EBANDS =       871.85250783
  atomic energy  EATOM  =      8465.11600846
  ---------------------------------------------------
  free energy    TOTEN  =      -236.07286690 eV

  energy without entropy =     -236.05206563  energy(sigma->0) =     -236.06593314


--------------------------------------------------------------------------------------------------------




--------------------------------------- Iteration      1(  20)  ---------------------------------------


    POTLOK:  cpu time    0.2472: real time    0.2473
    SETDIJ:  cpu time    0.3228: real time    0.3230
    TRIAL :  cpu time   10.1661: real time   10.2172
    CORREC:  cpu time    3.5274: real time    3.5304
    CHARGE:  cpu time    1.1014: real time    1.1589
    --------------------------------------------
      LOOP:  cpu time   15.3672: real time   15.4800

 eigenvalue-minimisations  :     0
 total energy-change (2. order) :-0.4123569E-01  (-0.4718455E-01)
 number of electron     179.9999996 magnetization       8.1862958
 augmentation part       57.7942492 magnetization       5.8404870

 Free energy of the ion-electron system (eV)
  ---------------------------------------------------
  alpha Z        PSCENC =       532.25742704
  Ewald energy   TEWEN  =     -8601.05107233
  -Hartree energ DENC   =     -1659.84847344
  -exchange      EXHF   =         0.00000000
  -V(xc)+E(xc)   XCENC  =      -665.86125109
  PAW double counting   =     12971.73506291   -12140.09589751
  entropy T*S    EENTRO =        -0.01987003
  eigenvalues    EBANDS =       861.65489465
  atomic energy  EATOM  =      8465.11600846
  ---------------------------------------------------
  free energy    TOTEN  =      -236.11410259 eV

  energy without entropy =     -236.09423256  energy(sigma->0) =     -236.10747925


--------------------------------------------------------------------------------------------------------




--------------------------------------- Iteration      1(  21)  ---------------------------------------


    POTLOK:  cpu time    0.2470: real time    0.2471
    SETDIJ:  cpu time    0.4876: real time    1.1853
    TRIAL :  cpu time    9.5282: real time    9.6113
    CORREC:  cpu time    3.5120: real time    3.5520
    CHARGE:  cpu time    1.1210: real time    1.1217
    --------------------------------------------
      LOOP:  cpu time   14.8973: real time   15.7202

 eigenvalue-minimisations  :     0
 total energy-change (2. order) :-0.4722409E-01  (-0.3560959E-01)
 number of electron     179.9999996 magnetization       8.1432074
 augmentation part       57.8364769 magnetization       5.8284327

 Free energy of the ion-electron system (eV)
  ---------------------------------------------------
  alpha Z        PSCENC =       532.25742704
  Ewald energy   TEWEN  =     -8601.05107233
  -Hartree energ DENC   =     -1655.88536580
  -exchange      EXHF   =         0.00000000
  -V(xc)+E(xc)   XCENC  =      -665.89564277
  PAW double counting   =     12976.72156486   -12144.20007919
  entropy T*S    EENTRO =        -0.01928546
  eigenvalues    EBANDS =       856.79570310
  atomic energy  EATOM  =      8465.11600846
  ---------------------------------------------------
  free energy    TOTEN  =      -236.16132668 eV

  energy without entropy =     -236.14204122  energy(sigma->0) =     -236.15489819


--------------------------------------------------------------------------------------------------------




--------------------------------------- Iteration      1(  22)  ---------------------------------------


    POTLOK:  cpu time    0.2481: real time    0.2481
    SETDIJ:  cpu time    0.3211: real time    0.3211
    TRIAL :  cpu time    9.5921: real time    9.6866
    CORREC:  cpu time    3.5580: real time    3.5683
    CHARGE:  cpu time    1.1033: real time    1.1119
    --------------------------------------------
      LOOP:  cpu time   14.8247: real time   14.9386

 eigenvalue-minimisations  :     0
 total energy-change (2. order) :-0.3553815E-01  (-0.1319252E-01)
 number of electron     179.9999996 magnetization       8.1105788
 augmentation part       57.9245357 magnetization       5.8154698

 Free energy of the ion-electron system (eV)
  ---------------------------------------------------
  alpha Z        PSCENC =       532.25742704
  Ewald energy   TEWEN  =     -8601.05107233
  -Hartree energ DENC   =     -1660.10456256
  -exchange      EXHF   =         0.00000000
  -V(xc)+E(xc)   XCENC  =      -665.65716945
  PAW double counting   =     12995.79248162   -12164.08775659
  entropy T*S    EENTRO =        -0.01888601
  eigenvalues    EBANDS =       861.55706444
  atomic energy  EATOM  =      8465.11600846
  ---------------------------------------------------
  free energy    TOTEN  =      -236.19686484 eV

  energy without entropy =     -236.17797882  energy(sigma->0) =     -236.19056950


--------------------------------------------------------------------------------------------------------




--------------------------------------- Iteration      1(  23)  ---------------------------------------


    POTLOK:  cpu time    0.2476: real time    0.2476
    SETDIJ:  cpu time    0.3233: real time    0.3233
    TRIAL :  cpu time    9.5593: real time    9.5867
    CORREC:  cpu time    3.5197: real time    3.5402
    CHARGE:  cpu time    1.0984: real time    1.0986
    --------------------------------------------
[...]
  8.439  14.381  -0.000   0.000   0.000  -0.000   0.000   0.000
 14.381  24.508  -0.000   0.000   0.000  -0.000   0.000   0.001
 -0.000  -0.000   1.996  -0.000  -0.000   5.749  -0.000  -0.000
  0.000   0.000  -0.000   1.996   0.000  -0.000   5.748   0.000
  0.000   0.000  -0.000   0.000   1.996  -0.000   0.000   5.749
 -0.000  -0.000   5.749  -0.000  -0.000  16.476  -0.000  -0.000
  0.000   0.000  -0.000   5.748   0.000  -0.000  16.473   0.000
  0.000   0.001  -0.000   0.000   5.749  -0.000   0.000  16.476
 total augmentation occupancy for first ion, spin component:           1
  4.374  -1.251   0.001   0.001   0.002  -0.000  -0.000  -0.000
 -1.251   0.377  -0.000  -0.003  -0.001   0.000   0.000   0.000
  0.001  -0.000   1.424   0.002   0.004  -0.101  -0.000  -0.000
  0.001  -0.003   0.002   1.493  -0.002  -0.000  -0.101   0.000
  0.002  -0.001   0.004  -0.002   1.429  -0.000   0.000  -0.101
 -0.000   0.000  -0.101  -0.000  -0.000   0.008   0.000   0.000
 -0.000   0.000  -0.000  -0.101   0.000   0.000   0.007  -0.000
 -0.000   0.000  -0.000   0.000  -0.101   0.000  -0.000   0.008
 total augmentation occupancy for first ion, spin component:           2
 -0.078   0.023   0.018   0.025  -0.018  -0.001  -0.001   0.001
  0.023  -0.008   0.002   0.004  -0.002  -0.000  -0.000   0.000
  0.018   0.002  -0.027  -0.022  -0.045   0.002   0.000   0.001
  0.025   0.004  -0.022  -0.047   0.018   0.000   0.002  -0.000
 -0.018  -0.002  -0.045   0.018  -0.029   0.001  -0.000   0.002
 -0.001  -0.000   0.002   0.000   0.001  -0.000   0.000   0.000
 -0.001  -0.000   0.000   0.002  -0.000   0.000  -0.000  -0.000
  0.001   0.000   0.001  -0.000   0.002   0.000  -0.000  -0.000


------------------------ aborting loop because EDIFF is reached ----------------------------------------


 


 total charge     
 
# of ion       s       p       d       tot
------------------------------------------
    1        0.404   0.430   0.000   0.834
    2        0.404   0.430   0.000   0.834
    3        0.406   0.426   0.000   0.831
    4        0.406   0.426   0.000   0.831
    5        0.405   0.429   0.000   0.834
    6        0.405   0.429   0.000   0.834
    7        0.405   0.424   0.000   0.829
    8        0.405   0.425   0.000   0.830
    9        0.405   0.426   0.000   0.831
   10        0.405   0.426   0.000   0.831
   11        0.405   0.428   0.000   0.833
   12        0.405   0.428   0.000   0.833
   13        0.405   0.429   0.000   0.833
   14        0.405   0.429   0.000   0.834
   15        0.405   0.429   0.000   0.835
   16        0.405   0.429   0.000   0.834
   17        0.405   0.428   0.000   0.833
   18        0.405   0.428   0.000   0.833
   19        0.336   0.357   5.128   5.821
   20        0.334   0.351   5.142   5.828
   21        0.337   0.354   5.126   5.818
   22        0.335   0.355   5.130   5.820
   23        0.336   0.354   5.134   5.823
   24        0.332   0.359   5.124   5.815
   25        0.335   0.357   5.128   5.819
   26        0.337   0.352   5.132   5.821
   27        0.338   0.359   5.112   5.810
   28        0.340   0.355   5.116   5.811
   29        0.335   0.357   5.124   5.817
   30        0.332   0.355   5.135   5.823
   31        0.339   0.366   5.099   5.803
   32        0.341   0.353   5.120   5.814
   33        0.332   0.358   5.133   5.823
   34        0.333   0.356   5.131   5.820
   35        0.336   0.361   5.117   5.814
   36        0.335   0.351   5.137   5.823
--------------------------------------------------
tot         13.334  14.106  92.268 119.708
 


 magnetization (x)
 
# of ion       s       p       d       tot
------------------------------------------
    1       -0.007  -0.011   0.000  -0.018
    2       -0.007  -0.011   0.000  -0.018
    3       -0.005  -0.012   0.000  -0.018
    4       -0.005  -0.012   0.000  -0.017
    5       -0.008  -0.016   0.000  -0.024
    6       -0.008  -0.016   0.000  -0.024
    7       -0.009  -0.017   0.000  -0.026
    8       -0.009  -0.016   0.000  -0.025
    9       -0.008  -0.018   0.000  -0.026
   10       -0.008  -0.018   0.000  -0.025
   11       -0.003  -0.002   0.000  -0.005
   12       -0.003  -0.003   0.000  -0.006
   13       -0.004  -0.007   0.000  -0.011
   14       -0.003  -0.007   0.000  -0.011
   15        0.002   0.006   0.000   0.008
   16        0.002   0.006   0.000   0.008
   17        0.000   0.000   0.000   0.001
   18       -0.000  -0.001   0.000  -0.001
   19        0.024   0.020   2.250   2.294
   20        0.019   0.008   2.211   2.238
   21        0.029   0.016   2.432   2.477
   22        0.030   0.020   2.307   2.356
   23       -0.032  -0.018  -2.350  -2.399
   24        0.002   0.013   2.208   2.222
   25        0.037   0.024   2.309   2.369
   26        0.035   0.014   2.418   2.467
   27       -0.035  -0.024  -2.510  -2.570
   28       -0.035  -0.017  -2.547  -2.599
   29       -0.020  -0.014  -2.352  -2.386
   30        0.012   0.015   2.146   2.174
   31       -0.045  -0.037  -2.522  -2.604
   32       -0.037  -0.008  -2.608  -2.654
   33        0.022   0.016   2.146   2.184
   34       -0.013  -0.014  -2.287  -2.314
   35        0.038   0.028   2.314   2.380
   36        0.033   0.013   2.316   2.362
--------------------------------------------------
tot         -0.023  -0.102   7.883   7.759
 
    FORLOC:  cpu time    0.0293: real time    0.0293
    FORNL :  cpu time   13.3879: real time   14.2111
    STRESS:  cpu time   18.4689: real time   18.5876
    FORCOR:  cpu time    0.2716: real time    0.2716
    OFIELD:  cpu time    0.0017: real time    0.0017

  FORCE on cell =-STRESS in cart. coord.  units (eV):
  Direction    XX          YY          ZZ          XY          YZ          ZX
  --------------------------------------------------------------------------------------
  Alpha Z   532.25743   532.25743   532.25743
  Ewald   -2702.40749 -2702.40749 -3196.26924    -0.00000    -0.00000    -0.00000
  Hartree   718.77479   719.01491   226.97503     0.48850    -0.00000    -0.00000
  E(xc)    -760.50238  -760.58829  -760.94052    -0.24107    -0.00000    -0.00000
  Local     252.10750   250.81036  1258.17693    -1.54520     0.00000    -0.00000
  n-local  -107.58372  -108.12296  -116.78846    -0.08052    -0.16446    -0.08460
  augment   520.96481   521.51032   516.07437     0.56779     0.00001     0.00001
  Kinetic  1552.17241  1553.49216  1544.47999     2.17772     0.52149    -0.01007
  Fock        0.00000     0.00000     0.00000     0.00000     0.00000     0.00000
  -------------------------------------------------------------------------------------
  Total       5.78335     5.96642     3.96553     1.36722     0.00000     0.00000
  in kB      19.57839    20.19815    13.42452     4.62845     0.00000     0.00000
  external pressure =       17.73 kB  Pullay stress =        0.00 kB


 VOLUME and BASIS-vectors are now :
 -----------------------------------------------------------------------------
  energy-cutoff  :      404.80
  volume of cell :      473.27
      direct lattice vectors                 reciprocal lattice vectors
     8.250148166  0.000000000  0.000000000     0.121209944  0.000000000  0.000000000
     0.000000000  8.250148166  0.000000000     0.000000000  0.121209944  0.000000000
     0.000000000  0.000000000  6.953274261     0.000000000  0.000000000  0.143817137

  length of vectors
     8.250148166  8.250148166  6.953274261     0.121209944  0.121209944  0.143817137


 FORCES acting on ions:
    Electron-Ion                     Ewald-Force                    Non-Local-Force
 -----------------------------------------------------------------------------------------------
   0.194E-02 -.489E-02 -.109E+00   -.239E-08 -.239E-08 0.411E-08   -.225E-01 -.252E-01 0.188E-01
   0.194E-02 -.489E-02 0.109E+00   -.239E-08 -.239E-08 0.411E-08   -.225E-01 -.252E-01 -.188E-01
   0.117E+00 0.219E-01 -.232E-01   -.239E-08 -.802E-09 0.411E-08   -.924E-02 -.349E-02 0.829E-01
   0.117E+00 0.219E-01 0.232E-01   -.239E-08 -.802E-09 0.411E-08   -.924E-02 -.349E-02 -.829E-01
   -.386E-01 -.298E-01 0.899E-02   -.239E-08 0.631E-08 0.411E-08   -.582E-03 0.311E-01 0.230E-01
   -.386E-01 -.298E-01 -.899E-02   -.239E-08 0.631E-08 0.411E-08   -.582E-03 0.311E-01 -.230E-01
   -.188E-01 -.101E+00 0.167E-01   -.802E-09 -.239E-08 0.411E-08   0.195E-01 0.110E+00 -.111E+00
   -.188E-01 -.101E+00 -.167E-01   -.802E-09 -.239E-08 0.411E-08   0.195E-01 0.110E+00 0.111E+00
   -.137E-01 0.158E-01 0.268E-01   -.802E-09 -.802E-09 0.411E-08   -.420E-01 -.834E-01 -.339E-02
   -.137E-01 0.158E-01 -.268E-01   -.802E-09 -.802E-09 0.411E-08   -.420E-01 -.834E-01 0.339E-02
   -.718E-01 0.124E+00 0.104E-01   -.802E-09 0.631E-08 0.411E-08   0.971E-02 -.400E-01 -.390E-01
   -.718E-01 0.124E+00 -.104E-01   -.802E-09 0.631E-08 0.411E-08   0.971E-02 -.400E-01 0.390E-01
   -.215E-01 -.263E-01 -.147E+00   0.631E-08 -.239E-08 0.411E-08   0.369E-01 0.368E-01 0.499E-01
   -.215E-01 -.263E-01 0.147E+00   0.631E-08 -.239E-08 0.411E-08   0.369E-01 0.368E-01 -.499E-01
   -.619E-01 -.327E-01 -.114E+00   0.631E-08 -.802E-09 0.411E-08   0.511E-01 0.422E-02 0.598E-01
   -.619E-01 -.327E-01 0.114E+00   0.631E-08 -.802E-09 0.411E-08   0.511E-01 0.422E-02 -.598E-01
   0.132E+00 0.717E-01 0.161E-01   0.631E-08 0.631E-08 0.411E-08   -.624E-01 -.513E-01 0.351E-02
   0.132E+00 0.717E-01 -.161E-01   0.631E-08 0.631E-08 0.411E-08   -.624E-01 -.513E-01 -.351E-02
   0.367E+00 0.464E+00 -.494E-09   -.169E-07 -.169E-07 -.411E-08   -.272E+00 -.263E+00 0.000E+00
   0.270E+00 0.311E-01 -.162E-08   -.169E-07 -.169E-07 -.411E-08   -.268E+00 -.104E+00 0.000E+00
   -.520E+00 -.563E+00 0.555E-09   -.169E-07 0.802E-09 -.411E-08   0.415E+00 0.302E+00 0.000E+00
   0.219E-01 0.179E-01 -.447E-08   -.169E-07 0.802E-09 -.411E-08   0.797E-01 0.386E-01 0.000E+00
   0.334E+00 -.232E-01 -.349E-08   -.169E-07 0.130E-07 -.411E-08   -.168E+00 0.763E-01 0.000E+00
   0.635E-01 -.576E-01 -.197E-08   -.169E-07 0.130E-07 -.411E-08   0.147E-01 0.810E-01 0.000E+00
   -.408E+00 -.518E-01 -.310E-08   0.802E-09 -.169E-07 -.411E-08   0.184E+00 0.147E+00 0.000E+00
   -.347E+00 -.346E+00 0.152E-08   0.802E-09 -.169E-07 -.411E-08   0.106E+00 0.171E+00 0.000E+00
   0.127E+00 0.461E+00 -.208E-08   0.802E-09 0.802E-09 -.411E-08   -.151E+00 -.195E+00 0.000E+00
   0.597E+00 -.103E+00 -.137E-08   0.802E-09 0.802E-09 -.411E-08   -.338E+00 0.541E-01 0.000E+00
   -.134E+00 -.244E+00 -.630E-08   0.802E-09 0.130E-07 -.411E-08   0.906E-02 0.146E+00 0.000E+00
   -.442E-01 0.154E+00 0.118E-08   0.802E-09 0.130E-07 -.411E-08   -.337E-01 -.923E-01 0.000E+00
   -.163E+00 -.613E-01 0.194E-08   0.130E-07 -.169E-07 -.411E-08   0.112E+00 -.597E-01 0.000E+00
   -.793E-01 0.457E+00 -.467E-08   0.130E-07 -.169E-07 -.411E-08   0.120E+00 -.244E+00 0.000E+00
   0.177E+00 0.189E+00 0.267E-08   0.130E-07 0.802E-09 -.411E-08   0.315E-01 -.151E+00 0.000E+00
   -.351E+00 -.140E+00 -.783E-08   0.130E-07 0.802E-09 -.411E-08   0.188E+00 -.826E-01 0.000E+00
   0.458E-01 -.423E+00 -.114E-08   0.130E-07 0.130E-07 -.411E-08   0.194E-01 0.227E+00 0.000E+00
   -.383E-02 0.124E+00 -.486E-08   0.130E-07 0.130E-07 -.411E-08   -.177E-01 0.304E-01 0.000E+00
 -----------------------------------------------------------------------------------------------
   0.699E-02 -.401E-01 -.720E-07   -.197E-14 0.275E-13 0.265E-14   -.699E-02 0.401E-01 0.000E+00
 
 
 POSITION                                       TOTAL-FORCE (eV/Angst)
 -----------------------------------------------------------------------------------
      0.00000      0.00000      0.00000        -0.018701     -0.028073     -0.090446
      0.00000      0.00000      3.47664        -0.018701     -0.028073      0.090446
      0.00000      2.75005      0.00000         0.108895      0.018852      0.053335
      0.00000      2.75005      3.47664         0.108895      0.018852     -0.053335
      0.00000      5.50010      0.00000        -0.039495     -0.001586      0.030538
      0.00000      5.50010      3.47664        -0.039495     -0.001586     -0.030538
      2.75005      0.00000      0.00000        -0.001045     -0.001561     -0.084136
      2.75005      0.00000      3.47664        -0.001045     -0.001561      0.084136
      2.75005      2.75005      0.00000        -0.051793     -0.060094      0.024337
      2.75005      2.75005      3.47664        -0.051793     -0.060094     -0.024337
      2.75005      5.50010      0.00000        -0.063281      0.088571     -0.025158
      2.75005      5.50010      3.47664        -0.063281      0.088571      0.025158
      5.50010      0.00000      0.00000         0.012102      0.007568     -0.100569
      5.50010      0.00000      3.47664         0.012102      0.007568      0.100569
      5.50010      2.75005      0.00000        -0.014944     -0.028865     -0.058567
      5.50010      2.75005      3.47664        -0.014944     -0.028865      0.058567
      5.50010      5.50010      0.00000         0.075555      0.024804      0.019795
      5.50010      5.50010      3.47664         0.075555      0.024804     -0.019795
      1.37502      1.37502      1.73832         0.096894      0.210352      0.000000
      1.37502      1.37502      5.21496         0.003737     -0.070363      0.000000
      1.37502      4.12507      1.73832        -0.107780     -0.272264      0.000000
      1.37502      4.12507      5.21496         0.105239      0.053415      0.000000
      1.37502      6.87512      1.73832         0.169996      0.050811      0.000000
      1.37502      6.87512      5.21496         0.077915      0.021903      0.000000
      4.12507      1.37502      1.73832        -0.231015      0.095421      0.000000
      4.12507      1.37502      5.21496        -0.245757     -0.177375      0.000000
      4.12507      4.12507      1.73832        -0.023997      0.273559      0.000000
      4.12507      4.12507      5.21496         0.270315     -0.054759      0.000000
      4.12507      6.87512      1.73832        -0.118751     -0.098189      0.000000
      4.12507      6.87512      5.21496        -0.080232      0.053994      0.000000
      6.87512      1.37502      1.73832        -0.057028     -0.125084      0.000000
      6.87512      1.37502      5.21496         0.036701      0.222119      0.000000
      6.87512      4.12507      1.73832         0.203233      0.029088      0.000000
      6.87512      4.12507      5.21496        -0.164328     -0.218269      0.000000
      6.87512      6.87512      1.73832         0.069301     -0.195666      0.000000
      6.87512      6.87512      5.21496        -0.019026      0.162072      0.000000
 -----------------------------------------------------------------------------------
    total drift:                               -0.000006     -0.000025     -0.000000


--------------------------------------------------------------------------------------------------------



  FREE ENERGIE OF THE ION-ELECTRON SYSTEM (eV)
  ---------------------------------------------------
  free  energy   TOTEN  =      -236.26032377 eV

  energy  without entropy=     -236.24493385  energy(sigma->0) =     -236.25519379
 


--------------------------------------------------------------------------------------------------------


    POTLOK:  cpu time    0.6585: real time    0.6610


--------------------------------------------------------------------------------------------------------


     LOOP+:  cpu time 1128.7688: real time 1151.2971
    4ORBIT:  cpu time    0.0000: real time    0.0000
 


 total charge     
 
# of ion       s       p       d       tot
------------------------------------------
    1        0.404   0.430   0.000   0.834
    2        0.404   0.430   0.000   0.834
    3        0.406   0.426   0.000   0.831
    4        0.406   0.426   0.000   0.831
    5        0.405   0.429   0.000   0.834
    6        0.405   0.429   0.000   0.834
    7        0.405   0.424   0.000   0.829
    8        0.405   0.425   0.000   0.830
    9        0.405   0.426   0.000   0.831
   10        0.405   0.426   0.000   0.831
   11        0.405   0.428   0.000   0.833
   12        0.405   0.428   0.000   0.833
   13        0.405   0.429   0.000   0.833
   14        0.405   0.429   0.000   0.834
   15        0.405   0.429   0.000   0.835
   16        0.405   0.429   0.000   0.834
   17        0.405   0.428   0.000   0.833
   18        0.405   0.428   0.000   0.833
   19        0.336   0.357   5.128   5.821
   20        0.334   0.351   5.142   5.828
   21        0.337   0.354   5.126   5.818
   22        0.335   0.355   5.130   5.820
   23        0.336   0.354   5.134   5.823
   24        0.332   0.359   5.124   5.815
   25        0.335   0.357   5.128   5.819
   26        0.337   0.352   5.132   5.821
   27        0.338   0.359   5.112   5.810
   28        0.340   0.355   5.116   5.811
   29        0.335   0.357   5.124   5.817
   30        0.332   0.355   5.135   5.823
   31        0.339   0.366   5.099   5.803
   32        0.341   0.353   5.120   5.814
   33        0.332   0.358   5.133   5.823
   34        0.333   0.356   5.131   5.820
   35        0.336   0.361   5.117   5.814
   36        0.335   0.351   5.137   5.823
--------------------------------------------------
tot         13.334  14.106  92.268 119.708
 


 magnetization (x)
 
# of ion       s       p       d       tot
------------------------------------------
    1       -0.007  -0.011   0.000  -0.018
    2       -0.007  -0.011   0.000  -0.018
    3       -0.005  -0.012   0.000  -0.018
    4       -0.005  -0.012   0.000  -0.017
    5       -0.008  -0.016   0.000  -0.024
    6       -0.008  -0.016   0.000  -0.024
    7       -0.009  -0.017   0.000  -0.026
    8       -0.009  -0.016   0.000  -0.025
    9       -0.008  -0.018   0.000  -0.026
   10       -0.008  -0.018   0.000  -0.025
   11       -0.003  -0.002   0.000  -0.005
   12       -0.003  -0.003   0.000  -0.006
   13       -0.004  -0.007   0.000  -0.011
   14       -0.003  -0.007   0.000  -0.011
   15        0.002   0.006   0.000   0.008
   16        0.002   0.006   0.000   0.008
   17        0.000   0.000   0.000   0.001
   18       -0.000  -0.001   0.000  -0.001
   19        0.024   0.020   2.250   2.294
   20        0.019   0.008   2.211   2.238
   21        0.029   0.016   2.432   2.477
   22        0.030   0.020   2.307   2.356
   23       -0.032  -0.018  -2.350  -2.399
   24        0.002   0.013   2.208   2.222
   25        0.037   0.024   2.309   2.369
   26        0.035   0.014   2.418   2.467
   27       -0.035  -0.024  -2.510  -2.570
   28       -0.035  -0.017  -2.547  -2.599
   29       -0.020  -0.014  -2.352  -2.386
   30        0.012   0.015   2.146   2.174
   31       -0.045  -0.037  -2.522  -2.604
   32       -0.037  -0.008  -2.608  -2.654
   33        0.022   0.016   2.146   2.184
   34       -0.013  -0.014  -2.287  -2.314
   35        0.038   0.028   2.314   2.380
   36        0.033   0.013   2.316   2.362
--------------------------------------------------
tot         -0.023  -0.102   7.883   7.759
 

 total amount of memory used by VASP MPI-rank0   775081. kBytes
=======================================================================

   base      :      30000. kBytes
   nonl-proj :      34307. kBytes
   fftplans  :      21726. kBytes
   grid      :      14732. kBytes
   one-center:        279. kBytes
   wavefun   :     674037. kBytes
 
  
  
 General timing and accounting informations for this job:
 ========================================================
  
                  Total CPU time used (sec):     1155.377
                            User time (sec):     1134.090
                          System time (sec):       21.287
                         Elapsed time (sec):     1179.627
  
                   Maximum memory used (kb):      916364.
                   Average memory used (kb):           0.
  
                          Minor page faults:       399095
                          Major page faults:           14
                 Voluntary context switches:         4644
