 vasp.5.4.4.18Apr17-6-g9f103f2a35 (build Dec 20 2018 12:05:58) complex          
  
 executed on             LinuxIFC date 2019.06.20  23:22:56
 running on   32 total cores
 distrk:  each k-point on    8 cores,    4 groups
 distr:  one band on NCORES_PER_BAND=   4 cores,    2 groups


--------------------------------------------------------------------------------------------------------


 INCAR:
 POTCAR:    PAW_PBE Al 04Jan2001                  
 POTCAR:    PAW_PBE Mn 06Sep2000                  

 ----------------------------------------------------------------------------- 
|                                                                             |
|           W    W    AA    RRRRR   N    N  II  N    N   GGGG   !!!           |
|           W    W   A  A   R    R  NN   N  II  NN   N  G    G  !!!           |
|           W    W  A    A  R    R  N N  N  II  N N  N  G       !!!           |
|           W WW W  AAAAAA  RRRRR   N  N N  II  N  N N  G  GGG   !            |
|           WW  WW  A    A  R   R   N   NN  II  N   NN  G    G                |
|           W    W  A    A  R    R  N    N  II  N    N   GGGG   !!!           |
|                                                                             |
|      You have enabled k-point parallelism (KPAR>1).                         |
|      This developmental code was originally  written by Paul Kent at ORNL,  |
|      and carefully double checked in Vienna.                                |
|      GW as well as linear response parallelism added by Martijn Marsman     |
|      and Georg Kresse.                                                      |
|      Carefully verify results versus KPAR=1.                                |
|      Report problems to Paul Kent and Vienna.                               |
|                                                                             |
 ----------------------------------------------------------------------------- 

 POTCAR:    PAW_PBE Al 04Jan2001                  
   VRHFIN =Al: s2p1                                                             
   LEXCH  = PE                                                                  
   EATOM  =    53.5387 eV,    3.9350 Ry                                         
                                                                                
   TITEL  = PAW_PBE Al 04Jan2001                                                
   LULTRA =        F    use ultrasoft PP ?                                      
   IUNSCR =        1    unscreen: 0-lin 1-nonlin 2-no                           
   RPACOR =    1.500    partial core radius                                     
   POMASS =   26.981; ZVAL   =    3.000    mass and valenz                      
   RCORE  =    1.900    outmost cutoff radius                                   
   RWIGS  =    2.650; RWIGS  =    1.402    wigner-seitz radius (au A)           
   ENMAX  =  240.300; ENMIN  =  180.225 eV                                      
   ICORE  =        2    local potential                                         
   LCOR   =        T    correct aug charges                                     
   LPAW   =        T    paw PP                                                  
   EAUG   =  291.052                                                            
   DEXC   =    0.000                                                            
   RMAX   =    1.939    core radius for proj-oper                               
   RAUG   =    1.300    factor for augmentation sphere                          
   RDEP   =    1.966    radius for radial grids                                 
   RDEPT  =    1.856    core radius for aug-charge                              
                                                                                
   Atomic configuration                                                         
    6 entries                                                                   
     n  l   j            E        occ.                                          
     1  0  0.50     -1511.1048   2.0000                                         
     2  0  0.50      -108.1629   2.0000                                         
     2  1  1.50       -69.6402   6.0000                                         
     3  0  0.50        -7.7528   2.0000                                         
     3  1  1.50        -2.7121   1.0000                                         
     3  2  2.50        -2.7212   0.0000                                         
   Description                                                                  
     l       E           TYP  RCUT    TYP  RCUT                                 
     0     -7.7528455     23  1.900                                             
     0     -3.3096929     23  1.900                                             
     1     -2.7120682     23  1.900                                             
     1     13.6058260     23  1.900                                             
     2     -2.7211652      7  1.900                                             
  local pseudopotential read in
  partial core-charges read in
  partial kinetic energy density read in
  atomic valenz-charges read in
  non local Contribution for L=           0  read in
    real space projection operators read in
  non local Contribution for L=           0  read in
    real space projection operators read in
  non local Contribution for L=           1  read in
    real space projection operators read in
  non local Contribution for L=           1  read in
    real space projection operators read in
    PAW grid and wavefunctions read in
 
   number of l-projection  operators is LMAX  =           4
   number of lm-projection operators is LMMAX =           8
 
 POTCAR:    PAW_PBE Mn 06Sep2000                  
   VRHFIN =Mn: d6 s1                                                            
   LEXCH  = PE                                                                  
   EATOM  =   416.7541 eV,   30.6306 Ry                                         
                                                                                
   TITEL  = PAW_PBE Mn 06Sep2000                                                
   LULTRA =        F    use ultrasoft PP ?                                      
   IUNSCR =        1    unscreen: 0-lin 1-nonlin 2-no                           
   RPACOR =    2.000    partial core radius                                     
   POMASS =   54.938; ZVAL   =    7.000    mass and valenz                      
   RCORE  =    2.300    outmost cutoff radius                                   
   RWIGS  =    2.500; RWIGS  =    1.323    wigner-seitz radius (au A)           
   ENMAX  =  269.864; ENMIN  =  202.398 eV                                      
   RCLOC  =    1.725    cutoff for local pot                                    
   LCOR   =        T    correct aug charges                                     
   LPAW   =        T    paw PP                                                  
   EAUG   =  500.711                                                            
   DEXC   =    0.000                                                            
   RMAX   =    2.343    core radius for proj-oper                               
   RAUG   =    1.300    factor for augmentation sphere                          
   RDEP   =    2.338    radius for radial grids                                 
   RDEPT  =    1.911    core radius for aug-charge                              
                                                                                
   Atomic configuration                                                         
    9 entries                                                                   
     n  l   j            E        occ.                                          
     1  0  0.50     -6424.8288   2.0000                                         
     2  0  0.50      -739.1154   2.0000                                         
     2  1  1.50      -625.3949   6.0000                                         
     3  0  0.50       -81.6100   2.0000                                         
     3  1  1.50       -50.4667   6.0000                                         
     3  2  2.50        -3.3745   6.0000                                         
     4  0  0.50        -4.1331   1.0000                                         
     4  1  0.50        -4.0817   0.0000                                         
     4  3  2.50        -1.3606   0.0000                                         
   Description                                                                  
     l       E           TYP  RCUT    TYP  RCUT                                 
     2     -3.3744664     23  2.300                                             
     2     -4.7350490     23  2.300                                             
     0     -4.1331408     23  2.300                                             
     0      7.6656614     23  2.300                                             
     1     -2.7211652     23  2.300                                             
     1     20.4087390     23  2.300                                             
  local pseudopotential read in
  partial core-charges read in
  partial kinetic energy density read in
  atomic valenz-charges read in
  non local Contribution for L=           2  read in
    real space projection operators read in
  non local Contribution for L=           2  read in
    real space projection operators read in
  non local Contribution for L=           0  read in
    real space projection operators read in
  non local Contribution for L=           0  read in
    real space projection operators read in
  non local Contribution for L=           1  read in
    real space projection operators read in
  non local Contribution for L=           1  read in
    real space projection operators read in
    PAW grid and wavefunctions read in
 
   number of l-projection  operators is LMAX  =           6
   number of lm-projection operators is LMMAX =          18
 

 ----------------------------------------------------------------------------- 
|                                                                             |
|  ADVICE TO THIS USER RUNNING 'VASP/VAMP'   (HEAR YOUR MASTER'S VOICE ...):  |
|                                                                             |
|      You have a (more or less) 'large supercell' and for larger cells       |
|      it might be more efficient to use real space projection opertators     |
|      So try LREAL= Auto  in the INCAR   file.                               |
|      Mind:          For very  accurate calculation you might also keep the  |
|      reciprocal projection scheme          (i.e. LREAL=.FALSE.)             |
|                                                                             |
 ----------------------------------------------------------------------------- 

  PAW_PBE Al 04Jan2001                  :
 energy of atom  1       EATOM=  -53.5387
 kinetic energy error for atom=    0.0005 (will be added to EATOM!!)
  PAW_PBE Mn 06Sep2000                  :
 energy of atom  2       EATOM= -416.7541
 kinetic energy error for atom=    0.0080 (will be added to EATOM!!)
 
 
 POSCAR: NewRef: 27, @ ['Mn', array([1.37502469, 
  positions in cartesian coordinates
  velocities in cartesian coordinates
  No initial velocities read in
 exchange correlation table for  LEXCH =        8
   RHO(1)=    0.500       N(1)  =     2000
   RHO(2)=  100.500       N(2)  =     4000
 


--------------------------------------------------------------------------------------------------------


 ion  position               nearest neighbor table
   1  0.000  0.000  0.000-  28 2.61  30 2.61  34 2.61  36 2.61  46 2.61  48 2.61  52 2.61  54 2.61
                             4 2.75  10 2.75   7 2.75  19 2.75
   2  0.000  0.000  0.333-  28 2.61  34 2.61  46 2.61  52 2.61  29 2.61  47 2.61  35 2.61  53 2.61
                             5 2.75  11 2.75   8 2.75  20 2.75
   3  0.000  0.000  0.667-  29 2.61  35 2.61  47 2.61  53 2.61  30 2.61  48 2.61  36 2.61  54 2.61
                             6 2.75  12 2.75   9 2.75  21 2.75
   4  0.000  0.333  0.000-  28 2.61  30 2.61  46 2.61  48 2.61  31 2.61  33 2.61  49 2.61  51 2.61
                            13 2.75   1 2.75   7 2.75  22 2.75
   5  0.000  0.333  0.333-  28 2.61  46 2.61  31 2.61  49 2.61  47 2.61  29 2.61  32 2.61  50 2.61
                            14 2.75   2 2.75   8 2.75  23 2.75
   6  0.000  0.333  0.667-  29 2.61  47 2.61  32 2.61  50 2.61  48 2.61  30 2.61  33 2.61  51 2.61
                            15 2.75   3 2.75   9 2.75  24 2.75
   7  0.000  0.667  0.000-  31 2.61  33 2.61  49 2.61  51 2.61  34 2.61  36 2.61  52 2.61  54 2.61
                             4 2.75  16 2.75   1 2.75  25 2.75
   8  0.000  0.667  0.333-  31 2.61  49 2.61  34 2.61  52 2.61  50 2.61  32 2.61  35 2.61  53 2.61
                             5 2.75  17 2.75   2 2.75  26 2.75
   9  0.000  0.667  0.667-  32 2.61  50 2.61  35 2.61  53 2.61  51 2.61  33 2.61  36 2.61  54 2.61
                             6 2.75  18 2.75   3 2.75  27 2.75
  10  0.333  0.000  0.000-  28 2.61  30 2.61  34 2.61  36 2.61  37 2.61  39 2.61  43 2.61  45 2.61
                            19 2.75   1 2.75  13 2.75  16 2.75
  11  0.333  0.000  0.333-  28 2.61  34 2.61  37 2.61  43 2.61  29 2.61  35 2.61  38 2.61  44 2.61
                            20 2.75   2 2.75  14 2.75  17 2.75
  12  0.333  0.000  0.667-  29 2.61  35 2.61  38 2.61  44 2.61  30 2.61  36 2.61  39 2.61  45 2.61
                            21 2.75   3 2.75  15 2.75  18 2.75
  13  0.333  0.333  0.000-  28 2.61  30 2.61  31 2.61  33 2.61  37 2.61  39 2.61  40 2.61  42 2.61
                             4 2.75  10 2.75  16 2.75  22 2.75
  14  0.333  0.333  0.333-  28 2.61  31 2.61  37 2.61  29 2.61  40 2.61  38 2.61  32 2.61  41 2.61
                             5 2.75  11 2.75  17 2.75  23 2.75
  15  0.333  0.333  0.667-  29 2.61  32 2.61  38 2.61  30 2.61  41 2.61  39 2.61  33 2.61  42 2.61
                             6 2.75  12 2.75  18 2.75  24 2.75
  16  0.333  0.667  0.000-  31 2.61  33 2.61  34 2.61  36 2.61  40 2.61  42 2.61  43 2.61  45 2.61
                            25 2.75   7 2.75  13 2.75  10 2.75
  17  0.333  0.667  0.333-  31 2.61  34 2.61  40 2.61  32 2.61  43 2.61  41 2.61  35 2.61  44 2.61
                            26 2.75   8 2.75  14 2.75  11 2.75
  18  0.333  0.667  0.667-  32 2.61  35 2.61  41 2.61  33 2.61  44 2.61  42 2.61  36 2.61  45 2.61
                            27 2.75   9 2.75  15 2.75  12 2.75
  19  0.667  0.000  0.000-  37 2.61  39 2.61  43 2.61  45 2.61  46 2.61  48 2.61  52 2.61  54 2.61
                            10 2.75  22 2.75   1 2.75  25 2.75
  20  0.667  0.000  0.333-  37 2.61  43 2.61  46 2.61  52 2.61  38 2.61  44 2.61  47 2.61  53 2.61
                            11 2.75  23 2.75   2 2.75  26 2.75
  21  0.667  0.000  0.667-  38 2.61  44 2.61  47 2.61  53 2.61  39 2.61  45 2.61  48 2.61  54 2.61
                            12 2.75  24 2.75   3 2.75  27 2.75
  22  0.667  0.333  0.000-  37 2.61  39 2.61  40 2.61  42 2.61  46 2.61  48 2.61  49 2.61  51 2.61
                            25 2.75  13 2.75  19 2.75   4 2.75
  23  0.667  0.333  0.333-  37 2.61  40 2.61  46 2.61  38 2.61  49 2.61  47 2.61  41 2.61  50 2.61
                            26 2.75  14 2.75  20 2.75   5 2.75
  24  0.667  0.333  0.667-  38 2.61  41 2.61  47 2.61  39 2.61  50 2.61  48 2.61  42 2.61  51 2.61
                            27 2.75  15 2.75  21 2.75   6 2.75
  25  0.667  0.667  0.000-  40 2.61  42 2.61  43 2.61  45 2.61  49 2.61  51 2.61  52 2.61  54 2.61
                            16 2.75  22 2.75  19 2.75   7 2.75
  26  0.667  0.667  0.333-  40 2.61  43 2.61  49 2.61  41 2.61  52 2.61  50 2.61  44 2.61  53 2.61
                            17 2.75  23 2.75  20 2.75   8 2.75
  27  0.667  0.667  0.667-  41 2.61  44 2.61  50 2.61  42 2.61  53 2.61  51 2.61  45 2.61  54 2.61
                            18 2.75  24 2.75  21 2.75   9 2.75
  28  0.167  0.167  0.167-  14 2.61  11 2.61   5 2.61  13 2.61   2 2.61  10 2.61   4 2.61   1 2.61
                            31 2.75  37 2.75  34 2.75  46 2.75
  29  0.167  0.167  0.500-  15 2.61  12 2.61   6 2.61  14 2.61   3 2.61  11 2.61   5 2.61   2 2.61
                            32 2.75  38 2.75  35 2.75  47 2.75
  30  0.167  0.167  0.833-  13 2.61  15 2.61  10 2.61  12 2.61   4 2.61   6 2.61   1 2.61   3 2.61
                            33 2.75  39 2.75  36 2.75  48 2.75
  31  0.167  0.500  0.167-  17 2.61  14 2.61   8 2.61  16 2.61   5 2.61  13 2.61   7 2.61   4 2.61
                            28 2.75  34 2.75  40 2.75  49 2.75
  32  0.167  0.500  0.500-  18 2.61  15 2.61   9 2.61  17 2.61   6 2.61  14 2.61   8 2.61   5 2.61
                            29 2.75  35 2.75  41 2.75  50 2.75
  33  0.167  0.500  0.833-  16 2.61  18 2.61  13 2.61  15 2.61   7 2.61   9 2.61   4 2.61   6 2.61
                            30 2.75  36 2.75  42 2.75  51 2.75
  34  0.167  0.833  0.167-  11 2.61  17 2.61   2 2.61   8 2.61  16 2.61  10 2.61   7 2.61   1 2.61
                            31 2.75  43 2.75  28 2.75  52 2.75
  35  0.167  0.833  0.500-  12 2.61  18 2.61   3 2.61   9 2.61  17 2.61  11 2.61   8 2.61   2 2.61
                            32 2.75  44 2.75  29 2.75  53 2.75
  36  0.167  0.833  0.833-  10 2.61  12 2.61  16 2.61  18 2.61   1 2.61   3 2.61   7 2.61   9 2.61
                            33 2.75  45 2.75  30 2.75  54 2.75
  37  0.500  0.167  0.167-  23 2.61  20 2.61  14 2.61  22 2.61  11 2.61  19 2.61  13 2.61  10 2.61
                            28 2.75  40 2.75  46 2.75  43 2.75
  38  0.500  0.167  0.500-  24 2.61  21 2.61  15 2.61  23 2.61  12 2.61  20 2.61  14 2.61  11 2.61
                            29 2.75  41 2.75  47 2.75  44 2.75
  39  0.500  0.167  0.833-  22 2.61  24 2.61  19 2.61  21 2.61  13 2.61  15 2.61  10 2.61  12 2.61
                            30 2.75  42 2.75  48 2.75  45 2.75
  40  0.500  0.500  0.167-  26 2.61  23 2.61  17 2.61  25 2.61  14 2.61  22 2.61  16 2.61  13 2.61
                            31 2.75  37 2.75  43 2.75  49 2.75
  41  0.500  0.500  0.500-  27 2.61  24 2.61  18 2.61  26 2.61  15 2.61  23 2.61  17 2.61  14 2.61
                            32 2.75  38 2.75  44 2.75  50 2.75
  42  0.500  0.500  0.833-  25 2.61  27 2.61  22 2.61  24 2.61  16 2.61  18 2.61  13 2.61  15 2.61
                            33 2.75  39 2.75  45 2.75  51 2.75
  43  0.500  0.833  0.167-  20 2.61  26 2.61  11 2.61  17 2.61  25 2.61  19 2.61  16 2.61  10 2.61
                            34 2.75  40 2.75  52 2.75  37 2.75
  44  0.500  0.833  0.500-  21 2.61  27 2.61  12 2.61  18 2.61  26 2.61  20 2.61  17 2.61  11 2.61
                            35 2.75  41 2.75  53 2.75  38 2.75
  45  0.500  0.833  0.833-  19 2.61  21 2.61  25 2.61  27 2.61  10 2.61  12 2.61  16 2.61  18 2.61
                            36 2.75  42 2.75  54 2.75  39 2.75
  46  0.833  0.167  0.167-   5 2.61  23 2.61  20 2.61   2 2.61  22 2.61   4 2.61  19 2.61   1 2.61
                            37 2.75  49 2.75  28 2.75  52 2.75
  47  0.833  0.167  0.500-   6 2.61  24 2.61  21 2.61   3 2.61  23 2.61   5 2.61  20 2.61   2 2.61
                            38 2.75  50 2.75  29 2.75  53 2.75
  48  0.833  0.167  0.833-   4 2.61   6 2.61  22 2.61  24 2.61  19 2.61  21 2.61   1 2.61   3 2.61
                            39 2.75  51 2.75  30 2.75  54 2.75
  49  0.833  0.500  0.167-   8 2.61  26 2.61  23 2.61   5 2.61  25 2.61   7 2.61  22 2.61   4 2.61
                            40 2.75  46 2.75  52 2.75  31 2.75
  50  0.833  0.500  0.500-   9 2.61  27 2.61  24 2.61   6 2.61  26 2.61   8 2.61  23 2.61   5 2.61
                            41 2.75  47 2.75  53 2.75  32 2.75
  51  0.833  0.500  0.833-   7 2.61   9 2.61  25 2.61  27 2.61  22 2.61  24 2.61   4 2.61   6 2.61
                            42 2.75  48 2.75  54 2.75  33 2.75
  52  0.833  0.833  0.167-   2 2.61   8 2.61  20 2.61  26 2.61  19 2.61   7 2.61  25 2.61   1 2.61
                            43 2.75  49 2.75  46 2.75  34 2.75
  53  0.833  0.833  0.500-   3 2.61   9 2.61  21 2.61  27 2.61  20 2.61   8 2.61  26 2.61   2 2.61
                            44 2.75  50 2.75  47 2.75  35 2.75
  54  0.833  0.833  0.833-   1 2.61   3 2.61   7 2.61   9 2.61  19 2.61  21 2.61  25 2.61  27 2.61
                            45 2.75  51 2.75  48 2.75  36 2.75
 
  LATTYP: Found a simple tetragonal cell.
 ALAT       =     8.2501481662
 C/A-ratio  =     1.2642089792
  
  Lattice vectors:
  
 A1 = (   8.2501481662,   0.0000000000,   0.0000000000)
 A2 = (   0.0000000000,   8.2501481662,   0.0000000000)
 A3 = (   0.0000000000,   0.0000000000,  10.4299113916)


Analysis of symmetry for initial positions (statically):
=====================================================================
 Subroutine PRICEL returns following result:
 
  LATTYP: Found a simple tetragonal cell.
 ALAT       =     2.7500493888
 C/A-ratio  =     1.2642089792
  
  Lattice vectors:
  
 A1 = (   2.7500493888,   0.0000000000,   0.0000000000)
 A2 = (   0.0000000000,   2.7500493888,   0.0000000000)
 A3 = (   0.0000000000,   0.0000000000,   3.4766371306)
 
  27 primitive cells build up your supercell.
 

 Routine SETGRP: Setting up the symmetry group for a 
 simple tetragonal supercell.


 Subroutine GETGRP returns: Found 16 space group operations
 (whereof 16 operations were pure point group operations)
 out of a pool of 16 trial point group operations.


The static configuration has the point symmetry D_4h.


Analysis of symmetry for dynamics (positions and initial velocities):
=====================================================================
 Subroutine PRICEL returns following result:
 
  LATTYP: Found a simple tetragonal cell.
 ALAT       =     2.7500493888
 C/A-ratio  =     1.2642089792
  
  Lattice vectors:
  
 A1 = (   2.7500493888,   0.0000000000,   0.0000000000)
 A2 = (   0.0000000000,   2.7500493888,   0.0000000000)
 A3 = (   0.0000000000,   0.0000000000,   3.4766371306)
 
  27 primitive cells build up your supercell.
 

 Routine SETGRP: Setting up the symmetry group for a 
 simple tetragonal supercell.


 Subroutine GETGRP returns: Found 16 space group operations
 (whereof 16 operations were pure point group operations)
 out of a pool of 16 trial point group operations.


The dynamic configuration has the point symmetry D_4h.


Analysis of structural, dynamic, and magnetic symmetry:
=====================================================================
 Subroutine PRICEL returns:
 Original cell was already a primitive cell.
 

 Routine SETGRP: Setting up the symmetry group for a 
 simple tetragonal supercell.


 Subroutine GETGRP returns: Found  2 space group operations
 (whereof  1 operations were pure point group operations)
 out of a pool of 16 trial point group operations.


The magnetic configuration has the point symmetry C_1 .
 The point group associated with its full space group is C_1h.


 Subroutine INISYM returns: Found  2 space group operations
 (whereof  1 operations are pure point group operations),
 and found     1 'primitive' translations

 
 
 KPOINTS: automatic KPOINTS                       

Automatic generation of k-mesh.
 generate k-points for:    5    5    4
Space group operators:
 irot       det(A)        alpha          n_x          n_y          n_z        tau_x        tau_y        tau_z
    1     1.000000     0.000001     1.000000     0.000000     0.000000     0.000000     0.000000     0.000000
    2    -1.000000   180.000000     1.000000     0.000000     0.000000     0.666667     0.000000     0.000000
 
 Subroutine IBZKPT returns following result:
 ===========================================
 
 Found     33 irreducible k-points:
 
 Following reciprocal coordinates:
            Coordinates               Weight
  0.000000  0.000000  0.000000      1.000000
  0.200000  0.000000  0.000000      2.000000
  0.400000  0.000000  0.000000      2.000000
  0.000000  0.200000  0.000000      2.000000
  0.200000  0.200000  0.000000      4.000000
  0.400000  0.200000  0.000000      4.000000
  0.000000  0.400000  0.000000      2.000000
  0.200000  0.400000  0.000000      4.000000
  0.400000  0.400000  0.000000      4.000000
  0.000000  0.000000  0.250000      2.000000
  0.200000  0.000000  0.250000      4.000000
  0.400000  0.000000  0.250000      4.000000
  0.000000  0.200000  0.250000      2.000000
  0.200000  0.200000  0.250000      4.000000
  0.400000  0.200000  0.250000      4.000000
  0.000000  0.400000  0.250000      2.000000
  0.200000  0.400000  0.250000      4.000000
  0.400000  0.400000  0.250000      4.000000
  0.000000 -0.400000  0.250000      2.000000
  0.200000 -0.400000  0.250000      4.000000
  0.400000 -0.400000  0.250000      4.000000
  0.000000 -0.200000  0.250000      2.000000
  0.200000 -0.200000  0.250000      4.000000
  0.400000 -0.200000  0.250000      4.000000
  0.000000  0.000000  0.500000      1.000000
  0.200000  0.000000  0.500000      2.000000
  0.400000  0.000000  0.500000      2.000000
  0.000000  0.200000  0.500000      2.000000
  0.200000  0.200000  0.500000      4.000000
  0.400000  0.200000  0.500000      4.000000
  0.000000  0.400000  0.500000      2.000000
  0.200000  0.400000  0.500000      4.000000
  0.400000  0.400000  0.500000      4.000000
 
 Following cartesian coordinates:
            Coordinates               Weight
  0.000000  0.000000  0.000000      1.000000
  0.024242  0.000000  0.000000      2.000000
  0.048484  0.000000  0.000000      2.000000
  0.000000  0.024242  0.000000      2.000000
  0.024242  0.024242  0.000000      4.000000
  0.048484  0.024242  0.000000      4.000000
  0.000000  0.048484  0.000000      2.000000
  0.024242  0.048484  0.000000      4.000000
  0.048484  0.048484  0.000000      4.000000
  0.000000  0.000000  0.023970      2.000000
  0.024242  0.000000  0.023970      4.000000
  0.048484  0.000000  0.023970      4.000000
  0.000000  0.024242  0.023970      2.000000
  0.024242  0.024242  0.023970      4.000000
  0.048484  0.024242  0.023970      4.000000
  0.000000  0.048484  0.023970      2.000000
  0.024242  0.048484  0.023970      4.000000
  0.048484  0.048484  0.023970      4.000000
  0.000000 -0.048484  0.023970      2.000000
  0.024242 -0.048484  0.023970      4.000000
  0.048484 -0.048484  0.023970      4.000000
  0.000000 -0.024242  0.023970      2.000000
  0.024242 -0.024242  0.023970      4.000000
  0.048484 -0.024242  0.023970      4.000000
  0.000000  0.000000  0.047939      1.000000
  0.024242  0.000000  0.047939      2.000000
  0.048484  0.000000  0.047939      2.000000
  0.000000  0.024242  0.047939      2.000000
  0.024242  0.024242  0.047939      4.000000
  0.048484  0.024242  0.047939      4.000000
  0.000000  0.048484  0.047939      2.000000
  0.024242  0.048484  0.047939      4.000000
  0.048484  0.048484  0.047939      4.000000
 


--------------------------------------------------------------------------------------------------------




 Dimension of arrays:
   k-points           NKPTS =     33   k-points in BZ     NKDIM =     33   number of bands    NBANDS=    162
   number of dos      NEDOS =    301   number of ions     NIONS =     54
   non local maximal  LDIM  =      6   non local SUM 2l+1 LMDIM =     18
   total plane-waves  NPLWV = 204120
   max r-space proj   IRMAX =      1   max aug-charges    IRDMAX=  89713
   dimension x,y,z NGX =    54 NGY =   54 NGZ =   70
   dimension x,y,z NGXF=   108 NGYF=  108 NGZF=  140
   support grid    NGXF=   216 NGYF=  216 NGZF=  280
   ions per type =              27  27
   NGX,Y,Z   is equivalent  to a cutoff of  10.88, 10.88, 11.16 a.u.
   NGXF,Y,Z  is equivalent  to a cutoff of  21.76, 21.76, 22.32 a.u.

 SYSTEM =  AlMn_pv                                 
 POSCAR =  NewRef: 27, @ ['Mn', array([1.37502469, 

 Startparameter for this run:
   NWRITE =      2    write-flag & timer
   PREC   = accura    normal or accurate (medium, high low for compatibility)
   ISTART =      0    job   : 0-new  1-cont  2-samecut
   ICHARG =      2    charge: 1-file 2-atom 10-const
   ISPIN  =      2    spin polarized calculation?
   LNONCOLLINEAR =      F non collinear calculations
   LSORBIT =      F    spin-orbit coupling
   INIWAV =      1    electr: 0-lowe 1-rand  2-diag
   LASPH  =      F    aspherical Exc in radial PAW
   METAGGA=      F    non-selfconsistent MetaGGA calc.

 Electronic Relaxation 1
   ENCUT  =  404.8 eV  29.75 Ry    5.45 a.u.  13.53 13.53 17.11*2*pi/ulx,y,z
   ENINI  =  404.8     initial cutoff
   ENAUG  =  500.7 eV  augmentation charge cutoff
   NELM   =    100;   NELMIN=  4; NELMDL= -8     # of ELM steps 
   EDIFF  = 0.1E-06   stopping-criterion for ELM
   LREAL  =      F    real-space projection
   NLSPLINE    = F    spline interpolate recip. space projectors
   LCOMPAT=      F    compatible to vasp.4.4
   GGA_COMPAT  = T    GGA compatible to vasp.4.4-vasp.4.6
   LMAXPAW     = -100 max onsite density
   LMAXMIX     =    2 max onsite mixed and CHGCAR
   VOSKOWN=      0    Vosko Wilk Nusair interpolation
   ROPT   =    0.00000   0.00000
 Ionic relaxation
   EDIFFG = 0.1E-05   stopping-criterion for IOM
   NSW    =      0    number of steps for IOM
   NBLOCK =      1;   KBLOCK =      1    inner block; outer block 
   IBRION =     -1    ionic relax: 0-MD 1-quasi-New 2-CG
   NFREE  =      0    steps in history (QN), initial steepest desc. (CG)
   ISIF   =      2    stress and relaxation
   IWAVPR =     10    prediction:  0-non 1-charg 2-wave 3-comb
   ISYM   =      2    0-nonsym 1-usesym 2-fastsym
   LCORR  =      T    Harris-Foulkes like correction to forces

   POTIM  = 0.2000    time-step for ionic-motion
   TEIN   =    0.0    initial temperature
   TEBEG  =    0.0;   TEEND  =   0.0 temperature during run
   SMASS  =  -3.00    Nose mass-parameter (am)
   estimated Nose-frequenzy (Omega)   =  0.10E-29 period in steps =****** mass=  -0.156E-26a.u.
   SCALEE = 1.0000    scale energy and forces
   NPACO  =    256;   APACO  = 16.0  distance and # of slots for P.C.
   PSTRESS=    0.0 pullay stress

  Mass of Ions in am
   POMASS =  26.98 54.94
  Ionic Valenz
   ZVAL   =   3.00  7.00
  Atomic Wigner-Seitz radii
   RWIGS  =  -1.00 -1.00
  virtual crystal weights 
   VCA    =   1.00  1.00
   NELECT =     270.0000    total number of electrons
   NUPDOWN=      -1.0000    fix difference up-down

 DOS related values:
   EMIN   =  10.00;   EMAX   =-10.00  energy-range for DOS
   EFERMI =   0.00
   ISMEAR =     1;   SIGMA  =   0.20  broadening in eV -4-tet -1-fermi 0-gaus

 Electronic relaxation 2 (details)
   IALGO  =     58    algorithm
   LDIAG  =      T    sub-space diagonalisation (order eigenvalues)
   LSUBROT=      F    optimize rotation matrix (better conditioning)
   TURBO    =      0    0=normal 1=particle mesh
   IRESTART =      0    0=no restart 2=restart with 2 vectors
   NREBOOT  =      0    no. of reboots
   NMIN     =      0    reboot dimension
   EREF     =   0.00    reference energy to select bands
   IMIX   =      4    mixing-type and parameters
     AMIX     =   0.40;   BMIX     =  1.00
     AMIX_MAG =   1.60;   BMIX_MAG =  1.00
     AMIN     =   0.10
     WC   =   100.;   INIMIX=   1;  MIXPRE=   1;  MAXMIX= -45

 Intra band minimization:
   WEIMIN = 0.0000     energy-eigenvalue tresh-hold
   EBREAK =  0.15E-09  absolut break condition
   DEPER  =   0.30     relativ break condition  

   TIME   =   0.40     timestep for ELM

  volume/ion in A,a.u.               =      13.15        88.72
  Fermi-wavevector in a.u.,A,eV,Ry     =   1.186118  2.241439 19.141722  1.406877
  Thomas-Fermi vector in A             =   2.322298
 
 Write flags
   LWAVE        =      F    write WAVECAR
   LDOWNSAMPLE  =      F    k-point downsampling of WAVECAR
   LCHARG       =      F    write CHGCAR
   LVTOT        =      F    write LOCPOT, total local potential
   LVHAR        =      F    write LOCPOT, Hartree potential only
   LELF         =      F    write electronic localiz. function (ELF)
   LORBIT       =     10    0 simple, 1 ext, 2 COOP (PROOUT), +10 PAW based schemes


 Dipole corrections
   LMONO  =      F    monopole corrections only (constant potential shift)
   LDIPOL =      F    correct potential (dipole corrections)
   IDIPOL =      0    1-x, 2-y, 3-z, 4-all directions 
   EPSILON=  1.0000000 bulk dielectric constant

 Exchange correlation treatment:
   GGA     =    --    GGA type
   LEXCH   =     8    internal setting for exchange type
   VOSKOWN=      0    Vosko Wilk Nusair interpolation
   LHFCALC =     F    Hartree Fock is set to
   LHFONE  =     F    Hartree Fock one center treatment
   AEXX    =    0.0000 exact exchange contribution

 Linear response parameters
   LEPSILON=     F    determine dielectric tensor
   LRPA    =     F    only Hartree local field effects (RPA)
   LNABLA  =     F    use nabla operator in PAW spheres
   LVEL    =     F    velocity operator in full k-point grid
   LINTERFAST=   F  fast interpolation
   KINTER  =     0    interpolate to denser k-point grid
   CSHIFT  =0.1000    complex shift for real part using Kramers Kronig
   OMEGAMAX=  -1.0    maximum frequency
   DEG_THRESHOLD= 0.2000000E-02 threshold for treating states as degnerate
   RTIME   =   -0.100 relaxation time in fs
  (WPLASMAI=    0.000 imaginary part of plasma frequency in eV, 0.658/RTIME)
   DFIELD  = 0.0000000 0.0000000 0.0000000 field for delta impulse in time
 
 Orbital magnetization related:
   ORBITALMAG=     F  switch on orbital magnetization
   LCHIMAG   =     F  perturbation theory with respect to B field
   DQ        =  0.001000  dq finite difference perturbation B field
   LLRAUG    =     F  two centre corrections for induced B field



--------------------------------------------------------------------------------------------------------


 Static calculation
 charge density and potential will be updated during run
 spin polarized calculation
 Conjugate gradient for all bands (Freysoldt, et al. PRB 79, 241103 (2009))
 preconditioned conjugated gradient                                        
 perform sub-space diagonalisation
    before iterative eigenvector-optimisation
 modified Broyden-mixing scheme, WC =      100.0
 initial mixing is a Kerker type mixing with AMIX =  0.4000 and BMIX =      1.0000
 Hartree-type preconditioning will be used
 using additional bands           27
 reciprocal scheme for non local part
 use partial core corrections
 no Harris-corrections to forces 
 use gradient corrections 
 use of overlap-Matrix (Vanderbilt PP)
 Methfessel and Paxton  Order N= 1 SIGMA  =   0.20


--------------------------------------------------------------------------------------------------------


  energy-cutoff  :      404.80
  volume of cell :      709.91
      direct lattice vectors                 reciprocal lattice vectors
     8.250148166  0.000000000  0.000000000     0.121209944  0.000000000  0.000000000
     0.000000000  8.250148166  0.000000000     0.000000000  0.121209944  0.000000000
     0.000000000  0.000000000 10.429911392     0.000000000  0.000000000  0.095878092

  length of vectors
     8.250148166  8.250148166 10.429911392     0.121209944  0.121209944  0.095878092


 
 k-points in units of 2pi/SCALE and weight: automatic KPOINTS                       
   0.00000000  0.00000000  0.00000000       0.010
   0.02424199  0.00000000  0.00000000       0.020
   0.04848398  0.00000000  0.00000000       0.020
   0.00000000  0.02424199  0.00000000       0.020
   0.02424199  0.02424199  0.00000000       0.040
   0.04848398  0.02424199  0.00000000       0.040
   0.00000000  0.04848398  0.00000000       0.020
   0.02424199  0.04848398  0.00000000       0.040
   0.04848398  0.04848398  0.00000000       0.040
   0.00000000  0.00000000  0.02396952       0.020
   0.02424199  0.00000000  0.02396952       0.040
   0.04848398  0.00000000  0.02396952       0.040
   0.00000000  0.02424199  0.02396952       0.020
   0.02424199  0.02424199  0.02396952       0.040
   0.04848398  0.02424199  0.02396952       0.040
   0.00000000  0.04848398  0.02396952       0.020
   0.02424199  0.04848398  0.02396952       0.040
   0.04848398  0.04848398  0.02396952       0.040
   0.00000000 -0.04848398  0.02396952       0.020
   0.02424199 -0.04848398  0.02396952       0.040
   0.04848398 -0.04848398  0.02396952       0.040
   0.00000000 -0.02424199  0.02396952       0.020
   0.02424199 -0.02424199  0.02396952       0.040
   0.04848398 -0.02424199  0.02396952       0.040
   0.00000000  0.00000000  0.04793905       0.010
   0.02424199  0.00000000  0.04793905       0.020
   0.04848398  0.00000000  0.04793905       0.020
   0.00000000  0.02424199  0.04793905       0.020
   0.02424199  0.02424199  0.04793905       0.040
   0.04848398  0.02424199  0.04793905       0.040
   0.00000000  0.04848398  0.04793905       0.020
   0.02424199  0.04848398  0.04793905       0.040
   0.04848398  0.04848398  0.04793905       0.040
 
 k-points in reciprocal lattice and weights: automatic KPOINTS                       
   0.00000000  0.00000000  0.00000000       0.010
   0.20000000  0.00000000  0.00000000       0.020
   0.40000000  0.00000000  0.00000000       0.020
   0.00000000  0.20000000  0.00000000       0.020
   0.20000000  0.20000000  0.00000000       0.040
   0.40000000  0.20000000  0.00000000       0.040
   0.00000000  0.40000000  0.00000000       0.020
   0.20000000  0.40000000  0.00000000       0.040
   0.40000000  0.40000000  0.00000000       0.040
   0.00000000  0.00000000  0.25000000       0.020
   0.20000000  0.00000000  0.25000000       0.040
   0.40000000  0.00000000  0.25000000       0.040
   0.00000000  0.20000000  0.25000000       0.020
   0.20000000  0.20000000  0.25000000       0.040
   0.40000000  0.20000000  0.25000000       0.040
   0.00000000  0.40000000  0.25000000       0.020
   0.20000000  0.40000000  0.25000000       0.040
   0.40000000  0.40000000  0.25000000       0.040
   0.00000000 -0.40000000  0.25000000       0.020
   0.20000000 -0.40000000  0.25000000       0.040
   0.40000000 -0.40000000  0.25000000       0.040
   0.00000000 -0.20000000  0.25000000       0.020
   0.20000000 -0.20000000  0.25000000       0.040
   0.40000000 -0.20000000  0.25000000       0.040
   0.00000000  0.00000000  0.50000000       0.010
   0.20000000  0.00000000  0.50000000       0.020
   0.40000000  0.00000000  0.50000000       0.020
   0.00000000  0.20000000  0.50000000       0.020
   0.20000000  0.20000000  0.50000000       0.040
   0.40000000  0.20000000  0.50000000       0.040
   0.00000000  0.40000000  0.50000000       0.020
   0.20000000  0.40000000  0.50000000       0.040
   0.40000000  0.40000000  0.50000000       0.040
 
 position of ions in fractional coordinates (direct lattice) 
   0.00000000  0.00000000  0.00000000
   0.00000000  0.00000000  0.33333333
   0.00000000  0.00000000  0.66666667
   0.00000000  0.33333333  0.00000000
   0.00000000  0.33333333  0.33333333
   0.00000000  0.33333333  0.66666667
   0.00000000  0.66666667  0.00000000
   0.00000000  0.66666667  0.33333333
   0.00000000  0.66666667  0.66666667
   0.33333333  0.00000000  0.00000000
   0.33333333  0.00000000  0.33333333
   0.33333333  0.00000000  0.66666667
   0.33333333  0.33333333  0.00000000
   0.33333333  0.33333333  0.33333333
   0.33333333  0.33333333  0.66666667
   0.33333333  0.66666667  0.00000000
   0.33333333  0.66666667  0.33333333
   0.33333333  0.66666667  0.66666667
   0.66666667  0.00000000  0.00000000
   0.66666667  0.00000000  0.33333333
   0.66666667  0.00000000  0.66666667
   0.66666667  0.33333333  0.00000000
   0.66666667  0.33333333  0.33333333
   0.66666667  0.33333333  0.66666667
   0.66666667  0.66666667  0.00000000
   0.66666667  0.66666667  0.33333333
   0.66666667  0.66666667  0.66666667
   0.16666667  0.16666667  0.16666667
   0.16666667  0.16666667  0.50000000
   0.16666667  0.16666667  0.83333333
   0.16666667  0.50000000  0.16666667
   0.16666667  0.50000000  0.50000000
   0.16666667  0.50000000  0.83333333
   0.16666667  0.83333333  0.16666667
   0.16666667  0.83333333  0.50000000
   0.16666667  0.83333333  0.83333333
   0.50000000  0.16666667  0.16666667
   0.50000000  0.16666667  0.50000000
   0.50000000  0.16666667  0.83333333
   0.50000000  0.50000000  0.16666667
   0.50000000  0.50000000  0.50000000
   0.50000000  0.50000000  0.83333333
   0.50000000  0.83333333  0.16666667
   0.50000000  0.83333333  0.50000000
   0.50000000  0.83333333  0.83333333
   0.83333333  0.16666667  0.16666667
   0.83333333  0.16666667  0.50000000
   0.83333333  0.16666667  0.83333333
   0.83333333  0.50000000  0.16666667
   0.83333333  0.50000000  0.50000000
   0.83333333  0.50000000  0.83333333
   0.83333333  0.83333333  0.16666667
   0.83333333  0.83333333  0.50000000
   0.83333333  0.83333333  0.83333333
 
 position of ions in cartesian coordinates  (Angst):
   0.00000000  0.00000000  0.00000000
   0.00000000  0.00000000  3.47663713
   0.00000000  0.00000000  6.95327426
   0.00000000  2.75004939  0.00000000
   0.00000000  2.75004939  3.47663713
   0.00000000  2.75004939  6.95327426
   0.00000000  5.50009878  0.00000000
   0.00000000  5.50009878  3.47663713
   0.00000000  5.50009878  6.95327426
   2.75004939  0.00000000  0.00000000
   2.75004939  0.00000000  3.47663713
   2.75004939  0.00000000  6.95327426
   2.75004939  2.75004939  0.00000000
   2.75004939  2.75004939  3.47663713
   2.75004939  2.75004939  6.95327426
   2.75004939  5.50009878  0.00000000
   2.75004939  5.50009878  3.47663713
   2.75004939  5.50009878  6.95327426
   5.50009878  0.00000000  0.00000000
   5.50009878  0.00000000  3.47663713
   5.50009878  0.00000000  6.95327426
   5.50009878  2.75004939  0.00000000
   5.50009878  2.75004939  3.47663713
   5.50009878  2.75004939  6.95327426
   5.50009878  5.50009878  0.00000000
   5.50009878  5.50009878  3.47663713
   5.50009878  5.50009878  6.95327426
   1.37502469  1.37502469  1.73831857
   1.37502469  1.37502469  5.21495570
   1.37502469  1.37502469  8.69159283
   1.37502469  4.12507408  1.73831857
   1.37502469  4.12507408  5.21495570
   1.37502469  4.12507408  8.69159283
   1.37502469  6.87512347  1.73831857
   1.37502469  6.87512347  5.21495570
   1.37502469  6.87512347  8.69159283
   4.12507408  1.37502469  1.73831857
   4.12507408  1.37502469  5.21495570
   4.12507408  1.37502469  8.69159283
   4.12507408  4.12507408  1.73831857
   4.12507408  4.12507408  5.21495570
   4.12507408  4.12507408  8.69159283
   4.12507408  6.87512347  1.73831857
   4.12507408  6.87512347  5.21495570
   4.12507408  6.87512347  8.69159283
   6.87512347  1.37502469  1.73831857
   6.87512347  1.37502469  5.21495570
   6.87512347  1.37502469  8.69159283
   6.87512347  4.12507408  1.73831857
   6.87512347  4.12507408  5.21495570
   6.87512347  4.12507408  8.69159283
   6.87512347  6.87512347  1.73831857
   6.87512347  6.87512347  5.21495570
   6.87512347  6.87512347  8.69159283
 


--------------------------------------------------------------------------------------------------------


 k-point  1 :   0.0000 0.0000 0.0000  plane waves:   13099
 k-point  2 :   0.2000 0.0000 0.0000  plane waves:   13101
 k-point  3 :   0.4000 0.0000 0.0000  plane waves:   13111
 k-point  4 :   0.0000 0.2000 0.0000  plane waves:   13101
 k-point  5 :   0.2000 0.2000 0.0000  plane waves:   13137
 k-point  6 :   0.4000 0.2000 0.0000  plane waves:   13119
 k-point  7 :   0.0000 0.4000 0.0000  plane waves:   13111
 k-point  8 :   0.2000 0.4000 0.0000  plane waves:   13119
 k-point  9 :   0.4000 0.4000 0.0000  plane waves:   13129
 k-point 10 :   0.0000 0.0000 0.2500  plane waves:   13134
 k-point 11 :   0.2000 0.0000 0.2500  plane waves:   13149
 k-point 12 :   0.4000 0.0000 0.2500  plane waves:   13119
 k-point 13 :   0.0000 0.2000 0.2500  plane waves:   13149
 k-point 14 :   0.2000 0.2000 0.2500  plane waves:   13145
 k-point 15 :   0.4000 0.2000 0.2500  plane waves:   13134
 k-point 16 :   0.0000 0.4000 0.2500  plane waves:   13119
 k-point 17 :   0.2000 0.4000 0.2500  plane waves:   13134
 k-point 18 :   0.4000 0.4000 0.2500  plane waves:   13108
 k-point 19 :   0.0000-0.4000 0.2500  plane waves:   13119
 k-point 20 :   0.2000-0.4000 0.2500  plane waves:   13134
 k-point 21 :   0.4000-0.4000 0.2500  plane waves:   13108
 k-point 22 :   0.0000-0.2000 0.2500  plane waves:   13149
 k-point 23 :   0.2000-0.2000 0.2500  plane waves:   13145
 k-point 24 :   0.4000-0.2000 0.2500  plane waves:   13134
 k-point 25 :   0.0000 0.0000 0.5000  plane waves:   13186
 k-point 26 :   0.2000 0.0000 0.5000  plane waves:   13124
 k-point 27 :   0.4000 0.0000 0.5000  plane waves:   13152
 k-point 28 :   0.0000 0.2000 0.5000  plane waves:   13124
 k-point 29 :   0.2000 0.2000 0.5000  plane waves:   13136
 k-point 30 :   0.4000 0.2000 0.5000  plane waves:   13128
 k-point 31 :   0.0000 0.4000 0.5000  plane waves:   13152
 k-point 32 :   0.2000 0.4000 0.5000  plane waves:   13128
 k-point 33 :   0.4000 0.4000 0.5000  plane waves:   13112

 maximum and minimum number of plane-waves per node :      3313     3254

 maximum number of plane-waves:     13186
 maximum index in each direction: 
   IXMAX=   13   IYMAX=   13   IZMAX=   17
   IXMIN=  -13   IYMIN=  -13   IZMIN=  -17


 parallel 3D FFT for wavefunctions:
    minimum data exchange during FFTs selected (reduces bandwidth)
 parallel 3D FFT for charge:
    minimum data exchange during FFTs selected (reduces bandwidth)


 total amount of memory used by VASP MPI-rank0  1011122. kBytes
=======================================================================

   base      :      30000. kBytes
   nonl-proj :      34214. kBytes
   fftplans  :      31580. kBytes
   grid      :      21385. kBytes
   one-center:        435. kBytes
   wavefun   :     893508. kBytes
 
     INWAV:  cpu time    0.0000: real time    0.0000
 Broyden mixing: mesh for mixing (old mesh)
   NGX = 27   NGY = 27   NGZ = 35
  (NGX  =108   NGY  =108   NGZ  =140)
  gives a total of  25515 points

 initial charge density was supplied:
 charge density of overlapping atoms calculated
 number of electron     270.0000000 magnetization      -3.0000000
 keeping initial charge density in first step


--------------------------------------------------------------------------------------------------------


 Maximum index for augmentation-charges        10967 (set IRDMAX)


--------------------------------------------------------------------------------------------------------


 First call to EWALD:  gamma=   0.199
 Maximum number of real-space cells 3x 3x 2
 Maximum number of reciprocal cells 3x 3x 3

    FEWALD:  cpu time    0.0145: real time    0.0152


--------------------------------------- Iteration      1(   1)  ---------------------------------------


    POTLOK:  cpu time    0.4162: real time    0.4162
    SETDIJ:  cpu time    0.4616: real time    0.4616
    TRIAL :  cpu time   36.3555: real time   36.6565
    CORREC:  cpu time    0.0064: real time    0.0065
    --------------------------------------------
      LOOP:  cpu time   37.5430: real time   37.8510

 eigenvalue-minimisations  : 21384
 total energy-change (2. order) : 0.2065555E+04  (-0.8696640E+04)
 number of electron     270.0000000 magnetization      -3.0000000
 augmentation part      270.0000000 magnetization      -3.0000000

 Free energy of the ion-electron system (eV)
  ---------------------------------------------------
  alpha Z        PSCENC =       798.38614055
  Ewald energy   TEWEN  =    -12901.57693327
  -Hartree energ DENC   =     -2855.60785864
  -exchange      EXHF   =         0.00000000
  -V(xc)+E(xc)   XCENC  =      -996.16173817
  PAW double counting   =     12741.82587617   -11476.22345381
  entropy T*S    EENTRO =         0.00789433
  eigenvalues    EBANDS =      4057.23108933
  atomic energy  EATOM  =     12697.67401269
  ---------------------------------------------------
  free energy    TOTEN  =      2065.55502917 eV

  energy without entropy =     2065.54713484  energy(sigma->0) =     2065.55239773


--------------------------------------------------------------------------------------------------------




--------------------------------------- Iteration      1(   2)  ---------------------------------------


    TRIAL :  cpu time   36.6822: real time   37.7213
    CORREC:  cpu time    0.0081: real time    0.0088
    --------------------------------------------
      LOOP:  cpu time   36.6912: real time   37.7334

 eigenvalue-minimisations  : 21384
 total energy-change (2. order) :-0.2125482E+04  (-0.2086913E+04)
 number of electron     270.0000000 magnetization      -3.0000000
 augmentation part      270.0000000 magnetization      -3.0000000

 Free energy of the ion-electron system (eV)
  ---------------------------------------------------
  alpha Z        PSCENC =       798.38614055
  Ewald energy   TEWEN  =    -12901.57693327
  -Hartree energ DENC   =     -2855.60785864
  -exchange      EXHF   =         0.00000000
  -V(xc)+E(xc)   XCENC  =      -996.16173817
  PAW double counting   =     12741.82587617   -11476.22345381
  entropy T*S    EENTRO =        -0.00468620
  eigenvalues    EBANDS =      1931.76191623
  atomic energy  EATOM  =     12697.67401269
  ---------------------------------------------------
  free energy    TOTEN  =       -59.92672446 eV

  energy without entropy =      -59.92203826  energy(sigma->0) =      -59.92516239


--------------------------------------------------------------------------------------------------------




--------------------------------------- Iteration      1(   3)  ---------------------------------------


    TRIAL :  cpu time   50.4656: real time   51.6008
    CORREC:  cpu time    0.0094: real time    0.0102
    --------------------------------------------
      LOOP:  cpu time   50.4758: real time   51.6146

 eigenvalue-minimisations  : 32216
 total energy-change (2. order) :-0.2855238E+03  (-0.2591375E+03)
 number of electron     270.0000000 magnetization      -3.0000000
 augmentation part      270.0000000 magnetization      -3.0000000

 Free energy of the ion-electron system (eV)
  ---------------------------------------------------
  alpha Z        PSCENC =       798.38614055
  Ewald energy   TEWEN  =    -12901.57693327
  -Hartree energ DENC   =     -2855.60785864
  -exchange      EXHF   =         0.00000000
  -V(xc)+E(xc)   XCENC  =      -996.16173817
  PAW double counting   =     12741.82587617   -11476.22345381
  entropy T*S    EENTRO =        -0.00316575
  eigenvalues    EBANDS =      1646.23660234
  atomic energy  EATOM  =     12697.67401269
  ---------------------------------------------------
  free energy    TOTEN  =      -345.45051789 eV

  energy without entropy =     -345.44735215  energy(sigma->0) =     -345.44946265


--------------------------------------------------------------------------------------------------------




--------------------------------------- Iteration      1(   4)  ---------------------------------------


    TRIAL :  cpu time   53.8156: real time   54.9286
    CORREC:  cpu time    0.0099: real time    0.0108
    --------------------------------------------
      LOOP:  cpu time   53.8264: real time   54.9425

 eigenvalue-minimisations  : 34720
 total energy-change (2. order) :-0.5140953E+02  (-0.4606001E+02)
 number of electron     270.0000000 magnetization      -3.0000000
 augmentation part      270.0000000 magnetization      -3.0000000

 Free energy of the ion-electron system (eV)
  ---------------------------------------------------
  alpha Z        PSCENC =       798.38614055
  Ewald energy   TEWEN  =    -12901.57693327
  -Hartree energ DENC   =     -2855.60785864
  -exchange      EXHF   =         0.00000000
  -V(xc)+E(xc)   XCENC  =      -996.16173817
  PAW double counting   =     12741.82587617   -11476.22345381
  entropy T*S    EENTRO =         0.01846592
  eigenvalues    EBANDS =      1594.80544160
  atomic energy  EATOM  =     12697.67401269
  ---------------------------------------------------
  free energy    TOTEN  =      -396.86004697 eV

  energy without entropy =     -396.87851289  energy(sigma->0) =     -396.86620228


--------------------------------------------------------------------------------------------------------




--------------------------------------- Iteration      1(   5)  ---------------------------------------


    TRIAL :  cpu time   55.7348: real time   56.8660
    CORREC:  cpu time    0.0102: real time    0.0111
    --------------------------------------------
      LOOP:  cpu time   55.7459: real time   56.8806

 eigenvalue-minimisations  : 36216
 total energy-change (2. order) :-0.6583934E+01  (-0.6270488E+01)
 number of electron     270.0000000 magnetization      -3.0000000
 augmentation part      270.0000000 magnetization      -3.0000000

 Free energy of the ion-electron system (eV)
  ---------------------------------------------------
  alpha Z        PSCENC =       798.38614055
  Ewald energy   TEWEN  =    -12901.57693327
  -Hartree energ DENC   =     -2855.60785864
  -exchange      EXHF   =         0.00000000
  -V(xc)+E(xc)   XCENC  =      -996.16173817
  PAW double counting   =     12741.82587617   -11476.22345381
  entropy T*S    EENTRO =         0.02863942
  eigenvalues    EBANDS =      1588.21133396
  atomic energy  EATOM  =     12697.67401269
  ---------------------------------------------------
  free energy    TOTEN  =      -403.44398111 eV

  energy without entropy =     -403.47262053  energy(sigma->0) =     -403.45352758


--------------------------------------------------------------------------------------------------------




--------------------------------------- Iteration      1(   6)  ---------------------------------------


    TRIAL :  cpu time   55.2161: real time   56.3720
    CORREC:  cpu time    0.0104: real time    0.0112
    --------------------------------------------
      LOOP:  cpu time   55.2671: real time   56.4259

 eigenvalue-minimisations  : 35840
 total energy-change (2. order) :-0.5714467E+00  (-0.5541092E+00)
 number of electron     270.0000000 magnetization      -3.0000000
 augmentation part      270.0000000 magnetization      -3.0000000

 Free energy of the ion-electron system (eV)
  ---------------------------------------------------
  alpha Z        PSCENC =       798.38614055
  Ewald energy   TEWEN  =    -12901.57693327
  -Hartree energ DENC   =     -2855.60785864
  -exchange      EXHF   =         0.00000000
  -V(xc)+E(xc)   XCENC  =      -996.16173817
  PAW double counting   =     12741.82587617   -11476.22345381
  entropy T*S    EENTRO =         0.03227810
  eigenvalues    EBANDS =      1587.63624855
  atomic energy  EATOM  =     12697.67401269
  ---------------------------------------------------
  free energy    TOTEN  =      -404.01542784 eV

  energy without entropy =     -404.04770594  energy(sigma->0) =     -404.02618721


--------------------------------------------------------------------------------------------------------




--------------------------------------- Iteration      1(   7)  ---------------------------------------


    TRIAL :  cpu time   56.3295: real time   57.5522
    CORREC:  cpu time    0.0103: real time    0.0112
    --------------------------------------------
      LOOP:  cpu time   56.3406: real time   57.5677

 eigenvalue-minimisations  : 36680
 total energy-change (2. order) :-0.6706707E-01  (-0.6577649E-01)
 number of electron     270.0000000 magnetization      -3.0000000
 augmentation part      270.0000000 magnetization      -3.0000000

 Free energy of the ion-electron system (eV)
  ---------------------------------------------------
  alpha Z        PSCENC =       798.38614055
  Ewald energy   TEWEN  =    -12901.57693327
  -Hartree energ DENC   =     -2855.60785864
  -exchange      EXHF   =         0.00000000
  -V(xc)+E(xc)   XCENC  =      -996.16173817
  PAW double counting   =     12741.82587617   -11476.22345381
  entropy T*S    EENTRO =         0.03363040
  eigenvalues    EBANDS =      1587.56782917
  atomic energy  EATOM  =     12697.67401269
  ---------------------------------------------------
  free energy    TOTEN  =      -404.08249491 eV

  energy without entropy =     -404.11612532  energy(sigma->0) =     -404.09370505


--------------------------------------------------------------------------------------------------------




--------------------------------------- Iteration      1(   8)  ---------------------------------------


    TRIAL :  cpu time   54.1668: real time   55.2082
    CORREC:  cpu time    0.0103: real time    0.0104
    CHARGE:  cpu time    1.7431: real time    1.7431
    --------------------------------------------
      LOOP:  cpu time   55.9216: real time   56.9654

 eigenvalue-minimisations  : 35000
 total energy-change (2. order) :-0.7517797E-02  (-0.7411995E-02)
 number of electron     269.9999995 magnetization      -1.7778748
 augmentation part       64.1689358 magnetization      -1.0588518

 Free energy of the ion-electron system (eV)
  ---------------------------------------------------
  alpha Z        PSCENC =       798.38614055
  Ewald energy   TEWEN  =    -12901.57693327
  -Hartree energ DENC   =     -2855.60785864
  -exchange      EXHF   =         0.00000000
  -V(xc)+E(xc)   XCENC  =      -996.16173817
  PAW double counting   =     12741.82587617   -11476.22345381
  entropy T*S    EENTRO =         0.03415695
  eigenvalues    EBANDS =      1587.55978483
  atomic energy  EATOM  =     12697.67401269
  ---------------------------------------------------
  free energy    TOTEN  =      -404.09001271 eV

  energy without entropy =     -404.12416966  energy(sigma->0) =     -404.10139836


--------------------------------------------------------------------------------------------------------




--------------------------------------- Iteration      1(   9)  ---------------------------------------


    POTLOK:  cpu time    0.3968: real time    0.3968
    SETDIJ:  cpu time    0.5350: real time    0.5349
    TRIAL :  cpu time   18.6516: real time   18.8518
    CORREC:  cpu time    5.6529: real time    5.6745
    CHARGE:  cpu time    1.7350: real time    1.7350
    --------------------------------------------
      LOOP:  cpu time   26.9785: real time   27.2005

 eigenvalue-minimisations  :     0
 total energy-change (2. order) : 0.3004974E+03  (-0.2179861E+03)
 number of electron     269.9999993 magnetization      -2.1215730
 augmentation part       82.5258217 magnetization      -1.4352653

 Free energy of the ion-electron system (eV)
  ---------------------------------------------------
  alpha Z        PSCENC =       798.38614055
  Ewald energy   TEWEN  =    -12901.57693327
  -Hartree energ DENC   =     -1271.24168445
  -exchange      EXHF   =         0.00000000
  -V(xc)+E(xc)   XCENC  =     -1041.79701138
  PAW double counting   =     19164.92467594   -17745.25604256
  entropy T*S    EENTRO =         0.00344711
  eigenvalues    EBANDS =       195.26010954
  atomic energy  EATOM  =     12697.67401269
  ---------------------------------------------------
  free energy    TOTEN  =      -103.59257599 eV

  energy without entropy =     -103.59602310  energy(sigma->0) =     -103.59372503


--------------------------------------------------------------------------------------------------------




--------------------------------------- Iteration      1(  10)  ---------------------------------------


    POTLOK:  cpu time    0.3925: real time    0.3927
    SETDIJ:  cpu time    0.4774: real time    0.4782
    TRIAL :  cpu time   18.5425: real time   18.5987
    CORREC:  cpu time    5.6316: real time    6.3841
    CHARGE:  cpu time    1.7302: real time    1.7304
    --------------------------------------------
      LOOP:  cpu time   26.7791: real time   27.5918

 eigenvalue-minimisations  :     0
 total energy-change (2. order) :-0.2138769E+03  (-0.1216607E+02)
 number of electron     269.9999993 magnetization      -2.1334656
 augmentation part       86.3590196 magnetization      -1.4452213

 Free energy of the ion-electron system (eV)
  ---------------------------------------------------
  alpha Z        PSCENC =       798.38614055
  Ewald energy   TEWEN  =    -12901.57693327
  -Hartree energ DENC   =     -2108.05463307
  -exchange      EXHF   =         0.00000000
  -V(xc)+E(xc)   XCENC  =     -1012.71786416
  PAW double counting   =     20632.74203331   -19394.43052364
  entropy T*S    EENTRO =        -0.00070547
  eigenvalues    EBANDS =       970.50487310
  atomic energy  EATOM  =     12697.67401269
  ---------------------------------------------------
  free energy    TOTEN  =      -317.46944739 eV

  energy without entropy =     -317.46874192  energy(sigma->0) =     -317.46921223


--------------------------------------------------------------------------------------------------------




--------------------------------------- Iteration      1(  11)  ---------------------------------------


    POTLOK:  cpu time    0.3898: real time    0.4459
    SETDIJ:  cpu time    0.4487: real time    0.4494
    TRIAL :  cpu time   18.5568: real time   18.7461
    CORREC:  cpu time    5.7126: real time    5.7580
    CHARGE:  cpu time    1.7322: real time    1.7410
    --------------------------------------------
      LOOP:  cpu time   26.8440: real time   27.1457

 eigenvalue-minimisations  :     0
 total energy-change (2. order) :-0.1145585E+02  (-0.1063131E+02)
 number of electron     269.9999992 magnetization      -2.3298468
 augmentation part       88.9725567 magnetization      -1.6046200

 Free energy of the ion-electron system (eV)
  ---------------------------------------------------
  alpha Z        PSCENC =       798.38614055
  Ewald energy   TEWEN  =    -12901.57693327
  -Hartree energ DENC   =     -2334.05198865
  -exchange      EXHF   =         0.00000000
  -V(xc)+E(xc)   XCENC  =     -1004.36496869
  PAW double counting   =     21523.74986900   -20323.70141691
  entropy T*S    EENTRO =        -0.00046419
  eigenvalues    EBANDS =      1214.96069240
  atomic energy  EATOM  =     12697.67401269
  ---------------------------------------------------
  free energy    TOTEN  =      -328.92529836 eV

  energy without entropy =     -328.92483417  energy(sigma->0) =     -328.92514363


--------------------------------------------------------------------------------------------------------




--------------------------------------- Iteration      1(  12)  ---------------------------------------


    POTLOK:  cpu time    0.3927: real time    0.3927
    SETDIJ:  cpu time    0.4783: real time    0.4783
    TRIAL :  cpu time   18.5465: real time   18.6153
    CORREC:  cpu time    6.3592: real time    6.4543
    CHARGE:  cpu time    1.7128: real time    1.7316
    --------------------------------------------
      LOOP:  cpu time   27.4937: real time   27.6782

 eigenvalue-minimisations  :     0
 total energy-change (2. order) :-0.1073304E+02  (-0.1287302E+02)
 number of electron     269.9999993 magnetization      -2.4683394
 augmentation part       86.7651326 magnetization      -1.7050140

 Free energy of the ion-electron system (eV)
  ---------------------------------------------------
  alpha Z        PSCENC =       798.38614055
  Ewald energy   TEWEN  =    -12901.57693327
  -Hartree energ DENC   =     -2538.19726024
  -exchange      EXHF   =         0.00000000
  -V(xc)+E(xc)   XCENC  =      -997.28516361
  PAW double counting   =     21859.46001511   -20674.09588190
  entropy T*S    EENTRO =        -0.01707317
  eigenvalues    EBANDS =      1415.97719431
  atomic energy  EATOM  =     12697.67401269
  ---------------------------------------------------
  free energy    TOTEN  =      -339.65834055 eV

  energy without entropy =     -339.64126738  energy(sigma->0) =     -339.65264949


--------------------------------------------------------------------------------------------------------




--------------------------------------- Iteration      1(  13)  ---------------------------------------


    POTLOK:  cpu time    0.3925: real time    0.3925
    SETDIJ:  cpu time    0.4514: real time    0.4614
    TRIAL :  cpu time   18.5224: real time   19.7220
    CORREC:  cpu time    5.6742: real time    5.6953
    CHARGE:  cpu time    1.7353: real time    1.7352
    --------------------------------------------
      LOOP:  cpu time   26.8300: real time   28.0620

 eigenvalue-minimisations  :     0
 total energy-change (2. order) :-0.1274111E+02  (-0.8529328E+00)
 number of electron     269.9999993 magnetization      -2.4772074
 augmentation part       86.3053978 magnetization      -1.6835694

 Free energy of the ion-electron system (eV)
  ---------------------------------------------------
  alpha Z        PSCENC =       798.38614055
  Ewald energy   TEWEN  =    -12901.57693327
  -Hartree energ DENC   =     -2515.94804026
  -exchange      EXHF   =         0.00000000
  -V(xc)+E(xc)   XCENC  =      -999.04121332
  PAW double counting   =     21262.01963873   -20024.53033725
  entropy T*S    EENTRO =        -0.01844364
  eigenvalues    EBANDS =      1330.63435620
  atomic energy  EATOM  =     12697.67401269
  ---------------------------------------------------
  free energy    TOTEN  =      -352.39944910 eV

  energy without entropy =     -352.38100546  energy(sigma->0) =     -352.39330122


--------------------------------------------------------------------------------------------------------




--------------------------------------- Iteration      1(  14)  ---------------------------------------


    POTLOK:  cpu time    0.3924: real time    0.3924
    SETDIJ:  cpu time    0.4590: real time    0.4590
    TRIAL :  cpu time   18.5378: real time   18.6171
    CORREC:  cpu time    6.2014: real time    6.2027
    CHARGE:  cpu time    1.7217: real time    1.7217
    --------------------------------------------
      LOOP:  cpu time   27.3383: real time   27.4192

 eigenvalue-minimisations  :     0
 total energy-change (2. order) :-0.8360206E+00  (-0.1276186E+01)
 number of electron     269.9999993 magnetization      -2.5582695
 augmentation part       85.9480163 magnetization      -1.7003897

 Free energy of the ion-electron system (eV)
  ---------------------------------------------------
  alpha Z        PSCENC =       798.38614055
  Ewald energy   TEWEN  =    -12901.57693327
  -Hartree energ DENC   =     -2492.33183279
  -exchange      EXHF   =         0.00000000
  -V(xc)+E(xc)   XCENC  =      -999.96176404
  PAW double counting   =     20985.39428003   -19739.99542875
  entropy T*S    EENTRO =        -0.01595541
  eigenvalues    EBANDS =      1299.19449956
  atomic energy  EATOM  =     12697.67401269
  ---------------------------------------------------
  free energy    TOTEN  =      -353.23546966 eV

  energy without entropy =     -353.21951425  energy(sigma->0) =     -353.23015119


--------------------------------------------------------------------------------------------------------




--------------------------------------- Iteration      1(  15)  ---------------------------------------


    POTLOK:  cpu time    0.3920: real time    0.3920
    SETDIJ:  cpu time    0.4663: real time    0.4736
    TRIAL :  cpu time   18.4917: real time   19.4577
    CORREC:  cpu time    5.6338: real time    5.6858
    CHARGE:  cpu time    1.7386: real time    1.7386
    --------------------------------------------
      LOOP:  cpu time   26.7260: real time   27.7535

 eigenvalue-minimisations  :     0
 total energy-change (2. order) :-0.1274544E+01  (-0.6549432E+00)
 number of electron     269.9999992 magnetization      -2.5581733
 augmentation part       86.5275855 magnetization      -1.7379745

 Free energy of the ion-electron system (eV)
  ---------------------------------------------------
  alpha Z        PSCENC =       798.38614055
  Ewald energy   TEWEN  =    -12901.57693327
  -Hartree energ DENC   =     -2461.41793988
  -exchange      EXHF   =         0.00000000
  -V(xc)+E(xc)   XCENC  =     -1001.15970174
  PAW double counting   =     20154.57304215   -18899.14070392
  entropy T*S    EENTRO =        -0.01429212
  eigenvalues    EBANDS =      1258.16802513
  atomic energy  EATOM  =     12697.67401269
  ---------------------------------------------------
  free energy    TOTEN  =      -354.51001370 eV

  energy without entropy =     -354.49572158  energy(sigma->0) =     -354.50524966


--------------------------------------------------------------------------------------------------------




--------------------------------------- Iteration      1(  16)  ---------------------------------------


    POTLOK:  cpu time    0.3928: real time    0.3928
    SETDIJ:  cpu time    0.4547: real time    0.4547
    TRIAL :  cpu time   18.6587: real time   18.7716
    CORREC:  cpu time    5.6180: real time    5.6338
    CHARGE:  cpu time    1.7364: real time    1.7364
    --------------------------------------------
      LOOP:  cpu time   26.8654: real time   26.9944

 eigenvalue-minimisations  :     0
 total energy-change (2. order) :-0.6518032E+00  (-0.2892337E+00)
 number of electron     269.9999992 magnetization      -2.5716660
 augmentation part       87.1275367 magnetization      -1.7556446

 Free energy of the ion-electron system (eV)
  ---------------------------------------------------
  alpha Z        PSCENC =       798.38614055
  Ewald energy   TEWEN  =    -12901.57693327
  -Hartree energ DENC   =     -2482.34709782
  -exchange      EXHF   =         0.00000000
  -V(xc)+E(xc)   XCENC  =     -1000.37230548
  PAW double counting   =     19775.92270263   -18523.99252651
  entropy T*S    EENTRO =        -0.01264569
  eigenvalues    EBANDS =      1281.15848247
  atomic energy  EATOM  =     12697.67401269
  ---------------------------------------------------
  free energy    TOTEN  =      -355.16181685 eV

  energy without entropy =     -355.14917116  energy(sigma->0) =     -355.15760162


--------------------------------------------------------------------------------------------------------




--------------------------------------- Iteration      1(  17)  ---------------------------------------


    POTLOK:  cpu time    0.3916: real time    0.3916
    SETDIJ:  cpu time    0.4743: real time    0.4743
    TRIAL :  cpu time   18.5783: real time   19.4908
    CORREC:  cpu time    5.6522: real time    5.7215
    CHARGE:  cpu time    1.7390: real time    1.7401
    --------------------------------------------
      LOOP:  cpu time   26.8406: real time   27.8250

 eigenvalue-minimisations  :     0
 total energy-change (2. order) :-0.2896673E+00  (-0.2555349E+00)
 number of electron     269.9999992 magnetization      -2.6653962
 augmentation part       87.2820429 magnetization      -1.7982598

 Free energy of the ion-electron system (eV)
  ---------------------------------------------------
  alpha Z        PSCENC =       798.38614055
  Ewald energy   TEWEN  =    -12901.57693327
  -Hartree energ DENC   =     -2509.06220460
  -exchange      EXHF   =         0.00000000
  -V(xc)+E(xc)   XCENC  =      -999.29884420
  PAW double counting   =     19642.57465951   -18396.28258807
  entropy T*S    EENTRO =        -0.01101934
  eigenvalues    EBANDS =      1312.14691893
  atomic energy  EATOM  =     12697.67401269
  ---------------------------------------------------
  free energy    TOTEN  =      -355.45148415 eV

  energy without entropy =     -355.44046480  energy(sigma->0) =     -355.44781103


--------------------------------------------------------------------------------------------------------




--------------------------------------- Iteration      1(  18)  ---------------------------------------


    POTLOK:  cpu time    0.3921: real time    0.3922
    SETDIJ:  cpu time    0.4727: real time    0.4844
    TRIAL :  cpu time   18.5907: real time   18.6523
    CORREC:  cpu time    5.6364: real time    5.6597
    CHARGE:  cpu time    1.7351: real time    1.7351
    --------------------------------------------
      LOOP:  cpu time   26.8331: real time   26.9304

 eigenvalue-minimisations  :     0
 total energy-change (2. order) :-0.2555357E+00  (-0.1804265E+00)
 number of electron     269.9999992 magnetization      -2.6552931
 augmentation part       87.0758474 magnetization      -1.8167696

 Free energy of the ion-electron system (eV)
  ---------------------------------------------------
  alpha Z        PSCENC =       798.38614055
  Ewald energy   TEWEN  =    -12901.57693327
  -Hartree energ DENC   =     -2513.57099444
  -exchange      EXHF   =         0.00000000
  -V(xc)+E(xc)   XCENC  =      -998.86946307
  PAW double counting   =     19540.97209710   -18296.02218443
  entropy T*S    EENTRO =        -0.00976306
  eigenvalues    EBANDS =      1317.31132432
  atomic energy  EATOM  =     12697.67401269
  ---------------------------------------------------
  free energy    TOTEN  =      -355.70701989 eV

  energy without entropy =     -355.69725683  energy(sigma->0) =     -355.70376554


--------------------------------------------------------------------------------------------------------




--------------------------------------- Iteration      1(  19)  ---------------------------------------


    POTLOK:  cpu time    0.3920: real time    0.3920
    SETDIJ:  cpu time    0.4771: real time    0.4771
    TRIAL :  cpu time   18.5285: real time   19.3531
    CORREC:  cpu time    5.6092: real time    5.6774
    CHARGE:  cpu time    1.7463: real time    1.8056
    --------------------------------------------
      LOOP:  cpu time   26.7601: real time   27.7139

 eigenvalue-minimisations  :     0
 total energy-change (2. order) :-0.1795654E+00  (-0.5480256E-01)
 number of electron     269.9999992 magnetization      -2.6529535
 augmentation part       86.9454017 magnetization      -1.8246942

 Free energy of the ion-electron system (eV)
  ---------------------------------------------------
  alpha Z        PSCENC =       798.38614055
  Ewald energy   TEWEN  =    -12901.57693327
  -Hartree energ DENC   =     -2500.98830122
  -exchange      EXHF   =         0.00000000
  -V(xc)+E(xc)   XCENC  =      -999.08681207
  PAW double counting   =     19473.89727644   -18226.64607170
  entropy T*S    EENTRO =        -0.00937421
  eigenvalues    EBANDS =      1302.46386634
  atomic energy  EATOM  =     12697.67401269
  ---------------------------------------------------
  free energy    TOTEN  =      -355.88658532 eV

  energy without entropy =     -355.87721111  energy(sigma->0) =     -355.88346058


--------------------------------------------------------------------------------------------------------




--------------------------------------- Iteration      1(  20)  ---------------------------------------


    POTLOK:  cpu time    0.3906: real time    0.3907
    SETDIJ:  cpu time    0.4459: real time    0.4592
    TRIAL :  cpu time   18.5649: real time   18.7034
    CORREC:  cpu time    5.6518: real time    5.6629
    CHARGE:  cpu time    1.7319: real time    1.7476
    --------------------------------------------
      LOOP:  cpu time   26.7920: real time   26.9732

 eigenvalue-minimisations  :     0
 total energy-change (2. order) :-0.5458265E-01  (-0.1046583E+00)
 number of electron     269.9999992 magnetization      -2.7139230
 augmentation part       86.7827759 magnetization      -1.8579054

 Free energy of the ion-electron system (eV)
  ---------------------------------------------------
  alpha Z        PSCENC =       798.38614055
  Ewald energy   TEWEN  =    -12901.57693327
  -Hartree energ DENC   =     -2494.71982475
  -exchange      EXHF   =         0.00000000
  -V(xc)+E(xc)   XCENC  =      -999.23912551
  PAW double counting   =     19457.02875968   -18208.45416573
  entropy T*S    EENTRO =        -0.00882348
  eigenvalues    EBANDS =      1294.96934259
  atomic energy  EATOM  =     12697.67401269
  ---------------------------------------------------
  free energy    TOTEN  =      -355.94116797 eV

  energy without entropy =     -355.93234448  energy(sigma->0) =     -355.93822681


--------------------------------------------------------------------------------------------------------




--------------------------------------- Iteration      1(  21)  ---------------------------------------


    POTLOK:  cpu time    0.3917: real time    0.3918
    SETDIJ:  cpu time    0.4764: real time    0.4765
    TRIAL :  cpu time   18.5614: real time   18.7038
    CORREC:  cpu time    6.3778: real time    6.5529
    CHARGE:  cpu time    1.7010: real time    1.7189
    --------------------------------------------
      LOOP:  cpu time   27.5105: real time   27.8480

 eigenvalue-minimisations  :     0
 total energy-change (2. order) :-0.1047027E+00  (-0.5470048E-01)
 number of electron     269.9999992 magnetization      -2.7194007
 augmentation part       86.8797479 magnetization      -1.8729382

 Free energy of the ion-electron system (eV)
  ---------------------------------------------------
  alpha Z        PSCENC =       798.38614055
  Ewald energy   TEWEN  =    -12901.57693327
  -Hartree energ DENC   =     -2490.08910832
  -exchange      EXHF   =         0.00000000
  -V(xc)+E(xc)   XCENC  =      -999.26638328
  PAW double counting   =     19450.30393462   -18200.57327684
  entropy T*S    EENTRO =        -0.00856142
  eigenvalues    EBANDS =      1289.10456667
  atomic energy  EATOM  =     12697.67401269
  ---------------------------------------------------
  free energy    TOTEN  =      -356.04587066 eV

  energy without entropy =     -356.03730923  energy(sigma->0) =     -356.04301685


--------------------------------------------------------------------------------------------------------




--------------------------------------- Iteration      1(  22)  ---------------------------------------


    POTLOK:  cpu time    0.3842: real time    0.4372
    SETDIJ:  cpu time    0.4522: real time    0.4531
    TRIAL :  cpu time   18.5460: real time   18.7245
    CORREC:  cpu time    5.6160: real time    5.6437
    CHARGE:  cpu time    1.7306: real time    1.7312
    --------------------------------------------
      LOOP:  cpu time   26.7314: real time   26.9965

 eigenvalue-minimisations  :     0
 total energy-change (2. order) :-0.5471361E-01  (-0.2841138E-01)
 number of electron     269.9999992 magnetization      -2.7449877
 augmentation part       86.9847715 magnetization      -1.8909656

 Free energy of the ion-electron system (eV)
  ---------------------------------------------------
  alpha Z        PSCENC =       798.38614055
  Ewald energy   TEWEN  =    -12901.57693327
  -Hartree energ DENC   =     -2497.65806797
  -exchange      EXHF   =         0.00000000
  -V(xc)+E(xc)   XCENC  =      -998.92582675
  PAW double counting   =     19468.62833962   -18220.36492977
  entropy T*S    EENTRO =        -0.00829983
  eigenvalues    EBANDS =      1297.74524205
  atomic energy  EATOM  =     12697.67401269
  ---------------------------------------------------
  free energy    TOTEN  =      -356.10058427 eV

  energy without entropy =     -356.09228444  energy(sigma->0) =     -356.09781766


--------------------------------------------------------------------------------------------------------




--------------------------------------- Iteration      1(  23)  ---------------------------------------


    POTLOK:  cpu time    0.3936: real time    0.3937
    SETDIJ:  cpu time    0.4848: real time    0.4850
    TRIAL :  cpu time   19.2925: real time   19.3556
    CORREC:  cpu time    5.6005: real time    5.7054
    CHARGE:  cpu time    1.7335: real time    1.7416
    --------------------------------------------
      LOOP:  cpu time   27.5106: real time   27.6888

 eigenvalue-minimisations  :     0
 total energy-change (2. order) :-0.2844700E-01  (-0.1919728E-01)
 number of electron     269.9999992 magnetization      -2.7652136
 augmentation part       86.9619050 magnetization      -1.9057405

 Free energy of the ion-electron system (eV)
  ---------------------------------------------------
  alpha Z        PSCENC =       798.38614055
[...]
   45        0.015   0.015   2.265   2.296
   46        0.010   0.005   2.344   2.359
   47       -0.015  -0.015  -2.269  -2.299
   48        0.016   0.022   2.329   2.368
   49        0.031   0.028   2.302   2.361
   50       -0.012  -0.023  -2.246  -2.280
   51        0.020   0.014   2.395   2.429
   52       -0.022  -0.021  -2.238  -2.281
   53       -0.019  -0.017  -2.384  -2.420
   54        0.013   0.019   2.256   2.288
--------------------------------------------------
tot          0.004   0.005  -2.850  -2.842
 
    FORLOC:  cpu time    0.0591: real time    0.0591
    FORNL :  cpu time   27.8822: real time   28.8293
    STRESS:  cpu time   39.0944: real time   40.4265
    FORCOR:  cpu time    0.4401: real time    0.4401
    OFIELD:  cpu time    0.0023: real time    0.0023

  FORCE on cell =-STRESS in cart. coord.  units (eV):
  Direction    XX          YY          ZZ          XY          YZ          ZX
  --------------------------------------------------------------------------------------
  Alpha Z   798.38614   798.38614   798.38614
  Ewald   -4053.61603 -4053.61603 -4794.40593    -0.00000    -0.00000    -0.00000
  Hartree  1084.62650  1083.49225   333.37906    -0.00000    -0.01083    -0.00000
  E(xc)   -1141.49757 -1141.13590 -1139.60802    -0.00000    -0.00414    -0.00000
  Local     367.62742   370.80633  1904.21454     0.00000     0.05570    -0.00000
  n-local  -171.54612  -170.12111  -176.91456     0.16621     0.05601    -0.25385
  augment   785.01915   783.53382   767.72154     0.00000    -0.03140     0.00001
  Kinetic  2336.70282  2334.37890  2309.63128    -1.38713    -0.09079    -1.48327
  Fock        0.00000     0.00000     0.00000     0.00000     0.00000     0.00000
  -------------------------------------------------------------------------------------
  Total       5.70231     5.72440     2.40405     0.00000    -0.02544     0.00000
  in kB      12.86937    12.91923     5.42563     0.00000    -0.05743     0.00000
  external pressure =       10.40 kB  Pullay stress =        0.00 kB


 VOLUME and BASIS-vectors are now :
 -----------------------------------------------------------------------------
  energy-cutoff  :      404.80
  volume of cell :      709.91
      direct lattice vectors                 reciprocal lattice vectors
     8.250148166  0.000000000  0.000000000     0.121209944  0.000000000  0.000000000
     0.000000000  8.250148166  0.000000000     0.000000000  0.121209944  0.000000000
     0.000000000  0.000000000 10.429911392     0.000000000  0.000000000  0.095878092

  length of vectors
     8.250148166  8.250148166 10.429911392     0.121209944  0.121209944  0.095878092


 FORCES acting on ions:
    Electron-Ion                     Ewald-Force                    Non-Local-Force
 -----------------------------------------------------------------------------------------------
   -.464E-02 -.518E-01 -.764E-01   -.239E-08 -.239E-08 -.210E-08   -.143E-02 0.990E-01 0.140E-01
   0.408E-02 0.651E-01 0.544E-01   -.239E-08 -.239E-08 0.171E-08   -.355E-02 -.851E-01 -.501E-02
   -.647E-02 0.803E-02 0.747E-02   -.239E-08 -.239E-08 0.861E-08   0.151E-02 -.139E-02 0.222E-02
   -.735E-01 -.603E-01 -.856E-01   -.239E-08 -.802E-09 -.210E-08   -.509E-01 -.473E-01 0.517E-01
   -.135E+00 -.107E+00 0.928E-01   -.239E-08 -.802E-09 0.171E-08   0.487E-01 0.356E-01 -.324E-01
   -.856E-02 -.216E-01 -.979E-01   -.239E-08 -.802E-09 0.861E-08   0.483E-02 0.560E-02 0.504E-01
   0.893E-01 0.110E+00 -.103E+00   -.239E-08 0.631E-08 -.210E-08   -.703E-01 -.461E-01 0.419E-01
   0.382E-01 0.503E-01 0.811E-01   -.239E-08 0.631E-08 0.171E-08   0.326E-01 0.462E-01 -.480E-01
   -.606E-02 0.224E-01 0.568E-01   -.239E-08 0.631E-08 0.861E-08   -.213E-02 -.113E-01 -.328E-01
   0.373E-09 -.519E-01 -.753E-01   -.802E-09 -.239E-08 -.210E-08   0.000E+00 0.122E+00 0.195E-01
   0.373E-09 0.800E-01 0.907E-01   -.802E-09 -.239E-08 0.171E-08   0.000E+00 -.770E-01 -.143E-01
   0.373E-09 -.394E-02 -.521E-01   -.803E-09 -.239E-08 0.861E-08   0.000E+00 0.518E-02 0.140E-01
   0.372E-09 0.412E-01 -.329E-01   -.802E-09 -.802E-09 -.210E-08   0.000E+00 -.125E+00 -.139E-01
   0.372E-09 -.812E-01 0.548E-01   -.802E-09 -.802E-09 0.171E-08   0.000E+00 0.896E-01 -.431E-02
   0.373E-09 -.315E-01 0.171E-01   -.803E-09 -.802E-09 0.861E-08   0.000E+00 0.123E-01 -.416E-02
   0.373E-09 -.919E-02 -.168E-01   -.802E-09 0.631E-08 -.210E-08   0.000E+00 0.713E-02 0.376E-01
   0.373E-09 0.980E-03 0.533E-01   -.802E-09 0.631E-08 0.171E-08   0.000E+00 -.149E-01 -.100E+00
   0.373E-09 0.163E-01 0.173E+00   -.803E-09 0.631E-08 0.861E-08   0.000E+00 -.293E-02 -.875E-01
   0.464E-02 -.518E-01 -.764E-01   0.631E-08 -.239E-08 -.210E-08   0.143E-02 0.990E-01 0.140E-01
   -.408E-02 0.651E-01 0.544E-01   0.631E-08 -.239E-08 0.171E-08   0.355E-02 -.851E-01 -.501E-02
   0.647E-02 0.803E-02 0.747E-02   0.631E-08 -.239E-08 0.861E-08   -.151E-02 -.139E-02 0.222E-02
   0.735E-01 -.603E-01 -.856E-01   0.631E-08 -.802E-09 -.210E-08   0.509E-01 -.473E-01 0.517E-01
   0.135E+00 -.107E+00 0.928E-01   0.631E-08 -.802E-09 0.171E-08   -.487E-01 0.356E-01 -.324E-01
   0.856E-02 -.216E-01 -.979E-01   0.631E-08 -.802E-09 0.861E-08   -.483E-02 0.560E-02 0.504E-01
   -.893E-01 0.110E+00 -.103E+00   0.631E-08 0.631E-08 -.210E-08   0.703E-01 -.461E-01 0.419E-01
   -.382E-01 0.503E-01 0.811E-01   0.631E-08 0.631E-08 0.171E-08   -.326E-01 0.462E-01 -.480E-01
   0.606E-02 0.224E-01 0.568E-01   0.631E-08 0.631E-08 0.861E-08   0.213E-02 -.113E-01 -.328E-01
   -.846E-01 -.654E-01 -.193E+00   -.169E-07 -.169E-07 -.180E-07   0.752E-01 0.896E-01 0.219E+00
   0.127E-02 -.232E-01 0.175E+00   -.169E-07 -.169E-07 -.170E-08   0.314E-01 -.600E-02 -.196E+00
   0.121E-01 -.301E-01 0.105E+00   -.169E-07 -.169E-07 0.115E-07   -.144E-01 0.580E-01 -.186E+00
   0.504E+00 0.482E+00 0.172E+00   -.169E-07 0.802E-09 -.180E-07   -.305E+00 -.223E+00 -.180E+00
   -.157E-01 -.242E-01 -.132E+00   -.169E-07 0.802E-09 -.170E-08   -.389E-01 0.406E-01 0.234E+00
   0.752E-01 0.546E-01 -.164E+00   -.169E-07 0.802E-09 0.115E-07   -.398E-02 -.474E-01 0.137E+00
   -.385E-01 -.337E+00 0.103E+00   -.169E-07 0.130E-07 -.180E-07   0.647E-01 0.171E+00 -.161E+00
   -.241E-01 0.575E-01 -.533E-01   -.169E-07 0.130E-07 -.170E-08   0.398E-01 -.291E-01 0.154E+00
   -.110E-01 -.203E-01 -.548E-01   -.169E-07 0.130E-07 0.115E-07   -.794E-02 -.316E-02 0.387E-01
   0.846E-01 -.654E-01 -.193E+00   0.802E-09 -.169E-07 -.180E-07   -.752E-01 0.896E-01 0.219E+00
   -.127E-02 -.232E-01 0.175E+00   0.802E-09 -.169E-07 -.170E-08   -.314E-01 -.600E-02 -.196E+00
   -.121E-01 -.301E-01 0.105E+00   0.802E-09 -.169E-07 0.115E-07   0.144E-01 0.580E-01 -.186E+00
   -.504E+00 0.482E+00 0.172E+00   0.802E-09 0.802E-09 -.180E-07   0.305E+00 -.223E+00 -.180E+00
   0.157E-01 -.242E-01 -.132E+00   0.802E-09 0.802E-09 -.170E-08   0.389E-01 0.406E-01 0.234E+00
   -.752E-01 0.546E-01 -.164E+00   0.802E-09 0.802E-09 0.115E-07   0.398E-02 -.474E-01 0.137E+00
   0.385E-01 -.337E+00 0.103E+00   0.802E-09 0.130E-07 -.180E-07   -.647E-01 0.171E+00 -.161E+00
   0.241E-01 0.575E-01 -.533E-01   0.802E-09 0.130E-07 -.170E-08   -.398E-01 -.291E-01 0.154E+00
   0.110E-01 -.203E-01 -.548E-01   0.802E-09 0.130E-07 0.115E-07   0.794E-02 -.316E-02 0.387E-01
   -.605E-08 0.427E+00 -.113E+00   0.130E-07 -.169E-07 -.180E-07   0.000E+00 -.303E+00 0.151E+00
   -.605E-08 0.496E-01 0.961E-02   0.130E-07 -.169E-07 -.170E-08   0.000E+00 -.695E-02 0.415E-01
   -.605E-08 -.384E-01 0.527E-01   0.130E-07 -.169E-07 0.115E-07   0.000E+00 -.142E-01 -.163E+00
   -.605E-08 -.682E+00 -.243E+00   0.130E-07 0.802E-09 -.180E-07   0.000E+00 0.371E+00 0.219E+00
   -.605E-08 -.976E-01 0.297E+00   0.130E-07 0.802E-09 -.170E-08   0.000E+00 0.889E-01 -.315E+00
   -.605E-08 -.279E-02 0.150E+00   0.130E-07 0.802E-09 0.115E-07   0.000E+00 -.221E-02 -.237E+00
   -.605E-08 0.108E+00 0.175E+00   0.130E-07 0.130E-07 -.180E-07   0.000E+00 -.161E+00 -.177E+00
   -.605E-08 0.368E-01 -.980E-01   0.130E-07 0.130E-07 -.170E-08   0.000E+00 -.101E+00 0.170E+00
   -.605E-08 0.274E-01 -.205E+00   0.130E-07 0.130E-07 0.115E-07   0.000E+00 0.105E-01 0.236E+00
 -----------------------------------------------------------------------------------------------
   -.360E-07 0.875E-02 0.203E-01   -.614E-13 -.142E-13 0.128E-13   0.347E-16 -.876E-02 -.204E-01
 
 
 POSITION                                       TOTAL-FORCE (eV/Angst)
 -----------------------------------------------------------------------------------
      0.00000      0.00000      0.00000        -0.006006      0.038628     -0.062356
      0.00000      0.00000      3.47664         0.000892     -0.012518      0.048577
      0.00000      0.00000      6.95327        -0.005127      0.006820      0.009707
      0.00000      2.75005      0.00000        -0.120259     -0.103475     -0.036924
      0.00000      2.75005      3.47664        -0.090416     -0.074266      0.061740
      0.00000      2.75005      6.95327        -0.004223     -0.016612     -0.052732
      0.00000      5.50010      0.00000         0.025076      0.067850     -0.062830
      0.00000      5.50010      3.47664         0.068029      0.092258      0.035714
      0.00000      5.50010      6.95327        -0.008075      0.012155      0.027002
      2.75005      0.00000      0.00000         0.000000      0.059839     -0.056354
      2.75005      0.00000      3.47664         0.000000      0.009929      0.076460
      2.75005      0.00000      6.95327         0.000000      0.000854     -0.040263
      2.75005      2.75005      0.00000         0.000000     -0.072565     -0.043835
      2.75005      2.75005      3.47664         0.000000      0.000856      0.049253
      2.75005      2.75005      6.95327         0.000000     -0.020409      0.013611
      2.75005      5.50010      0.00000         0.000000     -0.002966      0.018681
      2.75005      5.50010      3.47664         0.000000     -0.012853     -0.038774
      2.75005      5.50010      6.95327         0.000000      0.013658      0.094616
      5.50010      0.00000      0.00000         0.006006      0.038628     -0.062356
      5.50010      0.00000      3.47664        -0.000892     -0.012518      0.048577
      5.50010      0.00000      6.95327         0.005127      0.006820      0.009707
      5.50010      2.75005      0.00000         0.120259     -0.103475     -0.036924
      5.50010      2.75005      3.47664         0.090416     -0.074266      0.061740
      5.50010      2.75005      6.95327         0.004223     -0.016612     -0.052732
      5.50010      5.50010      0.00000        -0.025076      0.067850     -0.062830
      5.50010      5.50010      3.47664        -0.068029      0.092258      0.035714
      5.50010      5.50010      6.95327         0.008075      0.012155      0.027002
      1.37502      1.37502      1.73832        -0.011907      0.024848      0.020797
      1.37502      1.37502      5.21496         0.032687     -0.029165     -0.018008
      1.37502      1.37502      8.69159        -0.001941      0.028092     -0.073817
      1.37502      4.12507      1.73832         0.206948      0.269694     -0.002891
      1.37502      4.12507      5.21496        -0.052336      0.019037      0.092399
      1.37502      4.12507      8.69159         0.070703      0.006596     -0.027463
      1.37502      6.87512      1.73832         0.026837     -0.171363     -0.050566
      1.37502      6.87512      5.21496         0.015328      0.026112      0.092975
      1.37502      6.87512      8.69159        -0.018977     -0.022745     -0.014779
      4.12507      1.37502      1.73832         0.011907      0.024848      0.020797
      4.12507      1.37502      5.21496        -0.032687     -0.029165     -0.018008
      4.12507      1.37502      8.69159         0.001941      0.028092     -0.073817
      4.12507      4.12507      1.73832        -0.206948      0.269694     -0.002891
      4.12507      4.12507      5.21496         0.052336      0.019037      0.092399
      4.12507      4.12507      8.69159        -0.070703      0.006596     -0.027463
      4.12507      6.87512      1.73832        -0.026837     -0.171363     -0.050566
      4.12507      6.87512      5.21496        -0.015328      0.026112      0.092975
      4.12507      6.87512      8.69159         0.018977     -0.022745     -0.014779
      6.87512      1.37502      1.73832         0.000000      0.129466      0.031252
      6.87512      1.37502      5.21496         0.000000      0.042181      0.048202
      6.87512      1.37502      8.69159         0.000000     -0.050076     -0.102425
      6.87512      4.12507      1.73832         0.000000     -0.325142     -0.027818
      6.87512      4.12507      5.21496         0.000000     -0.008332     -0.013216
      6.87512      4.12507      8.69159         0.000000     -0.007550     -0.078457
      6.87512      6.87512      1.73832         0.000000     -0.053621      0.003563
      6.87512      6.87512      5.21496         0.000000     -0.064331      0.064638
      6.87512      6.87512      8.69159         0.000000      0.037165      0.027773
 -----------------------------------------------------------------------------------
    total drift:                               -0.000000     -0.000011     -0.000032


--------------------------------------------------------------------------------------------------------



  FREE ENERGIE OF THE ION-ELECTRON SYSTEM (eV)
  ---------------------------------------------------
  free  energy   TOTEN  =      -356.24190372 eV

  energy  without entropy=     -356.23531489  energy(sigma->0) =     -356.23970744
 


--------------------------------------------------------------------------------------------------------


    POTLOK:  cpu time    0.8514: real time    0.8514


--------------------------------------------------------------------------------------------------------


     LOOP+:  cpu time 2172.7075: real time 2215.3213
    4ORBIT:  cpu time    0.0000: real time    0.0000
 


 total charge     
 
# of ion       s       p       d       tot
------------------------------------------
    1        0.405   0.429   0.000   0.834
    2        0.405   0.429   0.000   0.834
    3        0.405   0.427   0.000   0.832
    4        0.405   0.428   0.000   0.833
    5        0.405   0.428   0.000   0.833
    6        0.405   0.427   0.000   0.832
    7        0.405   0.428   0.000   0.833
    8        0.405   0.428   0.000   0.833
    9        0.405   0.427   0.000   0.832
   10        0.405   0.429   0.000   0.834
   11        0.405   0.429   0.000   0.834
   12        0.405   0.427   0.000   0.832
   13        0.405   0.429   0.000   0.834
   14        0.405   0.428   0.000   0.833
   15        0.405   0.427   0.000   0.832
   16        0.405   0.425   0.000   0.830
   17        0.405   0.425   0.000   0.830
   18        0.405   0.427   0.000   0.832
   19        0.405   0.429   0.000   0.834
   20        0.405   0.429   0.000   0.834
   21        0.405   0.427   0.000   0.832
   22        0.405   0.428   0.000   0.833
   23        0.405   0.428   0.000   0.833
   24        0.405   0.427   0.000   0.832
   25        0.405   0.428   0.000   0.833
   26        0.405   0.428   0.000   0.833
   27        0.405   0.427   0.000   0.832
   28        0.331   0.355   5.140   5.826
   29        0.333   0.352   5.134   5.819
   30        0.335   0.350   5.135   5.820
   31        0.336   0.354   5.125   5.815
   32        0.334   0.350   5.134   5.818
   33        0.333   0.352   5.131   5.815
   34        0.332   0.354   5.137   5.823
   35        0.335   0.351   5.134   5.819
   36        0.333   0.350   5.135   5.818
   37        0.332   0.355   5.134   5.820
   38        0.333   0.351   5.137   5.821
   39        0.335   0.350   5.137   5.821
   40        0.336   0.354   5.125   5.815
   41        0.334   0.349   5.141   5.824
   42        0.333   0.352   5.140   5.824
   43        0.332   0.354   5.130   5.816
   44        0.335   0.351   5.137   5.822
   45        0.333   0.350   5.141   5.824
   46        0.331   0.354   5.134   5.820
   47        0.333   0.350   5.139   5.822
   48        0.335   0.352   5.135   5.821
   49        0.334   0.354   5.133   5.821
   50        0.333   0.353   5.133   5.819
   51        0.335   0.348   5.138   5.821
   52        0.332   0.355   5.136   5.823
   53        0.335   0.349   5.137   5.821
   54        0.334   0.352   5.135   5.820
--------------------------------------------------
tot         19.936  21.049 138.647 179.632
 


 magnetization (x)
 
# of ion       s       p       d       tot
------------------------------------------
    1       -0.011  -0.020   0.000  -0.031
    2        0.010   0.019   0.000   0.030
    3       -0.000   0.000   0.000   0.000
    4       -0.015  -0.029   0.000  -0.044
    5        0.006   0.010   0.000   0.017
    6       -0.000  -0.001   0.000  -0.001
    7       -0.005  -0.010   0.000  -0.016
    8        0.016   0.029   0.000   0.045
    9        0.000  -0.000   0.000  -0.000
   10       -0.010  -0.019   0.000  -0.028
   11        0.012   0.021   0.000   0.032
   12        0.000  -0.002   0.000  -0.002
   13       -0.011  -0.021   0.000  -0.032
   14        0.011   0.019   0.000   0.030
   15       -0.000   0.000   0.000   0.000
   16       -0.002  -0.003   0.000  -0.004
   17        0.021   0.036   0.000   0.056
   18        0.000   0.001   0.000   0.002
   19       -0.011  -0.020   0.000  -0.031
   20        0.010   0.019   0.000   0.030
   21       -0.000   0.000   0.000   0.000
   22       -0.015  -0.029   0.000  -0.044
   23        0.006   0.010   0.000   0.017
   24       -0.000  -0.001   0.000  -0.001
   25       -0.005  -0.011   0.000  -0.016
   26        0.016   0.029   0.000   0.046
   27        0.000  -0.000   0.000  -0.000
   28        0.019   0.017   2.229   2.266
   29       -0.014  -0.019  -2.257  -2.290
   30        0.018   0.018   2.372   2.409
   31       -0.025  -0.021  -2.463  -2.510
   32       -0.018  -0.017  -2.377  -2.413
   33        0.013   0.019   2.267   2.299
   34       -0.013  -0.010  -2.359  -2.382
   35       -0.017  -0.021  -2.352  -2.390
   36        0.015   0.015   2.275   2.305
   37        0.019   0.017   2.229   2.265
   38       -0.014  -0.019  -2.250  -2.282
   39        0.019   0.018   2.370   2.406
   40       -0.025  -0.022  -2.463  -2.510
   41       -0.018  -0.017  -2.365  -2.401
   42        0.013   0.020   2.252   2.284
   43       -0.013  -0.010  -2.364  -2.387
   44       -0.017  -0.021  -2.348  -2.386
   45        0.015   0.015   2.265   2.296
   46        0.010   0.005   2.344   2.359
   47       -0.015  -0.015  -2.269  -2.299
   48        0.016   0.022   2.329   2.368
   49        0.031   0.028   2.302   2.361
   50       -0.012  -0.023  -2.246  -2.280
   51        0.020   0.014   2.395   2.429
   52       -0.022  -0.021  -2.238  -2.281
   53       -0.019  -0.017  -2.384  -2.420
   54        0.013   0.019   2.256   2.288
--------------------------------------------------
tot          0.004   0.005  -2.850  -2.842
 

 total amount of memory used by VASP MPI-rank0  1011122. kBytes
=======================================================================

   base      :      30000. kBytes
   nonl-proj :      34214. kBytes
   fftplans  :      31580. kBytes
   grid      :      21385. kBytes
   one-center:        435. kBytes
   wavefun   :     893508. kBytes
 
  
  
 General timing and accounting informations for this job:
 ========================================================
  
                  Total CPU time used (sec):     2209.294
                            User time (sec):     2180.589
                          System time (sec):       28.705
                         Elapsed time (sec):     2253.830
  
                   Maximum memory used (kb):     1182760.
                   Average memory used (kb):           0.
  
                          Minor page faults:       797824
                          Major page faults:           17
                 Voluntary context switches:         3471
