   36   36    1    2
  0.1314651E+02  0.8250148E-09  0.8250148E-09  0.6953274E-09  0.2000000E-15
  1.000000000000000E-004
  CAR 
 AlMn_pv                                 
    180     52    104
 
  0.0000000E+00  0.0000000E+00  0.0000000E+00  0.6666667E-02
    1       -2.510678     -2.524753   1.000000   1.000000
    2       -0.372625     -0.358098   1.000000   1.000000
    3       -0.344936     -0.353425   1.000000   1.000000
    4       -0.308252     -0.335425   1.000000   1.000000
    5       -0.281619     -0.324003   1.000000   1.000000
    6       -0.122418     -0.110371   1.000000   1.000000
    7        1.389081      1.355866   1.000000   1.000000
    8        1.406654      1.356779   1.000000   1.000000
    9        1.417220      1.370840   1.000000   1.000000
   10        1.420016      1.396518   1.000000   1.000000
   11        1.425937      1.409586   1.000000   1.000000
   12        1.563683      1.524428   1.000000   1.000000
   13        1.578510      1.560974   1.000000   1.000000
   14        1.627222      1.603799   1.000000   1.000000
   15        1.667723      1.620705   1.000000   1.000000
   16        2.742975      2.695656   1.000000   1.000000
   17        2.768981      2.710372   1.000000   1.000000
   18        2.892192      2.788387   1.000000   1.000000
   19        2.896409      2.821011   1.000000   1.000000
   20        3.487141      3.464900   1.000000   1.000000
   21        3.558403      3.497943   1.000000   1.000000
   22        3.608436      3.529513   1.000000   1.000000
   23        3.661052      3.559172   1.000000   1.000000
   24        4.149276      4.092030   1.000000   1.000000
   25        4.263364      4.099905   1.000000   1.000000
   26        4.383948      4.283739   1.000000   1.000000
   27        4.571781      4.383688   1.000000   1.000000
   28        4.584061      4.523646   1.000000   1.000000
   29        4.627552      4.548525   1.000000   1.000000
   30        4.656521      4.553376   1.000000   1.000000
   31        4.680439      4.586285   1.000000   1.000000
   32        4.696959      4.620486   1.000000   1.000000
   33        4.770987      4.654248   1.000000   1.000000
   34        4.774217      4.663501   1.000000   1.000000
   35        4.835757      4.736261   1.000000   1.000000
   36        5.002798      4.765861   1.000000   1.000000
   37        5.073883      4.816370   1.000000   1.000000
   38        5.080916      4.871287   1.000000   1.000000
   39        5.248342      4.964699   1.000000   1.000000
   40        5.312582      5.058972   1.000000   1.000000
   41        5.322245      5.217526   1.000000   1.000000
   42        5.344957      5.241244   1.000000   1.000000
   43        5.403741      5.312880   1.000000   1.000000
   44        5.466831      5.371110   1.000000   1.000000
   45        5.518894      5.377811   1.000000   1.000000
   46        5.546704      5.394249   1.000000   1.000000
   47        5.578384      5.397479   1.000000   1.000000
   48        5.628274      5.435757   1.000000   1.000000
   49        5.678847      5.466851   1.000000   1.000000
   50        5.701919      5.472737   1.000000   1.000000
   51        5.709827      5.523826   1.000000   1.000000
   52        5.794032      5.568673   1.000000   1.000000
   53        5.853624      5.641715   1.000000   1.000000
   54        5.968896      5.695366   1.000000   1.000000
   55        6.026402      5.717873   1.000000   1.000000
   56        6.111348      5.788539   1.000000   1.000000
   57        6.235347      5.860571   1.000000   1.000000
   58        6.270485      5.895219   1.000000   1.000000
   59        6.303823      5.993970   1.000000   1.000000
   60        6.364526      6.014580   1.000000   1.000000
   61        6.414323      6.024934   1.000000   1.000000
   62        6.472424      6.115616   1.000000   1.000000
   63        6.486122      6.116065   1.000000   1.000000
   64        6.525266      6.251004   1.000000   1.000000
   65        6.533854      6.340715   1.000000   1.000000
   66        6.546993      6.364303   1.000000   1.000000
   67        6.639018      6.388481   1.000000   1.000000
   68        6.651483      6.400025   1.000000   1.000000
   69        6.697071      6.430084   1.000000   1.000000
   70        6.716431      6.431480   1.000000   1.000000
   71        6.722872      6.457977   1.000000   1.000000
   72        6.813525      6.551951   1.000000   1.000000
   73        6.853227      6.585955   1.000000   1.000000
   74        6.907131      6.646965   1.000000   1.000000
   75        6.976487      6.677581   1.000000   1.000000
   76        7.190200      6.681332   1.000314   1.000000
   77        7.215800      6.692420   1.000595   1.000000
   78        7.295380      6.710065   1.003332   1.000000
   79        7.348937      6.756794   1.008541   1.000000
   80        7.459645      6.775783   1.030847   1.000000
   81        7.534744      6.799599   1.029549   1.000000
   82        7.605663      6.898188   0.958359   1.000000
   83        7.660289      7.006179   0.824461   1.000001
   84        7.676887      7.136247   0.768860   1.000074
   85        7.701027      7.218579   0.679641   1.000641
   86        7.792907      7.259422   0.302931   1.001613
   87        7.797120      7.306316   0.285418   1.004118
   88        7.922786      7.330722  -0.009820   1.006379
   89        7.990193      7.349050  -0.035455   1.008596
   90        8.052436      7.373547  -0.025822   1.012429
   91        8.081052      7.479016  -0.019318   1.034100
   92        8.122572      7.493855  -0.011212   1.035352
   93        8.161621      7.545212  -0.005966   1.024572
   94        8.261112      7.647335  -0.000776   0.860791
   95        8.336960      7.829388  -0.000105   0.174054
   96        8.384460      7.937282  -0.000029  -0.021384
   97        8.462935      7.984401  -0.000002  -0.035406
   98        8.530434      7.993518  -0.000000  -0.035339
   99        8.629467      8.031110  -0.000000  -0.029265
  100        8.654299      8.097683  -0.000000  -0.015184
  101        8.725387      8.184952  -0.000000  -0.001972
  102        8.763605      8.228592  -0.000000  -0.000299
  103        8.773957      8.321580  -0.000000  -0.000022
  104        8.876588      8.784816  -0.000000  -0.000000
 
  0.2000000E+00  0.0000000E+00  0.0000000E+00  0.1333333E-01
    1       -2.420166     -2.434189   1.000000   1.000000
    2       -1.094603     -1.108321   1.000000   1.000000
    3       -0.262676     -0.267041   1.000000   1.000000
    4       -0.225315     -0.253637   1.000000   1.000000
    5       -0.056105     -0.045108   1.000000   1.000000
    6        0.576736      0.559998   1.000000   1.000000
    7        0.892464      0.884421   1.000000   1.000000
    8        0.936696      0.917419   1.000000   1.000000
    9        0.960896      0.929556   1.000000   1.000000
   10        1.467323      1.430354   1.000000   1.000000
   11        1.479617      1.454527   1.000000   1.000000
   12        1.516153      1.457188   1.000000   1.000000
   13        1.951443      1.901763   1.000000   1.000000
   14        2.337826      2.286778   1.000000   1.000000
   15        2.347904      2.301134   1.000000   1.000000
   16        2.357295      2.301598   1.000000   1.000000
   17        2.365439      2.317013   1.000000   1.000000
   18        2.853700      2.795442   1.000000   1.000000
   19        3.284946      3.200672   1.000000   1.000000
   20        3.318563      3.214170   1.000000   1.000000
   21        3.619325      3.564264   1.000000   1.000000
   22        3.668712      3.587632   1.000000   1.000000
   23        3.767284      3.718545   1.000000   1.000000
   24        4.127123      4.067273   1.000000   1.000000
   25        4.210272      4.075553   1.000000   1.000000
   26        4.340948      4.236910   1.000000   1.000000
   27        4.360116      4.274745   1.000000   1.000000
   28        4.503138      4.336234   1.000000   1.000000
   29        4.594722      4.476226   1.000000   1.000000
   30        4.604675      4.491697   1.000000   1.000000
   31        4.668966      4.520057   1.000000   1.000000
   32        4.682083      4.562302   1.000000   1.000000
   33        4.701938      4.603766   1.000000   1.000000
   34        4.772299      4.641627   1.000000   1.000000
   35        4.925295      4.747073   1.000000   1.000000
   36        4.970350      4.865452   1.000000   1.000000
   37        5.078797      4.920939   1.000000   1.000000
   38        5.095311      4.929298   1.000000   1.000000
   39        5.169689      4.989204   1.000000   1.000000
   40        5.200965      5.017718   1.000000   1.000000
   41        5.268928      5.059370   1.000000   1.000000
   42        5.338555      5.231403   1.000000   1.000000
   43        5.401883      5.245874   1.000000   1.000000
   44        5.446221      5.349792   1.000000   1.000000
   45        5.487984      5.355388   1.000000   1.000000
   46        5.506643      5.391210   1.000000   1.000000
   47        5.573880      5.421365   1.000000   1.000000
   48        5.634151      5.451434   1.000000   1.000000
   49        5.687207      5.509266   1.000000   1.000000
   50        5.761463      5.542385   1.000000   1.000000
   51        5.795422      5.552743   1.000000   1.000000
   52        5.873278      5.614793   1.000000   1.000000
   53        5.921062      5.690894   1.000000   1.000000
   54        6.013232      5.716677   1.000000   1.000000
   55        6.036363      5.740358   1.000000   1.000000
   56        6.101996      5.801619   1.000000   1.000000
   57        6.222762      5.850422   1.000000   1.000000
   58        6.250486      5.861007   1.000000   1.000000
   59        6.254770      5.964061   1.000000   1.000000
   60        6.340129      6.011614   1.000000   1.000000
   61        6.362291      6.013361   1.000000   1.000000
   62        6.406235      6.126722   1.000000   1.000000
   63        6.435527      6.144798   1.000000   1.000000
   64        6.454236      6.253622   1.000000   1.000000
   65        6.490493      6.282945   1.000000   1.000000
   66        6.509889      6.310567   1.000000   1.000000
   67        6.577922      6.337152   1.000000   1.000000
   68        6.645064      6.361637   1.000000   1.000000
   69        6.702180      6.433355   1.000000   1.000000
   70        6.746121      6.439522   1.000000   1.000000
   71        6.796674      6.463484   1.000000   1.000000
   72        6.846346      6.511957   1.000000   1.000000
   73        6.866261      6.553866   1.000000   1.000000
   74        6.939523      6.569695   1.000000   1.000000
   75        6.977270      6.628578   1.000000   1.000000
   76        7.216717      6.640381   1.000609   1.000000
   77        7.222064      6.709845   1.000688   1.000000
   78        7.309333      6.717523   1.004334   1.000000
   79        7.363725      6.763044   1.010747   1.000000
   80        7.389037      6.796803   1.015262   1.000000
   81        7.394363      6.852677   1.016372   1.000000
   82        7.579097      6.877285   0.997040   1.000000
   83        7.681922      6.897687   0.751763   1.000000
   84        7.698306      6.980993   0.689791   1.000000
   85        7.733600      7.170030   0.546611   1.000188
   86        7.787803      7.227201   0.322803   1.000785
   87        7.826819      7.264817   0.182065   1.001800
   88        7.972936      7.303741  -0.034271   1.003938
   89        8.024052      7.424528  -0.031846   1.023080
   90        8.067345      7.482637  -0.022387   1.034513
   91        8.081576      7.503035  -0.019220   1.035403
   92        8.117368      7.559797  -0.012067   1.015257
   93        8.166892      7.618520  -0.005471   0.932102
   94        8.235058      7.686086  -0.001417   0.735108
   95        8.355441      7.852479  -0.000068   0.107991
   96        8.403832      7.882967  -0.000016   0.042234
   97        8.420736      7.985585  -0.000009  -0.035419
   98        8.495595      8.049636  -0.000001  -0.026347
   99        8.569826      8.055452  -0.000000  -0.024906
  100        8.607272      8.101048  -0.000000  -0.014729
  101        8.651407      8.141208  -0.000000  -0.008185
  102        8.668920      8.180069  -0.000000  -0.002926
  103        8.673383      8.346414  -0.000000  -0.000044
  104        8.751990      8.355928  -0.000000  -0.000007
 
  0.4000000E+00  0.0000000E+00  0.0000000E+00  0.1333333E-01
    1       -2.150297     -2.164151   1.000000   1.000000
    2       -1.705354     -1.719294   1.000000   1.000000
    3       -0.016542     -0.022663   1.000000   1.000000
    4        0.019405     -0.009298   1.000000   1.000000
    5        0.140692      0.148162   1.000000   1.000000
    6        0.387744      0.379974   1.000000   1.000000
    7        0.421536      0.392513   1.000000   1.000000
    8        0.461469      0.463883   1.000000   1.000000
    9        1.598591      1.569155   1.000000   1.000000
   10        1.649641      1.612388   1.000000   1.000000
   11        1.661077      1.635586   1.000000   1.000000
   12        1.795955      1.734974   1.000000   1.000000
   13        1.964632      1.905696   1.000000   1.000000
   14        1.973736      1.939705   1.000000   1.000000
   15        2.250133      2.191090   1.000000   1.000000
   16        2.380143      2.305300   1.000000   1.000000
   17        2.695729      2.668147   1.000000   1.000000
   18        2.987823      2.918693   1.000000   1.000000
   19        3.041551      2.952951   1.000000   1.000000
   20        3.635923      3.540875   1.000000   1.000000
   21        3.716791      3.584461   1.000000   1.000000
   22        3.798317      3.731853   1.000000   1.000000
   23        3.820601      3.742691   1.000000   1.000000
   24        4.043584      3.977417   1.000000   1.000000
   25        4.066772      3.982130   1.000000   1.000000
   26        4.145977      4.077408   1.000000   1.000000
   27        4.215768      4.106130   1.000000   1.000000
   28        4.395714      4.289405   1.000000   1.000000
   29        4.460617      4.290383   1.000000   1.000000
   30        4.521146      4.331785   1.000000   1.000000
   31        4.551242      4.334661   1.000000   1.000000
   32        4.575636      4.538445   1.000000   1.000000
   33        4.663693      4.636094   1.000000   1.000000
   34        4.787138      4.678071   1.000000   1.000000
   35        4.939232      4.779335   1.000000   1.000000
   36        4.975328      4.851374   1.000000   1.000000
   37        5.102276      4.928182   1.000000   1.000000
   38        5.117750      4.970791   1.000000   1.000000
   39        5.146726      5.014278   1.000000   1.000000
   40        5.207276      5.089674   1.000000   1.000000
   41        5.264356      5.101213   1.000000   1.000000
   42        5.356830      5.223821   1.000000   1.000000
   43        5.395855      5.259791   1.000000   1.000000
   44        5.425800      5.309781   1.000000   1.000000
   45        5.483272      5.348560   1.000000   1.000000
   46        5.498704      5.370273   1.000000   1.000000
   47        5.532107      5.452665   1.000000   1.000000
   48        5.633501      5.511334   1.000000   1.000000
   49        5.694333      5.532279   1.000000   1.000000
   50        5.801449      5.569295   1.000000   1.000000
   51        5.802413      5.579464   1.000000   1.000000
   52        5.924240      5.651320   1.000000   1.000000
   53        5.959933      5.666861   1.000000   1.000000
   54        6.013926      5.704880   1.000000   1.000000
   55        6.062507      5.729578   1.000000   1.000000
   56        6.107998      5.733689   1.000000   1.000000
   57        6.137857      5.761814   1.000000   1.000000
   58        6.163715      5.861530   1.000000   1.000000
   59        6.218640      5.953574   1.000000   1.000000
   60        6.245347      5.964660   1.000000   1.000000
   61        6.274353      6.087391   1.000000   1.000000
   62        6.343946      6.126049   1.000000   1.000000
   63        6.407462      6.188394   1.000000   1.000000
   64        6.415467      6.207248   1.000000   1.000000
   65        6.439290      6.212615   1.000000   1.000000
   66        6.490344      6.248646   1.000000   1.000000
   67        6.600699      6.287792   1.000000   1.000000
   68        6.648761      6.352130   1.000000   1.000000
   69        6.685240      6.385030   1.000000   1.000000
   70        6.787425      6.422462   1.000000   1.000000
   71        6.837194      6.428725   1.000000   1.000000
   72        6.898861      6.492116   1.000000   1.000000
   73        6.934305      6.530034   1.000000   1.000000
   74        7.010197      6.530878   1.000001   1.000000
   75        7.068560      6.575040   1.000009   1.000000
   76        7.089705      6.607727   1.000019   1.000000
   77        7.176521      6.624159   1.000221   1.000000
   78        7.196277      6.655178   1.000369   1.000000
   79        7.232543      6.727715   1.000881   1.000000
   80        7.346369      6.826267   1.008221   1.000000
   81        7.444697      6.858029   1.027613   1.000000
   82        7.580002      6.888792   0.996330   1.000000
   83        7.731973      6.966369   0.554393   1.000000
   84        7.768836      7.042146   0.399089   1.000004
   85        7.798911      7.079800   0.279224   1.000014
   86        7.813079      7.181964   0.228928   1.000255
   87        7.890727      7.236717   0.029706   1.000979
   88        7.966034      7.262502  -0.032917   1.001716
   89        7.997811      7.441328  -0.035218   1.027018
   90        8.030580      7.526270  -0.030686   1.032128
   91        8.083389      7.559960  -0.018833   1.015208
   92        8.157181      7.580790  -0.006457   0.994193
   93        8.212410      7.658689  -0.002299   0.829031
   94        8.219599      7.670026  -0.001956   0.791996
   95        8.285357      7.810508  -0.000428   0.237851
   96        8.372870      7.871996  -0.000041   0.063493
   97        8.417261      7.968084  -0.000010  -0.033551
   98        8.423433      7.998940  -0.000009  -0.033140
   99        8.498415      8.100396  -0.000000  -0.014871
  100        8.540527      8.106075  -0.000000  -0.012784
  101        8.570807      8.138416  -0.000000  -0.007133
  102        8.627473      8.203526  -0.000000  -0.001815
  103        8.687574      8.279818  -0.000000  -0.000247
  104        8.699454      8.384061  -0.000000  -0.000024
 
  0.0000000E+00  0.2000000E+00  0.0000000E+00  0.1333333E-01
    1       -2.420177     -2.434198   1.000000   1.000000
    2       -1.094590     -1.108399   1.000000   1.000000
    3       -0.262137     -0.273462   1.000000   1.000000
    4       -0.226187     -0.246419   1.000000   1.000000
    5       -0.056060     -0.045182   1.000000   1.000000
    6        0.578504      0.558070   1.000000   1.000000
    7        0.893824      0.882385   1.000000   1.000000
    8        0.930793      0.910653   1.000000   1.000000
    9        0.965231      0.937591   1.000000   1.000000
   10        1.455967      1.431220   1.000000   1.000000
   11        1.486962      1.454524   1.000000   1.000000
   12        1.516260      1.462465   1.000000   1.000000
   13        1.954191      1.897972   1.000000   1.000000
   14        2.330223      2.280284   1.000000   1.000000
   15        2.347622      2.297176   1.000000   1.000000
   16        2.355974      2.308749   1.000000   1.000000
   17        2.372136      2.323186   1.000000   1.000000
   18        2.853496      2.794488   1.000000   1.000000
   19        3.288940      3.187693   1.000000   1.000000
   20        3.327466      3.222488   1.000000   1.000000
   21        3.622075      3.563144   1.000000   1.000000
   22        3.666291      3.595863   1.000000   1.000000
   23        3.764108      3.716573   1.000000   1.000000
   24        4.127494      4.062798   1.000000   1.000000
   25        4.213210      4.070836   1.000000   1.000000
   26        4.337160      4.242251   1.000000   1.000000
   27        4.362960      4.273325   1.000000   1.000000
   28        4.526822      4.345559   1.000000   1.000000
   29        4.603513      4.471929   1.000000   1.000000
   30        4.604583      4.497048   1.000000   1.000000
   31        4.656887      4.524187   1.000000   1.000000
   32        4.669429      4.555604   1.000000   1.000000
   33        4.702188      4.579408   1.000000   1.000000
   34        4.739609      4.626399   1.000000   1.000000
   35        4.915008      4.783845   1.000000   1.000000
   36        4.980653      4.856193   1.000000   1.000000
   37        5.077783      4.922166   1.000000   1.000000
   38        5.119879      4.951147   1.000000   1.000000
   39        5.184388      4.985574   1.000000   1.000000
   40        5.202010      5.001836   1.000000   1.000000
   41        5.270002      5.051857   1.000000   1.000000
   42        5.316949      5.230360   1.000000   1.000000
   43        5.364040      5.264516   1.000000   1.000000
   44        5.424314      5.280209   1.000000   1.000000
   45        5.514473      5.320572   1.000000   1.000000
   46        5.544406      5.373006   1.000000   1.000000
   47        5.573745      5.450798   1.000000   1.000000
   48        5.624960      5.455990   1.000000   1.000000
   49        5.647473      5.499909   1.000000   1.000000
   50        5.710068      5.521555   1.000000   1.000000
   51        5.745807      5.530098   1.000000   1.000000
   52        5.828779      5.647752   1.000000   1.000000
   53        5.934305      5.697751   1.000000   1.000000
   54        5.943980      5.745151   1.000000   1.000000
   55        6.088797      5.768298   1.000000   1.000000
   56        6.154384      5.830859   1.000000   1.000000
   57        6.234933      5.879465   1.000000   1.000000
   58        6.249291      5.900371   1.000000   1.000000
   59        6.318659      5.952194   1.000000   1.000000
   60        6.393481      6.020172   1.000000   1.000000
   61        6.405513      6.050814   1.000000   1.000000
   62        6.430107      6.119736   1.000000   1.000000
   63        6.476770      6.153913   1.000000   1.000000
   64        6.479669      6.252307   1.000000   1.000000
   65        6.529583      6.264227   1.000000   1.000000
   66        6.586813      6.301927   1.000000   1.000000
   67        6.605963      6.312951   1.000000   1.000000
   68        6.630909      6.399147   1.000000   1.000000
   69        6.683116      6.444414   1.000000   1.000000
   70        6.734717      6.484298   1.000000   1.000000
   71        6.742451      6.488936   1.000000   1.000000
   72        6.798325      6.502820   1.000000   1.000000
   73        6.870090      6.578578   1.000000   1.000000
   74        6.930230      6.591746   1.000000   1.000000
   75        7.010597      6.654293   1.000001   1.000000
   76        7.200342      6.669712   1.000406   1.000000
   77        7.254872      6.715515   1.001451   1.000000
   78        7.293673      6.725567   1.003225   1.000000
   79        7.325751      6.757275   1.005811   1.000000
   80        7.379729      6.764373   1.013501   1.000000
   81        7.421760      6.794351   1.022405   1.000000
   82        7.563296      6.859011   1.012646   1.000000
   83        7.632399      6.893947   0.902014   1.000000
   84        7.649476      6.956081   0.855954   1.000000
   85        7.679139      7.087511   0.761570   1.000017
   86        7.784763      7.111808   0.333367   1.000037
   87        7.792895      7.182591   0.302872   1.000261
   88        7.920192      7.260224  -0.007467   1.001638
   89        8.023237      7.397091  -0.032001   1.016954
   90        8.053080      7.405396  -0.025693   1.018743
   91        8.088333      7.517052  -0.017752   1.034101
   92        8.146841      7.570306  -0.007705   1.005719
   93        8.165798      7.651303  -0.005585   0.849851
   94        8.225474      7.766609  -0.001750   0.406243
   95        8.307411      7.904240  -0.000252   0.009098
   96        8.331364      7.981810  -0.000130  -0.035273
   97        8.407947      7.994653  -0.000014  -0.035311
   98        8.472884      8.037370  -0.000001  -0.029187
   99        8.505903      8.057965  -0.000000  -0.024283
  100        8.622449      8.112279  -0.000000  -0.012884
  101        8.669761      8.144775  -0.000000  -0.007610
  102        8.726036      8.242514  -0.000000  -0.001143
  103        8.729305      8.274056  -0.000000  -0.000431
  104        8.852677      8.412716  -0.000000  -0.000001
 
  0.2000000E+00  0.2000000E+00  0.0000000E+00  0.1333333E-01
    1       -2.329931     -2.343914   1.000000   1.000000
    2       -1.032723     -1.025605   1.000000   1.000000
    3       -0.983011     -1.019576   1.000000   1.000000
    4        0.010136      0.019922   1.000000   1.000000
    5        0.235991      0.218243   1.000000   1.000000
    6        0.636230      0.637234   1.000000   1.000000
    7        0.682059      0.641908   1.000000   1.000000
    8        0.952239      0.926672   1.000000   1.000000
    9        0.962879      0.968255   1.000000   1.000000
   10        1.609688      1.547710   1.000000   1.000000
   11        1.733403      1.696760   1.000000   1.000000
   12        1.798940      1.770152   1.000000   1.000000
   13        1.853325      1.821185   1.000000   1.000000
   14        2.012848      1.959632   1.000000   1.000000
   15        2.042947      1.983391   1.000000   1.000000
   16        2.813786      2.757500   1.000000   1.000000
   17        2.880221      2.833259   1.000000   1.000000
   18        2.914843      2.837356   1.000000   1.000000
   19        2.936082      2.847233   1.000000   1.000000
   20        2.995587      2.906526   1.000000   1.000000
   21        3.717955      3.595492   1.000000   1.000000
   22        3.812565      3.753604   1.000000   1.000000
   23        3.818046      3.773371   1.000000   1.000000
   24        3.875174      3.799983   1.000000   1.000000
   25        4.238159      4.101212   1.000000   1.000000
   26        4.335150      4.214098   1.000000   1.000000
   27        4.364339      4.312013   1.000000   1.000000
   28        4.408874      4.320754   1.000000   1.000000
   29        4.435002      4.346923   1.000000   1.000000
   30        4.525888      4.399536   1.000000   1.000000
   31        4.591174      4.416509   1.000000   1.000000
   32        4.643244      4.499620   1.000000   1.000000
   33        4.663129      4.543718   1.000000   1.000000
   34        4.844990      4.640386   1.000000   1.000000
   35        4.852442      4.738207   1.000000   1.000000
   36        4.957318      4.837555   1.000000   1.000000
   37        5.026662      4.864487   1.000000   1.000000
   38        5.061759      4.894014   1.000000   1.000000
   39        5.137380      5.001397   1.000000   1.000000
   40        5.196419      5.083698   1.000000   1.000000
   41        5.327994      5.203525   1.000000   1.000000
   42        5.358315      5.205079   1.000000   1.000000
   43        5.414005      5.243701   1.000000   1.000000
   44        5.432582      5.324841   1.000000   1.000000
   45        5.496708      5.363994   1.000000   1.000000
   46        5.517054      5.380711   1.000000   1.000000
   47        5.585141      5.433270   1.000000   1.000000
   48        5.628725      5.498134   1.000000   1.000000
   49        5.698374      5.507484   1.000000   1.000000
   50        5.799725      5.557652   1.000000   1.000000
   51        5.853267      5.570447   1.000000   1.000000
   52        5.925454      5.680665   1.000000   1.000000
   53        5.936434      5.685831   1.000000   1.000000
   54        5.978178      5.762409   1.000000   1.000000
   55        6.049510      5.780107   1.000000   1.000000
   56        6.142614      5.817535   1.000000   1.000000
   57        6.176669      5.847887   1.000000   1.000000
   58        6.247896      5.919542   1.000000   1.000000
   59        6.289645      5.939788   1.000000   1.000000
   60        6.322451      6.007048   1.000000   1.000000
   61        6.354845      6.025492   1.000000   1.000000
   62        6.384384      6.110429   1.000000   1.000000
   63        6.456116      6.179538   1.000000   1.000000
   64        6.471371      6.216284   1.000000   1.000000
   65        6.530852      6.267790   1.000000   1.000000
   66        6.557204      6.286245   1.000000   1.000000
   67        6.610622      6.332602   1.000000   1.000000
   68        6.645679      6.405080   1.000000   1.000000
   69        6.699852      6.423643   1.000000   1.000000
   70        6.723625      6.461293   1.000000   1.000000
   71        6.813066      6.465541   1.000000   1.000000
   72        6.868004      6.483739   1.000000   1.000000
   73        6.869974      6.586802   1.000000   1.000000
   74        6.999287      6.620962   1.000001   1.000000
   75        7.021769      6.652653   1.000002   1.000000
   76        7.117102      6.667803   1.000042   1.000000
   77        7.158989      6.693081   1.000139   1.000000
   78        7.261019      6.721734   1.001658   1.000000
   79        7.282409      6.735585   1.002581   1.000000
   80        7.338145      6.796710   1.007164   1.000000
   81        7.401193      6.820099   1.017809   1.000000
   82        7.573896      6.836406   1.002703   1.000000
   83        7.576625      6.870889   0.999504   1.000000
   84        7.662924      6.888398   0.815921   1.000000
   85        7.671490      7.033371   0.788076   1.000003
   86        7.793397      7.123069   0.301028   1.000051
   87        7.814486      7.133220   0.223018   1.000068
   88        7.895921      7.241634   0.021575   1.001092
   89        8.023105      7.334797  -0.031991   1.006824
   90        8.037081      7.429444  -0.029442   1.024172
   91        8.097011      7.456600  -0.015868   1.030284
   92        8.165488      7.518513  -0.005595   1.033847