       N       E                     dE             d eps       ncg     rms          ort
DAV:   1     0.136980302485E+04    0.13698E+04   -0.57694E+04  5408   0.151E+03
DAV:   2    -0.358140144983E+02   -0.14056E+04   -0.13859E+04  5408   0.470E+02
DAV:   3    -0.232392647640E+03   -0.19658E+03   -0.18283E+03  5408   0.187E+02
DAV:   4    -0.264992331434E+03   -0.32600E+02   -0.29957E+02  5408   0.808E+01
DAV:   5    -0.269326745508E+03   -0.43344E+01   -0.41242E+01  5408   0.240E+01
DAV:   6    -0.269876339892E+03   -0.54959E+00   -0.52751E+00  5408   0.658E+00
DAV:   7    -0.269974525059E+03   -0.98185E-01   -0.94737E-01  5408   0.227E+00
DAV:   8    -0.269995768843E+03   -0.21244E-01   -0.20567E-01  5408   0.760E-01
SDA:   9    -0.613585273821E+02    0.20864E+03   -0.20567E-01  5408   0.233E+04 0.000E+00
CGA:  10    -0.208462271618E+03   -0.14710E+03   -0.14912E+03  5408   0.108E+03 0.360E+03
CGA:  11    -0.217810429940E+03   -0.93482E+01   -0.93220E+01  5408   0.572E+02 0.108E+01
CGA:  12    -0.228160534883E+03   -0.10350E+02   -0.10349E+02  5408   0.830E+02-0.581E-01
CGA:  13    -0.232801248260E+03   -0.46407E+01   -0.47680E+01  5408   0.113E+02-0.328E+00
CGA:  14    -0.233715245098E+03   -0.91400E+00   -0.92053E+00  5408   0.568E+01-0.320E-01
CGA:  15    -0.234642892518E+03   -0.92765E+00   -0.92782E+00  5408   0.621E+01 0.896E-02
CGA:  16    -0.235094229184E+03   -0.45134E+00   -0.45191E+00  5408   0.194E+01 0.427E-02
CGA:  17    -0.235276167812E+03   -0.18194E+00   -0.18177E+00  5408   0.168E+01 0.116E-02
CGA:  18    -0.235509614197E+03   -0.23345E+00   -0.23343E+00  5408   0.144E+01-0.145E-02
CGA:  19    -0.235634921246E+03   -0.12531E+00   -0.12575E+00  5408   0.566E+00-0.339E-02
CGA:  20    -0.235694053187E+03   -0.59132E-01   -0.59230E-01  5408   0.620E+00-0.406E-03
CGA:  21    -0.235802794212E+03   -0.10874E+00   -0.10874E+00  5408   0.617E+00-0.109E-03
CGA:  22    -0.235859611242E+03   -0.56817E-01   -0.56761E-01  5408   0.258E+00-0.349E-03
CGA:  23    -0.235887411079E+03   -0.27800E-01   -0.27766E-01  5408   0.264E+00-0.451E-03
CGA:  24    -0.235928680439E+03   -0.41269E-01   -0.41273E-01  5408   0.319E+00-0.916E-03
CGA:  25    -0.235959431705E+03   -0.30751E-01   -0.30715E-01  5408   0.194E+00-0.514E-03
CGA:  26    -0.235985672421E+03   -0.26241E-01   -0.26228E-01  5408   0.190E+00-0.400E-03
CGA:  27    -0.236010532006E+03   -0.24860E-01   -0.24850E-01  5408   0.132E+00 0.744E-04
CGA:  28    -0.236022240407E+03   -0.11708E-01   -0.11701E-01  5408   0.727E-01 0.554E-03
CGA:  29    -0.236031618699E+03   -0.93783E-02   -0.93826E-02  5408   0.731E-01 0.396E-03
CGA:  30    -0.236041235690E+03   -0.96170E-02   -0.96227E-02  5408   0.658E-01 0.497E-03
CGA:  31    -0.236048426072E+03   -0.71904E-02   -0.72017E-02  5408   0.526E-01 0.391E-03
CGA:  32    -0.236055677519E+03   -0.72514E-02   -0.72534E-02  5408   0.470E-01 0.405E-03
CGA:  33    -0.236060961643E+03   -0.52841E-02   -0.52921E-02  5408   0.282E-01 0.316E-03
CGA:  34    -0.236064258421E+03   -0.32968E-02   -0.33016E-02  5408   0.228E-01 0.223E-03
CGA:  35    -0.236067069040E+03   -0.28106E-02   -0.28130E-02  5408   0.210E-01 0.156E-03
CGA:  36    -0.236069314426E+03   -0.22454E-02   -0.22488E-02  5408   0.136E-01 0.948E-04
CGA:  37    -0.236071412510E+03   -0.20981E-02   -0.20968E-02  5408   0.173E-01 0.532E-04
CGA:  38    -0.236073651156E+03   -0.22386E-02   -0.22391E-02  5408   0.141E-01 0.426E-04
CGA:  39    -0.236074997672E+03   -0.13465E-02   -0.13480E-02  5408   0.570E-02 0.218E-04
SDA:  40    -0.236075743640E+03   -0.74597E-03   -0.74598E-03  5408   0.672E-02 0.748E-05
CGA:  41    -0.236076214903E+03   -0.47126E-03   -0.47036E-03  5408   0.543E-02-0.116E-04
CGA:  42    -0.236077045301E+03   -0.83040E-03   -0.83116E-03  5408   0.390E-02-0.360E-04
CGA:  43    -0.236077704855E+03   -0.65955E-03   -0.66022E-03  5408   0.486E-02-0.175E-04
CGA:  44    -0.236078248198E+03   -0.54334E-03   -0.54316E-03  5408   0.225E-02-0.865E-05
CGA:  45    -0.236078596468E+03   -0.34827E-03   -0.34851E-03  5408   0.351E-02-0.110E-04
CGA:  46    -0.236079052704E+03   -0.45624E-03   -0.45617E-03  5408   0.203E-02-0.170E-04
CGA:  47    -0.236079316287E+03   -0.26358E-03   -0.26357E-03  5408   0.321E-02-0.268E-05
CGA:  48    -0.236079751736E+03   -0.43545E-03   -0.43546E-03  5408   0.256E-02-0.416E-05
CGA:  49    -0.236079983900E+03   -0.23216E-03   -0.23204E-03  5408   0.148E-02 0.645E-06
CGA:  50    -0.236080331546E+03   -0.34765E-03   -0.34798E-03  5408   0.190E-02-0.235E-05
CGA:  51    -0.236080471910E+03   -0.14036E-03   -0.14007E-03  5408   0.616E-03 0.318E-05
CGA:  52    -0.236080625463E+03   -0.15355E-03   -0.15303E-03  5408   0.158E-02 0.539E-05
CGA:  53    -0.236080770586E+03   -0.14512E-03   -0.14517E-03  5408   0.370E-03 0.700E-05
CGA:  54    -0.236080823965E+03   -0.53379E-04   -0.53372E-04  5408   0.948E-03 0.159E-05
CGA:  55    -0.236081238438E+03   -0.41447E-03   -0.38189E-03  5408  -0.279E-02 0.168E-03
CGA:  56    -0.236079474769E+03    0.17637E-02   -0.31908E-03  5408   0.471E-01-0.130E-01
CGA:  57    -0.236081252302E+03   -0.17775E-02   -0.17556E-02  5408  -0.152E-02 0.291E-03
CGA:  58    -0.236080414435E+03    0.83787E-03   -0.12543E-03  5408   0.102E-01-0.450E-02
CGA:  59    -0.236080837436E+03   -0.42300E-03   -0.42284E-03  5408   0.828E-03 0.200E-05
CGA:  60    -0.236080886309E+03   -0.48873E-04   -0.48866E-04  5408   0.216E-03-0.560E-06
CGA:  61    -0.236080946231E+03   -0.59921E-04   -0.59701E-04  5408   0.287E-03 0.171E-05
CGA:  62    -0.236080968533E+03   -0.22303E-04   -0.22208E-04  5408   0.896E-04-0.203E-05
CGA:  63    -0.236080989807E+03   -0.21274E-04   -0.21277E-04  5408   0.298E-03-0.240E-06
CGA:  64    -0.236081788748E+03   -0.79894E-03   -0.12673E-03  5408  -0.188E-02 0.318E-02
CGA:  65    -0.236080809917E+03    0.97883E-03   -0.23311E-03  5408   0.111E-01-0.454E-02
CGA:  66    -0.236081223043E+03   -0.41313E-03   -0.41324E-03  5408  -0.132E-03-0.464E-06
CGA:  67    -0.236081165056E+03    0.57987E-04   -0.23137E-04  5408   0.261E-03-0.253E-03
CGA:  68    -0.236081174353E+03   -0.92976E-05   -0.93567E-05  5408  -0.386E-04 0.929E-06
CGA:  69    -0.236081162078E+03    0.12276E-04   -0.35595E-04  5408   0.118E-04-0.440E-04
CGA:  70    -0.236081162190E+03   -0.11195E-06   -0.12153E-06  5408  -0.576E-05 0.160E-06
CGA:  71    -0.236081159674E+03    0.25160E-05   -0.75503E-06  5408  -0.158E-04-0.116E-04
CGA:  72    -0.236081155188E+03    0.44857E-05   -0.88253E-04  5408   0.148E-04-0.155E-04
CGA:  73    -0.236081155502E+03   -0.31391E-06   -0.32991E-06  5408  -0.207E-05 0.215E-06
CGA:  74    -0.236081154939E+03    0.56305E-06   -0.84679E-04  5408   0.503E-05-0.140E-05
CGA:  75    -0.236081155161E+03   -0.22176E-06   -0.24302E-06  5408   0.568E-05 0.341E-06
CGA:  76    -0.236081157180E+03   -0.20195E-05    0.13949E-05  5408   0.362E-04 0.999E-05
CGA:  77    -0.236081158539E+03   -0.13588E-05   -0.13697E-05  5408   0.123E-04 0.146E-06
CGA:  78    -0.236081172808E+03   -0.14269E-04   -0.23768E-05  5408   0.217E-03 0.326E-05
CGA:  79    -0.236081189937E+03   -0.17129E-04   -0.14947E-04  5408   0.690E-04 0.310E-04
CGA:  80    -0.236081192559E+03   -0.26222E-05   -0.26446E-05  5408   0.239E-04 0.554E-06
CGA:  81    -0.236081194987E+03   -0.24280E-05   -0.23985E-05  5408   0.594E-04-0.210E-06
CGA:  82    -0.236081201501E+03   -0.65141E-05   -0.63771E-05  5408   0.760E-04-0.925E-06
CGA:  83    -0.236081204355E+03   -0.28540E-05   -0.27320E-05  5408   0.131E-04-0.356E-06
CGA:  84    -0.236081204913E+03   -0.55814E-06   -0.55093E-06  5408   0.604E-05-0.601E-07
CGA:  85    -0.236081205216E+03   -0.30235E-06   -0.30493E-06  5408   0.204E-05-0.407E-07
CGA:  86    -0.236081205284E+03   -0.68174E-07   -0.63116E-07  5408   0.295E-06-0.538E-07
   1 F= -.23608121E+03 E0= -.23608392E+03  d E =0.815201E-02  mag=    -8.1203
