 vasp.5.4.4.18Apr17-6-g9f103f2a35 (build Dec 20 2018 12:05:58) complex          
  
 executed on             LinuxIFC date 2019.06.20  16:57:47
 running on   32 total cores
 distrk:  each k-point on    8 cores,    4 groups
 distr:  one band on NCORES_PER_BAND=   4 cores,    2 groups


--------------------------------------------------------------------------------------------------------


 INCAR:
 POTCAR:    PAW_PBE Al 04Jan2001                  
 POTCAR:    PAW_PBE Mn 06Sep2000                  

 ----------------------------------------------------------------------------- 
|                                                                             |
|           W    W    AA    RRRRR   N    N  II  N    N   GGGG   !!!           |
|           W    W   A  A   R    R  NN   N  II  NN   N  G    G  !!!           |
|           W    W  A    A  R    R  N N  N  II  N N  N  G       !!!           |
|           W WW W  AAAAAA  RRRRR   N  N N  II  N  N N  G  GGG   !            |
|           WW  WW  A    A  R   R   N   NN  II  N   NN  G    G                |
|           W    W  A    A  R    R  N    N  II  N    N   GGGG   !!!           |
|                                                                             |
|      You have enabled k-point parallelism (KPAR>1).                         |
|      This developmental code was originally  written by Paul Kent at ORNL,  |
|      and carefully double checked in Vienna.                                |
|      GW as well as linear response parallelism added by Martijn Marsman     |
|      and Georg Kresse.                                                      |
|      Carefully verify results versus KPAR=1.                                |
|      Report problems to Paul Kent and Vienna.                               |
|                                                                             |
 ----------------------------------------------------------------------------- 

 POTCAR:    PAW_PBE Al 04Jan2001                  
   VRHFIN =Al: s2p1                                                             
   LEXCH  = PE                                                                  
   EATOM  =    53.5387 eV,    3.9350 Ry                                         
                                                                                
   TITEL  = PAW_PBE Al 04Jan2001                                                
   LULTRA =        F    use ultrasoft PP ?                                      
   IUNSCR =        1    unscreen: 0-lin 1-nonlin 2-no                           
   RPACOR =    1.500    partial core radius                                     
   POMASS =   26.981; ZVAL   =    3.000    mass and valenz                      
   RCORE  =    1.900    outmost cutoff radius                                   
   RWIGS  =    2.650; RWIGS  =    1.402    wigner-seitz radius (au A)           
   ENMAX  =  240.300; ENMIN  =  180.225 eV                                      
   ICORE  =        2    local potential                                         
   LCOR   =        T    correct aug charges                                     
   LPAW   =        T    paw PP                                                  
   EAUG   =  291.052                                                            
   DEXC   =    0.000                                                            
   RMAX   =    1.939    core radius for proj-oper                               
   RAUG   =    1.300    factor for augmentation sphere                          
   RDEP   =    1.966    radius for radial grids                                 
   RDEPT  =    1.856    core radius for aug-charge                              
                                                                                
   Atomic configuration                                                         
    6 entries                                                                   
     n  l   j            E        occ.                                          
     1  0  0.50     -1511.1048   2.0000                                         
     2  0  0.50      -108.1629   2.0000                                         
     2  1  1.50       -69.6402   6.0000                                         
     3  0  0.50        -7.7528   2.0000                                         
     3  1  1.50        -2.7121   1.0000                                         
     3  2  2.50        -2.7212   0.0000                                         
   Description                                                                  
     l       E           TYP  RCUT    TYP  RCUT                                 
     0     -7.7528455     23  1.900                                             
     0     -3.3096929     23  1.900                                             
     1     -2.7120682     23  1.900                                             
     1     13.6058260     23  1.900                                             
     2     -2.7211652      7  1.900                                             
  local pseudopotential read in
  partial core-charges read in
  partial kinetic energy density read in
  atomic valenz-charges read in
  non local Contribution for L=           0  read in
    real space projection operators read in
  non local Contribution for L=           0  read in
    real space projection operators read in
  non local Contribution for L=           1  read in
    real space projection operators read in
  non local Contribution for L=           1  read in
    real space projection operators read in
    PAW grid and wavefunctions read in
 
   number of l-projection  operators is LMAX  =           4
   number of lm-projection operators is LMMAX =           8
 
 POTCAR:    PAW_PBE Mn 06Sep2000                  
   VRHFIN =Mn: d6 s1                                                            
   LEXCH  = PE                                                                  
   EATOM  =   416.7541 eV,   30.6306 Ry                                         
                                                                                
   TITEL  = PAW_PBE Mn 06Sep2000                                                
   LULTRA =        F    use ultrasoft PP ?                                      
   IUNSCR =        1    unscreen: 0-lin 1-nonlin 2-no                           
   RPACOR =    2.000    partial core radius                                     
   POMASS =   54.938; ZVAL   =    7.000    mass and valenz                      
   RCORE  =    2.300    outmost cutoff radius                                   
   RWIGS  =    2.500; RWIGS  =    1.323    wigner-seitz radius (au A)           
   ENMAX  =  269.864; ENMIN  =  202.398 eV                                      
   RCLOC  =    1.725    cutoff for local pot                                    
   LCOR   =        T    correct aug charges                                     
   LPAW   =        T    paw PP                                                  
   EAUG   =  500.711                                                            
   DEXC   =    0.000                                                            
   RMAX   =    2.343    core radius for proj-oper                               
   RAUG   =    1.300    factor for augmentation sphere                          
   RDEP   =    2.338    radius for radial grids                                 
   RDEPT  =    1.911    core radius for aug-charge                              
                                                                                
   Atomic configuration                                                         
    9 entries                                                                   
     n  l   j            E        occ.                                          
     1  0  0.50     -6424.8288   2.0000                                         
     2  0  0.50      -739.1154   2.0000                                         
     2  1  1.50      -625.3949   6.0000                                         
     3  0  0.50       -81.6100   2.0000                                         
     3  1  1.50       -50.4667   6.0000                                         
     3  2  2.50        -3.3745   6.0000                                         
     4  0  0.50        -4.1331   1.0000                                         
     4  1  0.50        -4.0817   0.0000                                         
     4  3  2.50        -1.3606   0.0000                                         
   Description                                                                  
     l       E           TYP  RCUT    TYP  RCUT                                 
     2     -3.3744664     23  2.300                                             
     2     -4.7350490     23  2.300                                             
     0     -4.1331408     23  2.300                                             
     0      7.6656614     23  2.300                                             
     1     -2.7211652     23  2.300                                             
     1     20.4087390     23  2.300                                             
  local pseudopotential read in
  partial core-charges read in
  partial kinetic energy density read in
  atomic valenz-charges read in
  non local Contribution for L=           2  read in
    real space projection operators read in
  non local Contribution for L=           2  read in
    real space projection operators read in
  non local Contribution for L=           0  read in
    real space projection operators read in
  non local Contribution for L=           0  read in
    real space projection operators read in
  non local Contribution for L=           1  read in
    real space projection operators read in
  non local Contribution for L=           1  read in
    real space projection operators read in
    PAW grid and wavefunctions read in
 
   number of l-projection  operators is LMAX  =           6
   number of lm-projection operators is LMMAX =          18
 

 ----------------------------------------------------------------------------- 
|                                                                             |
|  ADVICE TO THIS USER RUNNING 'VASP/VAMP'   (HEAR YOUR MASTER'S VOICE ...):  |
|                                                                             |
|      You have a (more or less) 'large supercell' and for larger cells       |
|      it might be more efficient to use real space projection opertators     |
|      So try LREAL= Auto  in the INCAR   file.                               |
|      Mind:          For very  accurate calculation you might also keep the  |
|      reciprocal projection scheme          (i.e. LREAL=.FALSE.)             |
|                                                                             |
 ----------------------------------------------------------------------------- 

  PAW_PBE Al 04Jan2001                  :
 energy of atom  1       EATOM=  -53.5387
 kinetic energy error for atom=    0.0005 (will be added to EATOM!!)
  PAW_PBE Mn 06Sep2000                  :
 energy of atom  2       EATOM= -416.7541
 kinetic energy error for atom=    0.0080 (will be added to EATOM!!)
 
 
 POSCAR: NewRef: 18, @ ['Mn', array([1.37502469, 
  positions in cartesian coordinates
  velocities in cartesian coordinates
  No initial velocities read in
 exchange correlation table for  LEXCH =        8
   RHO(1)=    0.500       N(1)  =     2000
   RHO(2)=  100.500       N(2)  =     4000
 


--------------------------------------------------------------------------------------------------------


 ion  position               nearest neighbor table
   1  0.000  0.000  0.000-  20 2.61  24 2.61  32 2.61  36 2.61  31 2.61  23 2.61  35 2.61  19 2.61
                             3 2.75   7 2.75   5 2.75  13 2.75
   2  0.000  0.000  0.500-  19 2.61  23 2.61  31 2.61  35 2.61  20 2.61  32 2.61  24 2.61  36 2.61
                             4 2.75   8 2.75   6 2.75  14 2.75
   3  0.000  0.333  0.000-  20 2.61  32 2.61  22 2.61  34 2.61  19 2.61  31 2.61  33 2.61  21 2.61
                             9 2.75   1 2.75   5 2.75  15 2.75
   4  0.000  0.333  0.500-  19 2.61  31 2.61  21 2.61  33 2.61  32 2.61  20 2.61  22 2.61  34 2.61
                            10 2.75   2 2.75   6 2.75  16 2.75
   5  0.000  0.667  0.000-  22 2.61  34 2.61  24 2.61  36 2.61  21 2.61  33 2.61  35 2.61  23 2.61
                             3 2.75  11 2.75   1 2.75  17 2.75
   6  0.000  0.667  0.500-  21 2.61  33 2.61  23 2.61  35 2.61  34 2.61  22 2.61  24 2.61  36 2.61
                             4 2.75  12 2.75   2 2.75  18 2.75
   7  0.333  0.000  0.000-  20 2.61  24 2.61  26 2.61  30 2.61  23 2.61  19 2.61  29 2.61  25 2.61
                            13 2.75   1 2.75   9 2.75  11 2.75
   8  0.333  0.000  0.500-  19 2.61  23 2.61  25 2.61  29 2.61  20 2.61  24 2.61  26 2.61  30 2.61
                            14 2.75   2 2.75  10 2.75  12 2.75
   9  0.333  0.333  0.000-  20 2.61  22 2.61  26 2.61  19 2.61  28 2.61  21 2.61  25 2.61  27 2.61
                             3 2.75   7 2.75  11 2.75  15 2.75
  10  0.333  0.333  0.500-  19 2.61  21 2.61  25 2.61  20 2.61  27 2.61  26 2.61  22 2.61  28 2.61
                             4 2.75   8 2.75  12 2.75  16 2.75
  11  0.333  0.667  0.000-  22 2.61  24 2.61  28 2.61  21 2.61  30 2.61  23 2.61  27 2.61  29 2.61
                            17 2.75   5 2.75   9 2.75   7 2.75
  12  0.333  0.667  0.500-  21 2.61  23 2.61  27 2.61  22 2.61  29 2.61  28 2.61  24 2.61  30 2.61
                            18 2.75   6 2.75  10 2.75   8 2.75
  13  0.667  0.000  0.000-  26 2.61  30 2.61  32 2.61  36 2.61  29 2.61  25 2.61  35 2.61  31 2.61
                             7 2.75  15 2.75   1 2.75  17 2.75
  14  0.667  0.000  0.500-  25 2.61  29 2.61  31 2.61  35 2.61  26 2.61  30 2.61  32 2.61  36 2.61
                             8 2.75  16 2.75   2 2.75  18 2.75
  15  0.667  0.333  0.000-  26 2.61  28 2.61  32 2.61  25 2.61  34 2.61  27 2.61  31 2.61  33 2.61
                            17 2.75   9 2.75  13 2.75   3 2.75
  16  0.667  0.333  0.500-  25 2.61  27 2.61  31 2.61  26 2.61  33 2.61  32 2.61  28 2.61  34 2.61
                            18 2.75  10 2.75  14 2.75   4 2.75
  17  0.667  0.667  0.000-  28 2.61  30 2.61  34 2.61  27 2.61  36 2.61  29 2.61  33 2.61  35 2.61
                            11 2.75  15 2.75  13 2.75   5 2.75
  18  0.667  0.667  0.500-  27 2.61  29 2.61  33 2.61  28 2.61  35 2.61  34 2.61  30 2.61  36 2.61
                            12 2.75  16 2.75  14 2.75   6 2.75
  19  0.167  0.167  0.250-  10 2.61   8 2.61   4 2.61   9 2.61   2 2.61   7 2.61   3 2.61   1 2.61
                            21 2.75  25 2.75  23 2.75  31 2.75
  20  0.167  0.167  0.750-   9 2.61   7 2.61   3 2.61  10 2.61   1 2.61   4 2.61   8 2.61   2 2.61
                            22 2.75  26 2.75  24 2.75  32 2.75
  21  0.167  0.500  0.250-  12 2.61  10 2.61   6 2.61  11 2.61   4 2.61   9 2.61   5 2.61   3 2.61
                            19 2.75  23 2.75  27 2.75  33 2.75
  22  0.167  0.500  0.750-  11 2.61   9 2.61   5 2.61  12 2.61   3 2.61   6 2.61  10 2.61   4 2.61
                            20 2.75  24 2.75  28 2.75  34 2.75
  23  0.167  0.833  0.250-   8 2.61  12 2.61   2 2.61   6 2.61  11 2.61   7 2.61   5 2.61   1 2.61
                            21 2.75  29 2.75  19 2.75  35 2.75
  24  0.167  0.833  0.750-   7 2.61  11 2.61   1 2.61   5 2.61   8 2.61  12 2.61   2 2.61   6 2.61
                            22 2.75  30 2.75  20 2.75  36 2.75
  25  0.500  0.167  0.250-  16 2.61  14 2.61  10 2.61  15 2.61   8 2.61  13 2.61   9 2.61   7 2.61
                            19 2.75  27 2.75  31 2.75  29 2.75
  26  0.500  0.167  0.750-  15 2.61  13 2.61   9 2.61  16 2.61   7 2.61  10 2.61  14 2.61   8 2.61
                            20 2.75  28 2.75  32 2.75  30 2.75
  27  0.500  0.500  0.250-  18 2.61  16 2.61  12 2.61  17 2.61  10 2.61  15 2.61  11 2.61   9 2.61
                            21 2.75  25 2.75  29 2.75  33 2.75
  28  0.500  0.500  0.750-  17 2.61  15 2.61  11 2.61  18 2.61   9 2.61  12 2.61  16 2.61  10 2.61
                            22 2.75  26 2.75  30 2.75  34 2.75
  29  0.500  0.833  0.250-  14 2.61  18 2.61   8 2.61  12 2.61  17 2.61  13 2.61  11 2.61   7 2.61
                            23 2.75  27 2.75  35 2.75  25 2.75
  30  0.500  0.833  0.750-  13 2.61  17 2.61   7 2.61  11 2.61  14 2.61  18 2.61   8 2.61  12 2.61
                            24 2.75  28 2.75  36 2.75  26 2.75
  31  0.833  0.167  0.250-   4 2.61  16 2.61  14 2.61   2 2.61  15 2.61   3 2.61  13 2.61   1 2.61
                            25 2.75  33 2.75  19 2.75  35 2.75
  32  0.833  0.167  0.750-   3 2.61  15 2.61  13 2.61   1 2.61   4 2.61  16 2.61   2 2.61  14 2.61
                            26 2.75  34 2.75  20 2.75  36 2.75
  33  0.833  0.500  0.250-   6 2.61  18 2.61  16 2.61   4 2.61  17 2.61   5 2.61  15 2.61   3 2.61
                            27 2.75  31 2.75  35 2.75  21 2.75
  34  0.833  0.500  0.750-   5 2.61  17 2.61  15 2.61   3 2.61   6 2.61  18 2.61   4 2.61  16 2.61
                            28 2.75  32 2.75  36 2.75  22 2.75
  35  0.833  0.833  0.250-   2 2.61   6 2.61  14 2.61  18 2.61  13 2.61   5 2.61  17 2.61   1 2.61
                            29 2.75  33 2.75  31 2.75  23 2.75
  36  0.833  0.833  0.750-   1 2.61   5 2.61  13 2.61  17 2.61   2 2.61  14 2.61   6 2.61  18 2.61
                            30 2.75  34 2.75  32 2.75  24 2.75
 
  LATTYP: Found a simple tetragonal cell.
 ALAT       =     8.2501481662
 C/A-ratio  =     0.8428059861
  
  Lattice vectors:
  
 A1 = (   8.2501481662,   0.0000000000,   0.0000000000)
 A2 = (   0.0000000000,   8.2501481662,   0.0000000000)
 A3 = (   0.0000000000,   0.0000000000,   6.9532742610)


Analysis of symmetry for initial positions (statically):
=====================================================================
 Subroutine PRICEL returns following result:
 
  LATTYP: Found a simple tetragonal cell.
 ALAT       =     2.7500493888
 C/A-ratio  =     1.2642089792
  
  Lattice vectors:
  
 A1 = (   2.7500493888,   0.0000000000,   0.0000000000)
 A2 = (   0.0000000000,   2.7500493888,   0.0000000000)
 A3 = (   0.0000000000,   0.0000000000,   3.4766371305)
 
  18 primitive cells build up your supercell.
 

 Routine SETGRP: Setting up the symmetry group for a 
 simple tetragonal supercell.


 Subroutine GETGRP returns: Found 16 space group operations
 (whereof 16 operations were pure point group operations)
 out of a pool of 16 trial point group operations.


The static configuration has the point symmetry D_4h.


Analysis of symmetry for dynamics (positions and initial velocities):
=====================================================================
 Subroutine PRICEL returns following result:
 
  LATTYP: Found a simple tetragonal cell.
 ALAT       =     2.7500493888
 C/A-ratio  =     1.2642089792
  
  Lattice vectors:
  
 A1 = (   2.7500493888,   0.0000000000,   0.0000000000)
 A2 = (   0.0000000000,   2.7500493888,   0.0000000000)
 A3 = (   0.0000000000,   0.0000000000,   3.4766371305)
 
  18 primitive cells build up your supercell.
 

 Routine SETGRP: Setting up the symmetry group for a 
 simple tetragonal supercell.


 Subroutine GETGRP returns: Found 16 space group operations
 (whereof 16 operations were pure point group operations)
 out of a pool of 16 trial point group operations.


The dynamic configuration has the point symmetry D_4h.


Analysis of structural, dynamic, and magnetic symmetry:
=====================================================================
 Subroutine PRICEL returns:
 Original cell was already a primitive cell.
 

 Routine SETGRP: Setting up the symmetry group for a 
 simple tetragonal supercell.


 Subroutine GETGRP returns: Found  2 space group operations
 (whereof  1 operations were pure point group operations)
 out of a pool of 16 trial point group operations.


The magnetic configuration has the point symmetry C_1 .
 The point group associated with its full space group is C_1h.


 Subroutine INISYM returns: Found  2 space group operations
 (whereof  1 operations are pure point group operations),
 and found     1 'primitive' translations

 
 
 KPOINTS: automatic KPOINTS                       

Automatic generation of k-mesh.
 generate k-points for:    5    5    6
Space group operators:
 irot       det(A)        alpha          n_x          n_y          n_z        tau_x        tau_y        tau_z
    1     1.000000     0.000001     1.000000     0.000000     0.000000     0.000000     0.000000     0.000000
    2    -1.000000   179.999999     0.000000     0.000000     1.000000     0.000000     0.000000     0.500000
 
 Subroutine IBZKPT returns following result:
 ===========================================
 
 Found     52 irreducible k-points:
 
 Following reciprocal coordinates:
            Coordinates               Weight
  0.000000  0.000000  0.000000      1.000000
  0.200000  0.000000  0.000000      2.000000
  0.400000  0.000000  0.000000      2.000000
  0.000000  0.200000  0.000000      2.000000
  0.200000  0.200000  0.000000      2.000000
  0.400000  0.200000  0.000000      2.000000
 -0.400000  0.200000  0.000000      2.000000
 -0.200000  0.200000  0.000000      2.000000
  0.000000  0.400000  0.000000      2.000000
  0.200000  0.400000  0.000000      2.000000
  0.400000  0.400000  0.000000      2.000000
 -0.400000  0.400000  0.000000      2.000000
 -0.200000  0.400000  0.000000      2.000000
  0.000000  0.000000  0.166667      2.000000
  0.200000  0.000000  0.166667      4.000000
  0.400000  0.000000  0.166667      4.000000
  0.000000  0.200000  0.166667      4.000000
  0.200000  0.200000  0.166667      4.000000
  0.400000  0.200000  0.166667      4.000000
 -0.400000  0.200000  0.166667      4.000000
 -0.200000  0.200000  0.166667      4.000000
  0.000000  0.400000  0.166667      4.000000
  0.200000  0.400000  0.166667      4.000000
  0.400000  0.400000  0.166667      4.000000
 -0.400000  0.400000  0.166667      4.000000
 -0.200000  0.400000  0.166667      4.000000
  0.000000  0.000000  0.333333      2.000000
  0.200000  0.000000  0.333333      4.000000
  0.400000  0.000000  0.333333      4.000000
  0.000000  0.200000  0.333333      4.000000
  0.200000  0.200000  0.333333      4.000000
  0.400000  0.200000  0.333333      4.000000
 -0.400000  0.200000  0.333333      4.000000
 -0.200000  0.200000  0.333333      4.000000
  0.000000  0.400000  0.333333      4.000000
  0.200000  0.400000  0.333333      4.000000
  0.400000  0.400000  0.333333      4.000000
 -0.400000  0.400000  0.333333      4.000000
 -0.200000  0.400000  0.333333      4.000000
  0.000000  0.000000  0.500000      1.000000
  0.200000  0.000000  0.500000      2.000000
  0.400000  0.000000  0.500000      2.000000
  0.000000  0.200000  0.500000      2.000000
  0.200000  0.200000  0.500000      2.000000
  0.400000  0.200000  0.500000      2.000000
 -0.400000  0.200000  0.500000      2.000000
 -0.200000  0.200000  0.500000      2.000000
  0.000000  0.400000  0.500000      2.000000
  0.200000  0.400000  0.500000      2.000000
  0.400000  0.400000  0.500000      2.000000
 -0.400000  0.400000  0.500000      2.000000
 -0.200000  0.400000  0.500000      2.000000
 
 Following cartesian coordinates:
            Coordinates               Weight
  0.000000  0.000000  0.000000      1.000000
  0.024242  0.000000  0.000000      2.000000
  0.048484  0.000000  0.000000      2.000000
  0.000000  0.024242  0.000000      2.000000
  0.024242  0.024242  0.000000      2.000000
  0.048484  0.024242  0.000000      2.000000
 -0.048484  0.024242  0.000000      2.000000
 -0.024242  0.024242  0.000000      2.000000
  0.000000  0.048484  0.000000      2.000000
  0.024242  0.048484  0.000000      2.000000
  0.048484  0.048484  0.000000      2.000000
 -0.048484  0.048484  0.000000      2.000000
 -0.024242  0.048484  0.000000      2.000000
  0.000000  0.000000  0.023970      2.000000
  0.024242  0.000000  0.023970      4.000000
  0.048484  0.000000  0.023970      4.000000
  0.000000  0.024242  0.023970      4.000000
  0.024242  0.024242  0.023970      4.000000
  0.048484  0.024242  0.023970      4.000000
 -0.048484  0.024242  0.023970      4.000000
 -0.024242  0.024242  0.023970      4.000000
  0.000000  0.048484  0.023970      4.000000
  0.024242  0.048484  0.023970      4.000000
  0.048484  0.048484  0.023970      4.000000
 -0.048484  0.048484  0.023970      4.000000
 -0.024242  0.048484  0.023970      4.000000
  0.000000  0.000000  0.047939      2.000000
  0.024242  0.000000  0.047939      4.000000
  0.048484  0.000000  0.047939      4.000000
  0.000000  0.024242  0.047939      4.000000
  0.024242  0.024242  0.047939      4.000000
  0.048484  0.024242  0.047939      4.000000
 -0.048484  0.024242  0.047939      4.000000
 -0.024242  0.024242  0.047939      4.000000
  0.000000  0.048484  0.047939      4.000000
  0.024242  0.048484  0.047939      4.000000
  0.048484  0.048484  0.047939      4.000000
 -0.048484  0.048484  0.047939      4.000000
 -0.024242  0.048484  0.047939      4.000000
  0.000000  0.000000  0.071909      1.000000
  0.024242  0.000000  0.071909      2.000000
  0.048484  0.000000  0.071909      2.000000
  0.000000  0.024242  0.071909      2.000000
  0.024242  0.024242  0.071909      2.000000
  0.048484  0.024242  0.071909      2.000000
 -0.048484  0.024242  0.071909      2.000000
 -0.024242  0.024242  0.071909      2.000000
  0.000000  0.048484  0.071909      2.000000
  0.024242  0.048484  0.071909      2.000000
  0.048484  0.048484  0.071909      2.000000
 -0.048484  0.048484  0.071909      2.000000
 -0.024242  0.048484  0.071909      2.000000
 


--------------------------------------------------------------------------------------------------------




 Dimension of arrays:
   k-points           NKPTS =     52   k-points in BZ     NKDIM =     52   number of bands    NBANDS=    104
   number of dos      NEDOS =    301   number of ions     NIONS =     36
   non local maximal  LDIM  =      6   non local SUM 2l+1 LMDIM =     18
   total plane-waves  NPLWV = 139968
   max r-space proj   IRMAX =      1   max aug-charges    IRDMAX=  92271
   dimension x,y,z NGX =    54 NGY =   54 NGZ =   48
   dimension x,y,z NGXF=   108 NGYF=  108 NGZF=   96
   support grid    NGXF=   216 NGYF=  216 NGZF=  192
   ions per type =              18  18
   NGX,Y,Z   is equivalent  to a cutoff of  10.88, 10.88, 11.48 a.u.
   NGXF,Y,Z  is equivalent  to a cutoff of  21.76, 21.76, 22.95 a.u.

 SYSTEM =  AlMn_pv                                 
 POSCAR =  NewRef: 18, @ ['Mn', array([1.37502469, 

 Startparameter for this run:
   NWRITE =      2    write-flag & timer
   PREC   = accura    normal or accurate (medium, high low for compatibility)
   ISTART =      0    job   : 0-new  1-cont  2-samecut
   ICHARG =      2    charge: 1-file 2-atom 10-const
   ISPIN  =      2    spin polarized calculation?
   LNONCOLLINEAR =      F non collinear calculations
   LSORBIT =      F    spin-orbit coupling
   INIWAV =      1    electr: 0-lowe 1-rand  2-diag
   LASPH  =      F    aspherical Exc in radial PAW
   METAGGA=      F    non-selfconsistent MetaGGA calc.

 Electronic Relaxation 1
   ENCUT  =  404.8 eV  29.75 Ry    5.45 a.u.  13.53 13.53 11.41*2*pi/ulx,y,z
   ENINI  =  404.8     initial cutoff
   ENAUG  =  500.7 eV  augmentation charge cutoff
   NELM   =    100;   NELMIN=  4; NELMDL= -8     # of ELM steps 
   EDIFF  = 0.1E-06   stopping-criterion for ELM
   LREAL  =      F    real-space projection
   NLSPLINE    = F    spline interpolate recip. space projectors
   LCOMPAT=      F    compatible to vasp.4.4
   GGA_COMPAT  = T    GGA compatible to vasp.4.4-vasp.4.6
   LMAXPAW     = -100 max onsite density
   LMAXMIX     =    2 max onsite mixed and CHGCAR
   VOSKOWN=      0    Vosko Wilk Nusair interpolation
   ROPT   =    0.00000   0.00000
 Ionic relaxation
   EDIFFG = 0.1E-05   stopping-criterion for IOM
   NSW    =      0    number of steps for IOM
   NBLOCK =      1;   KBLOCK =      1    inner block; outer block 
   IBRION =     -1    ionic relax: 0-MD 1-quasi-New 2-CG
   NFREE  =      0    steps in history (QN), initial steepest desc. (CG)
   ISIF   =      2    stress and relaxation
   IWAVPR =     10    prediction:  0-non 1-charg 2-wave 3-comb
   ISYM   =      2    0-nonsym 1-usesym 2-fastsym
   LCORR  =      T    Harris-Foulkes like correction to forces

   POTIM  = 0.2000    time-step for ionic-motion
   TEIN   =    0.0    initial temperature
   TEBEG  =    0.0;   TEEND  =   0.0 temperature during run
   SMASS  =  -3.00    Nose mass-parameter (am)
   estimated Nose-frequenzy (Omega)   =  0.10E-29 period in steps =****** mass=  -0.156E-26a.u.
   SCALEE = 1.0000    scale energy and forces
   NPACO  =    256;   APACO  = 16.0  distance and # of slots for P.C.
   PSTRESS=    0.0 pullay stress

  Mass of Ions in am
   POMASS =  26.98 54.94
  Ionic Valenz
   ZVAL   =   3.00  7.00
  Atomic Wigner-Seitz radii
   RWIGS  =  -1.00 -1.00
  virtual crystal weights 
   VCA    =   1.00  1.00
   NELECT =     180.0000    total number of electrons
   NUPDOWN=      -1.0000    fix difference up-down

 DOS related values:
   EMIN   =  10.00;   EMAX   =-10.00  energy-range for DOS
   EFERMI =   0.00
   ISMEAR =     1;   SIGMA  =   0.20  broadening in eV -4-tet -1-fermi 0-gaus

 Electronic relaxation 2 (details)
   IALGO  =     58    algorithm
   LDIAG  =      T    sub-space diagonalisation (order eigenvalues)
   LSUBROT=      F    optimize rotation matrix (better conditioning)
   TURBO    =      0    0=normal 1=particle mesh
   IRESTART =      0    0=no restart 2=restart with 2 vectors
   NREBOOT  =      0    no. of reboots
   NMIN     =      0    reboot dimension
   EREF     =   0.00    reference energy to select bands
   IMIX   =      4    mixing-type and parameters
     AMIX     =   0.40;   BMIX     =  1.00
     AMIX_MAG =   1.60;   BMIX_MAG =  1.00
     AMIN     =   0.10
     WC   =   100.;   INIMIX=   1;  MIXPRE=   1;  MAXMIX= -45

 Intra band minimization:
   WEIMIN = 0.0000     energy-eigenvalue tresh-hold
   EBREAK =  0.24E-09  absolut break condition
   DEPER  =   0.30     relativ break condition  

   TIME   =   0.40     timestep for ELM

  volume/ion in A,a.u.               =      13.15        88.72
  Fermi-wavevector in a.u.,A,eV,Ry     =   1.186118  2.241439 19.141722  1.406877
  Thomas-Fermi vector in A             =   2.322298
 
 Write flags
   LWAVE        =      F    write WAVECAR
   LDOWNSAMPLE  =      F    k-point downsampling of WAVECAR
   LCHARG       =      F    write CHGCAR
   LVTOT        =      F    write LOCPOT, total local potential
   LVHAR        =      F    write LOCPOT, Hartree potential only
   LELF         =      F    write electronic localiz. function (ELF)
   LORBIT       =     10    0 simple, 1 ext, 2 COOP (PROOUT), +10 PAW based schemes


 Dipole corrections
   LMONO  =      F    monopole corrections only (constant potential shift)
   LDIPOL =      F    correct potential (dipole corrections)
   IDIPOL =      0    1-x, 2-y, 3-z, 4-all directions 
   EPSILON=  1.0000000 bulk dielectric constant

 Exchange correlation treatment:
   GGA     =    --    GGA type
   LEXCH   =     8    internal setting for exchange type
   VOSKOWN=      0    Vosko Wilk Nusair interpolation
   LHFCALC =     F    Hartree Fock is set to
   LHFONE  =     F    Hartree Fock one center treatment
   AEXX    =    0.0000 exact exchange contribution

 Linear response parameters
   LEPSILON=     F    determine dielectric tensor
   LRPA    =     F    only Hartree local field effects (RPA)
   LNABLA  =     F    use nabla operator in PAW spheres
   LVEL    =     F    velocity operator in full k-point grid
   LINTERFAST=   F  fast interpolation
   KINTER  =     0    interpolate to denser k-point grid
   CSHIFT  =0.1000    complex shift for real part using Kramers Kronig
   OMEGAMAX=  -1.0    maximum frequency
   DEG_THRESHOLD= 0.2000000E-02 threshold for treating states as degnerate
   RTIME   =   -0.100 relaxation time in fs
  (WPLASMAI=    0.000 imaginary part of plasma frequency in eV, 0.658/RTIME)
   DFIELD  = 0.0000000 0.0000000 0.0000000 field for delta impulse in time
 
 Orbital magnetization related:
   ORBITALMAG=     F  switch on orbital magnetization
   LCHIMAG   =     F  perturbation theory with respect to B field
   DQ        =  0.001000  dq finite difference perturbation B field
   LLRAUG    =     F  two centre corrections for induced B field



--------------------------------------------------------------------------------------------------------


 Static calculation
 charge density and potential will be updated during run
 spin polarized calculation
 Conjugate gradient for all bands (Freysoldt, et al. PRB 79, 241103 (2009))
 preconditioned conjugated gradient                                        
 perform sub-space diagonalisation
    before iterative eigenvector-optimisation
 modified Broyden-mixing scheme, WC =      100.0
 initial mixing is a Kerker type mixing with AMIX =  0.4000 and BMIX =      1.0000
 Hartree-type preconditioning will be used
 using additional bands           14
 reciprocal scheme for non local part
 use partial core corrections
 no Harris-corrections to forces 
 use gradient corrections 
 use of overlap-Matrix (Vanderbilt PP)
 Methfessel and Paxton  Order N= 1 SIGMA  =   0.20


--------------------------------------------------------------------------------------------------------


  energy-cutoff  :      404.80
  volume of cell :      473.27
      direct lattice vectors                 reciprocal lattice vectors
     8.250148166  0.000000000  0.000000000     0.121209944  0.000000000  0.000000000
     0.000000000  8.250148166  0.000000000     0.000000000  0.121209944  0.000000000
     0.000000000  0.000000000  6.953274261     0.000000000  0.000000000  0.143817137

  length of vectors
     8.250148166  8.250148166  6.953274261     0.121209944  0.121209944  0.143817137


 
 k-points in units of 2pi/SCALE and weight: automatic KPOINTS                       
   0.00000000  0.00000000  0.00000000       0.007
   0.02424199  0.00000000  0.00000000       0.013
   0.04848398  0.00000000  0.00000000       0.013
   0.00000000  0.02424199  0.00000000       0.013
   0.02424199  0.02424199  0.00000000       0.013
   0.04848398  0.02424199  0.00000000       0.013
  -0.04848398  0.02424199  0.00000000       0.013
  -0.02424199  0.02424199  0.00000000       0.013
   0.00000000  0.04848398  0.00000000       0.013
   0.02424199  0.04848398  0.00000000       0.013
   0.04848398  0.04848398  0.00000000       0.013
  -0.04848398  0.04848398  0.00000000       0.013
  -0.02424199  0.04848398  0.00000000       0.013
   0.00000000  0.00000000  0.02396952       0.013
   0.02424199  0.00000000  0.02396952       0.027
   0.04848398  0.00000000  0.02396952       0.027
   0.00000000  0.02424199  0.02396952       0.027
   0.02424199  0.02424199  0.02396952       0.027
   0.04848398  0.02424199  0.02396952       0.027
  -0.04848398  0.02424199  0.02396952       0.027
  -0.02424199  0.02424199  0.02396952       0.027
   0.00000000  0.04848398  0.02396952       0.027
   0.02424199  0.04848398  0.02396952       0.027
   0.04848398  0.04848398  0.02396952       0.027
  -0.04848398  0.04848398  0.02396952       0.027
  -0.02424199  0.04848398  0.02396952       0.027
   0.00000000  0.00000000  0.04793905       0.013
   0.02424199  0.00000000  0.04793905       0.027
   0.04848398  0.00000000  0.04793905       0.027
   0.00000000  0.02424199  0.04793905       0.027
   0.02424199  0.02424199  0.04793905       0.027
   0.04848398  0.02424199  0.04793905       0.027
  -0.04848398  0.02424199  0.04793905       0.027
  -0.02424199  0.02424199  0.04793905       0.027
   0.00000000  0.04848398  0.04793905       0.027
   0.02424199  0.04848398  0.04793905       0.027
   0.04848398  0.04848398  0.04793905       0.027
  -0.04848398  0.04848398  0.04793905       0.027
  -0.02424199  0.04848398  0.04793905       0.027
   0.00000000  0.00000000  0.07190857       0.007
   0.02424199  0.00000000  0.07190857       0.013
   0.04848398  0.00000000  0.07190857       0.013
   0.00000000  0.02424199  0.07190857       0.013
   0.02424199  0.02424199  0.07190857       0.013
   0.04848398  0.02424199  0.07190857       0.013
  -0.04848398  0.02424199  0.07190857       0.013
  -0.02424199  0.02424199  0.07190857       0.013
   0.00000000  0.04848398  0.07190857       0.013
   0.02424199  0.04848398  0.07190857       0.013
   0.04848398  0.04848398  0.07190857       0.013
  -0.04848398  0.04848398  0.07190857       0.013
  -0.02424199  0.04848398  0.07190857       0.013
 
 k-points in reciprocal lattice and weights: automatic KPOINTS                       
   0.00000000  0.00000000  0.00000000       0.007
   0.20000000  0.00000000  0.00000000       0.013
   0.40000000  0.00000000  0.00000000       0.013
   0.00000000  0.20000000  0.00000000       0.013
   0.20000000  0.20000000  0.00000000       0.013
   0.40000000  0.20000000  0.00000000       0.013
  -0.40000000  0.20000000  0.00000000       0.013
  -0.20000000  0.20000000  0.00000000       0.013
   0.00000000  0.40000000  0.00000000       0.013
   0.20000000  0.40000000  0.00000000       0.013
   0.40000000  0.40000000  0.00000000       0.013
  -0.40000000  0.40000000  0.00000000       0.013
  -0.20000000  0.40000000  0.00000000       0.013
   0.00000000  0.00000000  0.16666667       0.013
   0.20000000  0.00000000  0.16666667       0.027
   0.40000000  0.00000000  0.16666667       0.027
   0.00000000  0.20000000  0.16666667       0.027
   0.20000000  0.20000000  0.16666667       0.027
   0.40000000  0.20000000  0.16666667       0.027
  -0.40000000  0.20000000  0.16666667       0.027
  -0.20000000  0.20000000  0.16666667       0.027
   0.00000000  0.40000000  0.16666667       0.027
   0.20000000  0.40000000  0.16666667       0.027
   0.40000000  0.40000000  0.16666667       0.027
  -0.40000000  0.40000000  0.16666667       0.027
  -0.20000000  0.40000000  0.16666667       0.027
   0.00000000  0.00000000  0.33333333       0.013
   0.20000000  0.00000000  0.33333333       0.027
   0.40000000  0.00000000  0.33333333       0.027
   0.00000000  0.20000000  0.33333333       0.027
   0.20000000  0.20000000  0.33333333       0.027
   0.40000000  0.20000000  0.33333333       0.027
  -0.40000000  0.20000000  0.33333333       0.027
  -0.20000000  0.20000000  0.33333333       0.027
   0.00000000  0.40000000  0.33333333       0.027
   0.20000000  0.40000000  0.33333333       0.027
   0.40000000  0.40000000  0.33333333       0.027
  -0.40000000  0.40000000  0.33333333       0.027
  -0.20000000  0.40000000  0.33333333       0.027
   0.00000000  0.00000000  0.50000000       0.007
   0.20000000  0.00000000  0.50000000       0.013
   0.40000000  0.00000000  0.50000000       0.013
   0.00000000  0.20000000  0.50000000       0.013
   0.20000000  0.20000000  0.50000000       0.013
   0.40000000  0.20000000  0.50000000       0.013
  -0.40000000  0.20000000  0.50000000       0.013
  -0.20000000  0.20000000  0.50000000       0.013
   0.00000000  0.40000000  0.50000000       0.013
   0.20000000  0.40000000  0.50000000       0.013
   0.40000000  0.40000000  0.50000000       0.013
  -0.40000000  0.40000000  0.50000000       0.013
  -0.20000000  0.40000000  0.50000000       0.013
 
 position of ions in fractional coordinates (direct lattice) 
   0.00000000  0.00000000  0.00000000
   0.00000000  0.00000000  0.50000000
   0.00000000  0.33333333  0.00000000
   0.00000000  0.33333333  0.50000000
   0.00000000  0.66666667  0.00000000
   0.00000000  0.66666667  0.50000000
   0.33333333  0.00000000  0.00000000
   0.33333333  0.00000000  0.50000000
   0.33333333  0.33333333  0.00000000
   0.33333333  0.33333333  0.50000000
   0.33333333  0.66666667  0.00000000
   0.33333333  0.66666667  0.50000000
   0.66666667  0.00000000  0.00000000
   0.66666667  0.00000000  0.50000000
   0.66666667  0.33333333  0.00000000
   0.66666667  0.33333333  0.50000000
   0.66666667  0.66666667  0.00000000
   0.66666667  0.66666667  0.50000000
   0.16666667  0.16666667  0.25000000
   0.16666667  0.16666667  0.75000000
   0.16666667  0.50000000  0.25000000
   0.16666667  0.50000000  0.75000000
   0.16666667  0.83333333  0.25000000
   0.16666667  0.83333333  0.75000000
   0.50000000  0.16666667  0.25000000
   0.50000000  0.16666667  0.75000000
   0.50000000  0.50000000  0.25000000
   0.50000000  0.50000000  0.75000000
   0.50000000  0.83333333  0.25000000
   0.50000000  0.83333333  0.75000000
   0.83333333  0.16666667  0.25000000
   0.83333333  0.16666667  0.75000000
   0.83333333  0.50000000  0.25000000
   0.83333333  0.50000000  0.75000000
   0.83333333  0.83333333  0.25000000
   0.83333333  0.83333333  0.75000000
 
 position of ions in cartesian coordinates  (Angst):
   0.00000000  0.00000000  0.00000000
   0.00000000  0.00000000  3.47663713
   0.00000000  2.75004939  0.00000000
   0.00000000  2.75004939  3.47663713
   0.00000000  5.50009878  0.00000000
   0.00000000  5.50009878  3.47663713
   2.75004939  0.00000000  0.00000000
   2.75004939  0.00000000  3.47663713
   2.75004939  2.75004939  0.00000000
   2.75004939  2.75004939  3.47663713
   2.75004939  5.50009878  0.00000000
   2.75004939  5.50009878  3.47663713
   5.50009878  0.00000000  0.00000000
   5.50009878  0.00000000  3.47663713
   5.50009878  2.75004939  0.00000000
   5.50009878  2.75004939  3.47663713
   5.50009878  5.50009878  0.00000000
   5.50009878  5.50009878  3.47663713
   1.37502469  1.37502469  1.73831857
   1.37502469  1.37502469  5.21495570
   1.37502469  4.12507408  1.73831857
   1.37502469  4.12507408  5.21495570
   1.37502469  6.87512347  1.73831857
   1.37502469  6.87512347  5.21495570
   4.12507408  1.37502469  1.73831857
   4.12507408  1.37502469  5.21495570
   4.12507408  4.12507408  1.73831857
   4.12507408  4.12507408  5.21495570
   4.12507408  6.87512347  1.73831857
   4.12507408  6.87512347  5.21495570
   6.87512347  1.37502469  1.73831857
   6.87512347  1.37502469  5.21495570
   6.87512347  4.12507408  1.73831857
   6.87512347  4.12507408  5.21495570
   6.87512347  6.87512347  1.73831857
   6.87512347  6.87512347  5.21495570
 


--------------------------------------------------------------------------------------------------------


 k-point  1 :   0.0000 0.0000 0.0000  plane waves:    8799
 k-point  2 :   0.2000 0.0000 0.0000  plane waves:    8753
 k-point  3 :   0.4000 0.0000 0.0000  plane waves:    8757
 k-point  4 :   0.0000 0.2000 0.0000  plane waves:    8753
 k-point  5 :   0.2000 0.2000 0.0000  plane waves:    8767
 k-point  6 :   0.4000 0.2000 0.0000  plane waves:    8761
 k-point  7 :  -0.4000 0.2000 0.0000  plane waves:    8761
 k-point  8 :  -0.2000 0.2000 0.0000  plane waves:    8767
 k-point  9 :   0.0000 0.4000 0.0000  plane waves:    8757
 k-point 10 :   0.2000 0.4000 0.0000  plane waves:    8761
 k-point 11 :   0.4000 0.4000 0.0000  plane waves:    8731
 k-point 12 :  -0.4000 0.4000 0.0000  plane waves:    8731
 k-point 13 :  -0.2000 0.4000 0.0000  plane waves:    8761
 k-point 14 :   0.0000 0.0000 0.1667  plane waves:    8763
 k-point 15 :   0.2000 0.0000 0.1667  plane waves:    8771
 k-point 16 :   0.4000 0.0000 0.1667  plane waves:    8747
 k-point 17 :   0.0000 0.2000 0.1667  plane waves:    8771
 k-point 18 :   0.2000 0.2000 0.1667  plane waves:    8764
 k-point 19 :   0.4000 0.2000 0.1667  plane waves:    8768
 k-point 20 :  -0.4000 0.2000 0.1667  plane waves:    8768
 k-point 21 :  -0.2000 0.2000 0.1667  plane waves:    8764
 k-point 22 :   0.0000 0.4000 0.1667  plane waves:    8747
 k-point 23 :   0.2000 0.4000 0.1667  plane waves:    8768
 k-point 24 :   0.4000 0.4000 0.1667  plane waves:    8740
 k-point 25 :  -0.4000 0.4000 0.1667  plane waves:    8740
 k-point 26 :  -0.2000 0.4000 0.1667  plane waves:    8768
 k-point 27 :   0.0000 0.0000 0.3333  plane waves:    8743
 k-point 28 :   0.2000 0.0000 0.3333  plane waves:    8736
 k-point 29 :   0.4000 0.0000 0.3333  plane waves:    8753
 k-point 30 :   0.0000 0.2000 0.3333  plane waves:    8736
 k-point 31 :   0.2000 0.2000 0.3333  plane waves:    8753
 k-point 32 :   0.4000 0.2000 0.3333  plane waves:    8743
 k-point 33 :  -0.4000 0.2000 0.3333  plane waves:    8743
 k-point 34 :  -0.2000 0.2000 0.3333  plane waves:    8753
 k-point 35 :   0.0000 0.4000 0.3333  plane waves:    8753
 k-point 36 :   0.2000 0.4000 0.3333  plane waves:    8743
 k-point 37 :   0.4000 0.4000 0.3333  plane waves:    8755
 k-point 38 :  -0.4000 0.4000 0.3333  plane waves:    8755
 k-point 39 :  -0.2000 0.4000 0.3333  plane waves:    8743
 k-point 40 :   0.0000 0.0000 0.5000  plane waves:    8742
 k-point 41 :   0.2000 0.0000 0.5000  plane waves:    8756
 k-point 42 :   0.4000 0.0000 0.5000  plane waves:    8744
 k-point 43 :   0.0000 0.2000 0.5000  plane waves:    8756
 k-point 44 :   0.2000 0.2000 0.5000  plane waves:    8762
 k-point 45 :   0.4000 0.2000 0.5000  plane waves:    8732
 k-point 46 :  -0.4000 0.2000 0.5000  plane waves:    8732
 k-point 47 :  -0.2000 0.2000 0.5000  plane waves:    8762
 k-point 48 :   0.0000 0.4000 0.5000  plane waves:    8744
 k-point 49 :   0.2000 0.4000 0.5000  plane waves:    8732
 k-point 50 :   0.4000 0.4000 0.5000  plane waves:    8736
 k-point 51 :  -0.4000 0.4000 0.5000  plane waves:    8736
 k-point 52 :  -0.2000 0.4000 0.5000  plane waves:    8732

 maximum and minimum number of plane-waves per node :      2210     2164

 maximum number of plane-waves:      8799
 maximum index in each direction: 
   IXMAX=   13   IYMAX=   13   IZMAX=   11
   IXMIN=  -13   IYMIN=  -13   IZMIN=  -11


 parallel 3D FFT for wavefunctions:
    minimum data exchange during FFTs selected (reduces bandwidth)
 parallel 3D FFT for charge:
    minimum data exchange during FFTs selected (reduces bandwidth)


 total amount of memory used by VASP MPI-rank0   705355. kBytes
=======================================================================

   base      :      30000. kBytes
   nonl-proj :      34307. kBytes
   fftplans  :      21726. kBytes
   grid      :      14732. kBytes
   one-center:        279. kBytes
   wavefun   :     604311. kBytes
 
     INWAV:  cpu time    0.0001: real time    0.0000
 Broyden mixing: mesh for mixing (old mesh)
   NGX = 27   NGY = 27   NGZ = 23
  (NGX  =108   NGY  =108   NGZ  = 96)
  gives a total of  16767 points

 initial charge density was supplied:
 charge density of overlapping atoms calculated
 number of electron     180.0000000 magnetization     -12.0000000
 keeping initial charge density in first step


--------------------------------------------------------------------------------------------------------


 Maximum index for augmentation-charges        11261 (set IRDMAX)


--------------------------------------------------------------------------------------------------------


 First call to EWALD:  gamma=   0.227
 Maximum number of real-space cells 3x 3x 3
 Maximum number of reciprocal cells 3x 3x 3

    FEWALD:  cpu time    0.0085: real time    0.0085


--------------------------------------- Iteration      1(   1)  ---------------------------------------


    POTLOK:  cpu time    0.2528: real time    0.2528
    SETDIJ:  cpu time    0.3347: real time    0.3347
    TRIAL :  cpu time   17.1922: real time   17.2577
    CORREC:  cpu time    0.0059: real time    0.0061
    --------------------------------------------
      LOOP:  cpu time   17.9890: real time   18.0618

 eigenvalue-minimisations  : 21632
 total energy-change (2. order) : 0.1369803E+04  (-0.5769444E+04)
 number of electron     180.0000000 magnetization     -12.0000000
 augmentation part      180.0000000 magnetization     -12.0000000

 Free energy of the ion-electron system (eV)
  ---------------------------------------------------
  alpha Z        PSCENC =       532.25742704
  Ewald energy   TEWEN  =     -8601.05107233
  -Hartree energ DENC   =     -1903.73857242
  -exchange      EXHF   =         0.00000000
  -V(xc)+E(xc)   XCENC  =      -664.69811573
  PAW double counting   =      8494.55058411    -7650.81563588
  entropy T*S    EENTRO =         0.00218095
  eigenvalues    EBANDS =      2698.18022064
  atomic energy  EATOM  =      8465.11600846
  ---------------------------------------------------
  free energy    TOTEN  =      1369.80302485 eV

  energy without entropy =     1369.80084390  energy(sigma->0) =     1369.80229786


--------------------------------------------------------------------------------------------------------




--------------------------------------- Iteration      1(   2)  ---------------------------------------


    TRIAL :  cpu time   17.8466: real time   17.9895
    CORREC:  cpu time    0.0076: real time    0.0077
    --------------------------------------------
      LOOP:  cpu time   17.8552: real time   18.0008

 eigenvalue-minimisations  : 21632
 total energy-change (2. order) :-0.1405617E+04  (-0.1385885E+04)
 number of electron     180.0000000 magnetization     -12.0000000
 augmentation part      180.0000000 magnetization     -12.0000000

 Free energy of the ion-electron system (eV)
  ---------------------------------------------------
  alpha Z        PSCENC =       532.25742704
  Ewald energy   TEWEN  =     -8601.05107233
  -Hartree energ DENC   =     -1903.73857242
  -exchange      EXHF   =         0.00000000
  -V(xc)+E(xc)   XCENC  =      -664.69811573
  PAW double counting   =      8494.55058411    -7650.81563588
  entropy T*S    EENTRO =         0.00219992
  eigenvalues    EBANDS =      1292.56316233
  atomic energy  EATOM  =      8465.11600846
  ---------------------------------------------------
  free energy    TOTEN  =       -35.81401450 eV

  energy without entropy =      -35.81621442  energy(sigma->0) =      -35.81474780


--------------------------------------------------------------------------------------------------------




--------------------------------------- Iteration      1(   3)  ---------------------------------------


    TRIAL :  cpu time   24.9203: real time   25.8148
    CORREC:  cpu time    0.0087: real time    0.0096
    --------------------------------------------
      LOOP:  cpu time   24.9303: real time   25.8278

 eigenvalue-minimisations  : 33624
 total energy-change (2. order) :-0.1965786E+03  (-0.1828260E+03)
 number of electron     180.0000000 magnetization     -12.0000000
 augmentation part      180.0000000 magnetization     -12.0000000

 Free energy of the ion-electron system (eV)
  ---------------------------------------------------
  alpha Z        PSCENC =       532.25742704
  Ewald energy   TEWEN  =     -8601.05107233
  -Hartree energ DENC   =     -1903.73857242
  -exchange      EXHF   =         0.00000000
  -V(xc)+E(xc)   XCENC  =      -664.69811573
  PAW double counting   =      8494.55058411    -7650.81563588
  entropy T*S    EENTRO =        -0.00249980
  eigenvalues    EBANDS =      1095.98922890
  atomic energy  EATOM  =      8465.11600846
  ---------------------------------------------------
  free energy    TOTEN  =      -232.39264764 eV

  energy without entropy =     -232.39014784  energy(sigma->0) =     -232.39181437


--------------------------------------------------------------------------------------------------------




--------------------------------------- Iteration      1(   4)  ---------------------------------------


    TRIAL :  cpu time   25.7070: real time   25.9016
    CORREC:  cpu time    0.0095: real time    0.0104
    --------------------------------------------
      LOOP:  cpu time   25.7177: real time   25.9149

 eigenvalue-minimisations  : 35688
 total energy-change (2. order) :-0.3259968E+02  (-0.2995666E+02)
 number of electron     180.0000000 magnetization     -12.0000000
 augmentation part      180.0000000 magnetization     -12.0000000

 Free energy of the ion-electron system (eV)
  ---------------------------------------------------
  alpha Z        PSCENC =       532.25742704
  Ewald energy   TEWEN  =     -8601.05107233
  -Hartree energ DENC   =     -1903.73857242
  -exchange      EXHF   =         0.00000000
  -V(xc)+E(xc)   XCENC  =      -664.69811573
  PAW double counting   =      8494.55058411    -7650.81563588
  entropy T*S    EENTRO =         0.01527558
  eigenvalues    EBANDS =      1063.37176973
  atomic energy  EATOM  =      8465.11600846
  ---------------------------------------------------
  free energy    TOTEN  =      -264.99233143 eV

  energy without entropy =     -265.00760701  energy(sigma->0) =     -264.99742329


--------------------------------------------------------------------------------------------------------




--------------------------------------- Iteration      1(   5)  ---------------------------------------


    TRIAL :  cpu time   26.4752: real time   26.6090
    CORREC:  cpu time    0.0093: real time    0.0094
    --------------------------------------------
      LOOP:  cpu time   26.4853: real time   26.6216

 eigenvalue-minimisations  : 36832
 total energy-change (2. order) :-0.4334414E+01  (-0.4124167E+01)
 number of electron     180.0000000 magnetization     -12.0000000
 augmentation part      180.0000000 magnetization     -12.0000000

 Free energy of the ion-electron system (eV)
  ---------------------------------------------------
  alpha Z        PSCENC =       532.25742704
  Ewald energy   TEWEN  =     -8601.05107233
  -Hartree energ DENC   =     -1903.73857242
  -exchange      EXHF   =         0.00000000
  -V(xc)+E(xc)   XCENC  =      -664.69811573
  PAW double counting   =      8494.55058411    -7650.81563588
  entropy T*S    EENTRO =         0.02528204
  eigenvalues    EBANDS =      1059.02734920
  atomic energy  EATOM  =      8465.11600846
  ---------------------------------------------------
  free energy    TOTEN  =      -269.32674551 eV

  energy without entropy =     -269.35202755  energy(sigma->0) =     -269.33517285


--------------------------------------------------------------------------------------------------------




--------------------------------------- Iteration      1(   6)  ---------------------------------------


    TRIAL :  cpu time   26.8180: real time   27.0664
    CORREC:  cpu time    0.0098: real time    0.0100
    --------------------------------------------
      LOOP:  cpu time   26.8301: real time   27.0806

 eigenvalue-minimisations  : 36520
 total energy-change (2. order) :-0.5495944E+00  (-0.5275089E+00)
 number of electron     180.0000000 magnetization     -12.0000000
 augmentation part      180.0000000 magnetization     -12.0000000

 Free energy of the ion-electron system (eV)
  ---------------------------------------------------
  alpha Z        PSCENC =       532.25742704
  Ewald energy   TEWEN  =     -8601.05107233
  -Hartree energ DENC   =     -1903.73857242
  -exchange      EXHF   =         0.00000000
  -V(xc)+E(xc)   XCENC  =      -664.69811573
  PAW double counting   =      8494.55058411    -7650.81563588
  entropy T*S    EENTRO =         0.02900044
  eigenvalues    EBANDS =      1058.47403641
  atomic energy  EATOM  =      8465.11600846
  ---------------------------------------------------
  free energy    TOTEN  =      -269.87633989 eV

  energy without entropy =     -269.90534033  energy(sigma->0) =     -269.88600671


--------------------------------------------------------------------------------------------------------




--------------------------------------- Iteration      1(   7)  ---------------------------------------


    TRIAL :  cpu time   26.8383: real time   26.9604
    CORREC:  cpu time    0.0098: real time    0.0107
    --------------------------------------------
      LOOP:  cpu time   26.8786: real time   27.0019

 eigenvalue-minimisations  : 37432
 total energy-change (2. order) :-0.9818517E-01  (-0.9473664E-01)
 number of electron     180.0000000 magnetization     -12.0000000
 augmentation part      180.0000000 magnetization     -12.0000000

 Free energy of the ion-electron system (eV)
  ---------------------------------------------------
  alpha Z        PSCENC =       532.25742704
  Ewald energy   TEWEN  =     -8601.05107233
  -Hartree energ DENC   =     -1903.73857242
  -exchange      EXHF   =         0.00000000
  -V(xc)+E(xc)   XCENC  =      -664.69811573
  PAW double counting   =      8494.55058411    -7650.81563588
  entropy T*S    EENTRO =         0.03087911
  eigenvalues    EBANDS =      1058.37397257
  atomic energy  EATOM  =      8465.11600846
  ---------------------------------------------------
  free energy    TOTEN  =      -269.97452506 eV

  energy without entropy =     -270.00540417  energy(sigma->0) =     -269.98481810


--------------------------------------------------------------------------------------------------------




--------------------------------------- Iteration      1(   8)  ---------------------------------------


    TRIAL :  cpu time   26.3070: real time   26.5063
    CORREC:  cpu time    0.0098: real time    0.0106
    CHARGE:  cpu time    1.0354: real time    1.0355
    --------------------------------------------
      LOOP:  cpu time   27.3537: real time   27.5561

 eigenvalue-minimisations  : 35712
 total energy-change (2. order) :-0.2124378E-01  (-0.2056745E-01)
 number of electron     179.9999997 magnetization      -8.3914100
 augmentation part       42.4904327 magnetization      -4.9177184

 Free energy of the ion-electron system (eV)
  ---------------------------------------------------
  alpha Z        PSCENC =       532.25742704
  Ewald energy   TEWEN  =     -8601.05107233
  -Hartree energ DENC   =     -1903.73857242
  -exchange      EXHF   =         0.00000000
  -V(xc)+E(xc)   XCENC  =      -664.69811573
  PAW double counting   =      8494.55058411    -7650.81563588
  entropy T*S    EENTRO =         0.03206255
  eigenvalues    EBANDS =      1058.35154535
  atomic energy  EATOM  =      8465.11600846
  ---------------------------------------------------
  free energy    TOTEN  =      -269.99576884 eV

  energy without entropy =     -270.02783139  energy(sigma->0) =     -270.00645636


--------------------------------------------------------------------------------------------------------




--------------------------------------- Iteration      1(   9)  ---------------------------------------


    POTLOK:  cpu time    0.2529: real time    0.2528
    SETDIJ:  cpu time    0.3472: real time    0.3472
    TRIAL :  cpu time    8.4628: real time    8.5980
    CORREC:  cpu time    3.1707: real time    3.1724
    CHARGE:  cpu time    1.0534: real time    1.0537
    --------------------------------------------
      LOOP:  cpu time   13.2907: real time   13.4287

 eigenvalue-minimisations  :     0
 total energy-change (2. order) : 0.2086372E+03  (-0.1491200E+03)
 number of electron     179.9999996 magnetization      -8.5069677
 augmentation part       54.5990735 magnetization      -5.5976280

 Free energy of the ion-electron system (eV)
  ---------------------------------------------------
  alpha Z        PSCENC =       532.25742704
  Ewald energy   TEWEN  =     -8601.05107233
  -Hartree energ DENC   =      -836.62099232
  -exchange      EXHF   =         0.00000000
  -V(xc)+E(xc)   XCENC  =      -694.56176768
  PAW double counting   =     12748.19554892   -11801.00137996
  entropy T*S    EENTRO =         0.00644267
  eigenvalues    EBANDS =       126.27563794
  atomic energy  EATOM  =      8465.11600846
  ---------------------------------------------------
  free energy    TOTEN  =       -61.35852738 eV

  energy without entropy =      -61.36497005  energy(sigma->0) =      -61.36067494


--------------------------------------------------------------------------------------------------------




--------------------------------------- Iteration      1(  10)  ---------------------------------------


    POTLOK:  cpu time    0.2492: real time    0.2492
    SETDIJ:  cpu time    1.2103: real time    1.2195
    TRIAL :  cpu time    8.3964: real time    8.4259
    CORREC:  cpu time    3.9268: real time    3.9500
    CHARGE:  cpu time    1.0236: real time    1.0237
    --------------------------------------------
      LOOP:  cpu time   14.8114: real time   14.8745

 eigenvalue-minimisations  :     0
 total energy-change (2. order) :-0.1471037E+03  (-0.9321981E+01)
 number of electron     179.9999996 magnetization      -8.5448689
 augmentation part       57.9729030 magnetization      -5.8495239

 Free energy of the ion-electron system (eV)
  ---------------------------------------------------
  alpha Z        PSCENC =       532.25742704
  Ewald energy   TEWEN  =     -8601.05107233
  -Hartree energ DENC   =     -1381.35112732
  -exchange      EXHF   =         0.00000000
  -V(xc)+E(xc)   XCENC  =      -676.05847209
  PAW double counting   =     13703.08847508   -12875.12124571
  entropy T*S    EENTRO =        -0.00405909
  eigenvalues    EBANDS =       624.65129259
  atomic energy  EATOM  =      8465.11600846
  ---------------------------------------------------
  free energy    TOTEN  =      -208.46227162 eV

  energy without entropy =     -208.45821252  energy(sigma->0) =     -208.46091859


--------------------------------------------------------------------------------------------------------




--------------------------------------- Iteration      1(  11)  ---------------------------------------


    POTLOK:  cpu time    0.2499: real time    0.2499
    SETDIJ:  cpu time    0.3373: real time    0.3372
    TRIAL :  cpu time    8.4782: real time    8.4837
    CORREC:  cpu time    3.1826: real time    3.2524
    CHARGE:  cpu time    1.0557: real time    1.0847
    --------------------------------------------
      LOOP:  cpu time   13.3102: real time   13.4168

 eigenvalue-minimisations  :     0
 total energy-change (2. order) :-0.9348158E+01  (-0.1034905E+02)
 number of electron     179.9999996 magnetization      -8.5271799
 augmentation part       59.1462339 magnetization      -5.9765268

 Free energy of the ion-electron system (eV)
  ---------------------------------------------------
  alpha Z        PSCENC =       532.25742704
  Ewald energy   TEWEN  =     -8601.05107233
  -Hartree energ DENC   =     -1577.04540088
  -exchange      EXHF   =         0.00000000
  -V(xc)+E(xc)   XCENC  =      -669.14450259
  PAW double counting   =     14507.70966199   -13714.01692198
  entropy T*S    EENTRO =        -0.00896905
  eigenvalues    EBANDS =       838.36842946
  atomic energy  EATOM  =      8465.11600846
  ---------------------------------------------------
  free energy    TOTEN  =      -217.81042994 eV

  energy without entropy =     -217.80146089  energy(sigma->0) =     -217.80744026


--------------------------------------------------------------------------------------------------------




--------------------------------------- Iteration      1(  12)  ---------------------------------------


    POTLOK:  cpu time    0.8451: real time    0.8521
    SETDIJ:  cpu time    0.3327: real time    0.3332
    TRIAL :  cpu time    8.5083: real time    8.5342
    CORREC:  cpu time    3.2129: real time    3.2238
    CHARGE:  cpu time    1.0468: real time    1.0475
    --------------------------------------------
      LOOP:  cpu time   14.2188: real time   14.2649

 eigenvalue-minimisations  :     0
 total energy-change (2. order) :-0.1035010E+02  (-0.4768015E+01)
 number of electron     179.9999996 magnetization      -8.3938356
 augmentation part       58.1036642 magnetization      -5.8942118

 Free energy of the ion-electron system (eV)
  ---------------------------------------------------
  alpha Z        PSCENC =       532.25742704
  Ewald energy   TEWEN  =     -8601.05107233
  -Hartree energ DENC   =     -1714.79164586
  -exchange      EXHF   =         0.00000000
  -V(xc)+E(xc)   XCENC  =      -664.84993722
  PAW double counting   =     14453.02672985   -13654.27794976
  entropy T*S    EENTRO =        -0.01371901
  eigenvalues    EBANDS =       956.41887400
  atomic energy  EATOM  =      8465.11600846
  ---------------------------------------------------
  free energy    TOTEN  =      -228.16053488 eV

  energy without entropy =     -228.14681587  energy(sigma->0) =     -228.15596188


--------------------------------------------------------------------------------------------------------




--------------------------------------- Iteration      1(  13)  ---------------------------------------


    POTLOK:  cpu time    0.2488: real time    0.2488
    SETDIJ:  cpu time    0.3213: real time    0.3213
    TRIAL :  cpu time    8.4859: real time    8.5095
    CORREC:  cpu time    3.1622: real time    3.2375
    CHARGE:  cpu time    1.0222: real time    1.0730
    --------------------------------------------
      LOOP:  cpu time   13.2421: real time   13.3927

 eigenvalue-minimisations  :     0
 total energy-change (2. order) :-0.4640713E+01  (-0.9205321E+00)
 number of electron     179.9999996 magnetization      -8.3378673
 augmentation part       57.2597466 magnetization      -5.8003560

 Free energy of the ion-electron system (eV)
  ---------------------------------------------------
  alpha Z        PSCENC =       532.25742704
  Ewald energy   TEWEN  =     -8601.05107233
  -Hartree energ DENC   =     -1694.55671096
  -exchange      EXHF   =         0.00000000
  -V(xc)+E(xc)   XCENC  =      -665.94212822
  PAW double counting   =     14219.25116792   -13397.72721095
  entropy T*S    EENTRO =        -0.01214050
  eigenvalues    EBANDS =       909.86498979
  atomic energy  EATOM  =      8465.11600846
  ---------------------------------------------------
  free energy    TOTEN  =      -232.80124826 eV

  energy without entropy =     -232.78910776  energy(sigma->0) =     -232.79720143


--------------------------------------------------------------------------------------------------------




--------------------------------------- Iteration      1(  14)  ---------------------------------------


    POTLOK:  cpu time    0.2637: real time    0.2638
    SETDIJ:  cpu time    0.3151: real time    0.3150
    TRIAL :  cpu time    9.0667: real time    9.0915
    CORREC:  cpu time    3.2319: real time    3.2334
    CHARGE:  cpu time    1.0259: real time    1.0452
    --------------------------------------------
      LOOP:  cpu time   13.9218: real time   13.9688

 eigenvalue-minimisations  :     0
 total energy-change (2. order) :-0.9139968E+00  (-0.9278221E+00)
 number of electron     179.9999996 magnetization      -8.1739654
 augmentation part       57.2559319 magnetization      -5.6204942

 Free energy of the ion-electron system (eV)
  ---------------------------------------------------
  alpha Z        PSCENC =       532.25742704
  Ewald energy   TEWEN  =     -8601.05107233
  -Hartree energ DENC   =     -1650.30340302
  -exchange      EXHF   =         0.00000000
  -V(xc)+E(xc)   XCENC  =      -667.60300015
  PAW double counting   =     13885.05643329   -13050.96504902
  entropy T*S    EENTRO =        -0.01023314
  eigenvalues    EBANDS =       853.78955115
  atomic energy  EATOM  =      8465.11600846
  ---------------------------------------------------
  free energy    TOTEN  =      -233.71524510 eV

  energy without entropy =     -233.70501196  energy(sigma->0) =     -233.71183405


--------------------------------------------------------------------------------------------------------




--------------------------------------- Iteration      1(  15)  ---------------------------------------


    POTLOK:  cpu time    0.2484: real time    0.2483
    SETDIJ:  cpu time    0.3323: real time    0.3436
    TRIAL :  cpu time    9.0374: real time    9.0692
    CORREC:  cpu time    3.2100: real time    3.2116
    CHARGE:  cpu time    1.0277: real time    1.0281
    --------------------------------------------
      LOOP:  cpu time   13.8587: real time   13.9063

 eigenvalue-minimisations  :     0
 total energy-change (2. order) :-0.9276474E+00  (-0.4519125E+00)
 number of electron     179.9999996 magnetization      -8.1222050
 augmentation part       57.7696079 magnetization      -5.5722150

 Free energy of the ion-electron system (eV)
  ---------------------------------------------------
  alpha Z        PSCENC =       532.25742704
  Ewald energy   TEWEN  =     -8601.05107233
  -Hartree energ DENC   =     -1638.76417495
  -exchange      EXHF   =         0.00000000
  -V(xc)+E(xc)   XCENC  =      -668.07134898
  PAW double counting   =     13297.52504237   -12459.60591125
  entropy T*S    EENTRO =        -0.00846983
  eigenvalues    EBANDS =       837.96137027
  atomic energy  EATOM  =      8465.11600846
  ---------------------------------------------------
  free energy    TOTEN  =      -234.64289252 eV

  energy without entropy =     -234.63442268  energy(sigma->0) =     -234.64006924


--------------------------------------------------------------------------------------------------------




--------------------------------------- Iteration      1(  16)  ---------------------------------------


    POTLOK:  cpu time    0.2484: real time    0.2484
    SETDIJ:  cpu time    0.3235: real time    0.3235
    TRIAL :  cpu time    9.0700: real time    9.1933
    CORREC:  cpu time    3.2030: real time    3.2048
    CHARGE:  cpu time    1.0249: real time    1.0334
    --------------------------------------------
      LOOP:  cpu time   13.8729: real time   14.0067

 eigenvalue-minimisations  :     0
 total energy-change (2. order) :-0.4513367E+00  (-0.1817741E+00)
 number of electron     179.9999996 magnetization      -8.0451377
 augmentation part       58.1276006 magnetization      -5.5648684

 Free energy of the ion-electron system (eV)
  ---------------------------------------------------
  alpha Z        PSCENC =       532.25742704
  Ewald energy   TEWEN  =     -8601.05107233
  -Hartree energ DENC   =     -1658.21312777
  -exchange      EXHF   =         0.00000000
  -V(xc)+E(xc)   XCENC  =      -667.33267342
  PAW double counting   =     13063.67500816   -12229.87455284
  entropy T*S    EENTRO =        -0.00771862
  eigenvalues    EBANDS =       860.33722336
  atomic energy  EATOM  =      8465.11600846
  ---------------------------------------------------
  free energy    TOTEN  =      -235.09422918 eV

  energy without entropy =     -235.08651057  energy(sigma->0) =     -235.09165631


--------------------------------------------------------------------------------------------------------




--------------------------------------- Iteration      1(  17)  ---------------------------------------


    POTLOK:  cpu time    0.2518: real time    0.2517
    SETDIJ:  cpu time    0.3052: real time    0.3273
    TRIAL :  cpu time    8.4559: real time    8.5131
    CORREC:  cpu time    3.2336: real time    3.2349
    CHARGE:  cpu time    1.0440: real time    1.0445
    --------------------------------------------
      LOOP:  cpu time   13.2937: real time   13.3765

 eigenvalue-minimisations  :     0
 total energy-change (2. order) :-0.1819386E+00  (-0.2334339E+00)
 number of electron     179.9999996 magnetization      -7.9516356
 augmentation part       58.2570581 magnetization      -5.5723085

 Free energy of the ion-electron system (eV)
  ---------------------------------------------------
  alpha Z        PSCENC =       532.25742704
  Ewald energy   TEWEN  =     -8601.05107233
  -Hartree energ DENC   =     -1673.67670445
  -exchange      EXHF   =         0.00000000
  -V(xc)+E(xc)   XCENC  =      -666.67038909
  PAW double counting   =     13004.01790359   -12173.96949906
  entropy T*S    EENTRO =        -0.00492359
  eigenvalues    EBANDS =       878.70787665
  atomic energy  EATOM  =      8465.11600846
  ---------------------------------------------------
  free energy    TOTEN  =      -235.27616781 eV

  energy without entropy =     -235.27124422  energy(sigma->0) =     -235.27452661


--------------------------------------------------------------------------------------------------------




--------------------------------------- Iteration      1(  18)  ---------------------------------------


    POTLOK:  cpu time    0.2494: real time    0.2494
    SETDIJ:  cpu time    0.3180: real time    0.3238
    TRIAL :  cpu time    8.3096: real time    8.4672
    CORREC:  cpu time    3.8564: real time    3.8692
    CHARGE:  cpu time    1.0236: real time    1.0237
    --------------------------------------------
      LOOP:  cpu time   13.7656: real time   13.9427

 eigenvalue-minimisations  :     0
 total energy-change (2. order) :-0.2334464E+00  (-0.1257526E+00)
 number of electron     179.9999996 magnetization      -7.9033933
 augmentation part       58.0093843 magnetization      -5.5653198

 Free energy of the ion-electron system (eV)
  ---------------------------------------------------
  alpha Z        PSCENC =       532.25742704
  Ewald energy   TEWEN  =     -8601.05107233
  -Hartree energ DENC   =     -1676.71836718
  -exchange      EXHF   =         0.00000000
  -V(xc)+E(xc)   XCENC  =      -666.33144870
  PAW double counting   =     12953.03687844   -12124.60057542
  entropy T*S    EENTRO =        -0.00403979
  eigenvalues    EBANDS =       882.78645908
  atomic energy  EATOM  =      8465.11600846
  ---------------------------------------------------
  free energy    TOTEN  =      -235.50961420 eV

  energy without entropy =     -235.50557441  energy(sigma->0) =     -235.50826760


--------------------------------------------------------------------------------------------------------




--------------------------------------- Iteration      1(  19)  ---------------------------------------


    POTLOK:  cpu time    0.2486: real time    0.2486
    SETDIJ:  cpu time    0.3265: real time    0.3265
    TRIAL :  cpu time    9.1080: real time    9.1341
    CORREC:  cpu time    3.1900: real time    3.1914
    CHARGE:  cpu time    1.0257: real time    1.0345
    --------------------------------------------
      LOOP:  cpu time   13.9139: real time   13.9512

 eigenvalue-minimisations  :     0
 total energy-change (2. order) :-0.1253070E+00  (-0.5922989E-01)
 number of electron     179.9999996 magnetization      -7.8628906
 augmentation part       57.8224966 magnetization      -5.5509814

 Free energy of the ion-electron system (eV)
  ---------------------------------------------------
  alpha Z        PSCENC =       532.25742704
  Ewald energy   TEWEN  =     -8601.05107233
  -Hartree energ DENC   =     -1662.65733773
  -exchange      EXHF   =         0.00000000
  -V(xc)+E(xc)   XCENC  =      -666.68659942
  PAW double counting   =     12924.27472030   -12093.34589317
  entropy T*S    EENTRO =        -0.00335846
  eigenvalues    EBANDS =       866.46186539
  atomic energy  EATOM  =      8465.11600846
  ---------------------------------------------------
  free energy    TOTEN  =      -235.63492125 eV

  energy without entropy =     -235.63156278  energy(sigma->0) =     -235.63380176


--------------------------------------------------------------------------------------------------------




--------------------------------------- Iteration      1(  20)  ---------------------------------------


    POTLOK:  cpu time    0.2485: real time    0.2485
    SETDIJ:  cpu time    0.3417: real time    0.3418
    TRIAL :  cpu time    8.6430: real time    8.7675
    CORREC:  cpu time    3.8624: real time    3.8768
    CHARGE:  cpu time    1.0357: real time    1.0357
    --------------------------------------------
      LOOP:  cpu time   14.1367: real time   14.2771

 eigenvalue-minimisations  :     0
 total energy-change (2. order) :-0.5913194E-01  (-0.1087361E+00)
 number of electron     179.9999996 magnetization      -7.7822656
 augmentation part       57.7140992 magnetization      -5.5247786

 Free energy of the ion-electron system (eV)
  ---------------------------------------------------
  alpha Z        PSCENC =       532.25742704
  Ewald energy   TEWEN  =     -8601.05107233
  -Hartree energ DENC   =     -1653.90685057
  -exchange      EXHF   =         0.00000000
  -V(xc)+E(xc)   XCENC  =      -666.92630970
  PAW double counting   =     12915.36781418   -12082.60044498
  entropy T*S    EENTRO =        -0.00190470
  eigenvalues    EBANDS =       856.05273318
  atomic energy  EATOM  =      8465.11600846
  ---------------------------------------------------
  free energy    TOTEN  =      -235.69405319 eV

  energy without entropy =     -235.69214849  energy(sigma->0) =     -235.69341829


--------------------------------------------------------------------------------------------------------




--------------------------------------- Iteration      1(  21)  ---------------------------------------


    POTLOK:  cpu time    0.2489: real time    0.2489
    SETDIJ:  cpu time    0.3207: real time    0.3209
    TRIAL :  cpu time    8.3525: real time    8.4066
    CORREC:  cpu time    3.2039: real time    3.2405
    CHARGE:  cpu time    1.0314: real time    1.0319
    --------------------------------------------
      LOOP:  cpu time   13.1816: real time   13.2743

 eigenvalue-minimisations  :     0
 total energy-change (2. order) :-0.1087410E+00  (-0.5676107E-01)
 number of electron     179.9999996 magnetization      -7.7436564
 augmentation part       57.8606446 magnetization      -5.5140844

 Free energy of the ion-electron system (eV)
  ---------------------------------------------------
  alpha Z        PSCENC =       532.25742704
  Ewald energy   TEWEN  =     -8601.05107233
  -Hartree energ DENC   =     -1652.26480135
  -exchange      EXHF   =         0.00000000
  -V(xc)+E(xc)   XCENC  =      -666.85676659
  PAW double counting   =     12937.37630578   -12103.99186307
  entropy T*S    EENTRO =        -0.00096213
  eigenvalues    EBANDS =       853.61387255
  atomic energy  EATOM  =      8465.11600846
  ---------------------------------------------------
  free energy    TOTEN  =      -235.80279421 eV

  energy without entropy =     -235.80183208  energy(sigma->0) =     -235.80247350


--------------------------------------------------------------------------------------------------------




--------------------------------------- Iteration      1(  22)  ---------------------------------------


    POTLOK:  cpu time    0.2497: real time    0.2497
    SETDIJ:  cpu time    0.3193: real time    0.3193
    TRIAL :  cpu time    8.3524: real time    8.4837
    CORREC:  cpu time    3.1679: real time    3.1692
    CHARGE:  cpu time    1.0401: real time    1.0404
    --------------------------------------------
      LOOP:  cpu time   13.1309: real time   13.2643

 eigenvalue-minimisations  :     0
 total energy-change (2. order) :-0.5681703E-01  (-0.2776568E-01)
 number of electron     179.9999996 magnetization      -7.7352541
 augmentation part       57.9713486 magnetization      -5.5128904

 Free energy of the ion-electron system (eV)
  ---------------------------------------------------
  alpha Z        PSCENC =       532.25742704
  Ewald energy   TEWEN  =     -8601.05107233
  -Hartree energ DENC   =     -1662.30231761
  -exchange      EXHF   =         0.00000000
  -V(xc)+E(xc)   XCENC  =      -666.43342295
  PAW double counting   =     12969.70203373   -12138.21964383
  entropy T*S    EENTRO =        -0.00066285
  eigenvalues    EBANDS =       865.07233838
  atomic energy  EATOM  =      8465.11600846
  ---------------------------------------------------
  free energy    TOTEN  =      -235.85961124 eV

  energy without entropy =     -235.85894839  energy(sigma->0) =     -235.85939029


--------------------------------------------------------------------------------------------------------




--------------------------------------- Iteration      1(  23)  ---------------------------------------


    POTLOK:  cpu time    0.2485: real time    0.2485
    SETDIJ:  cpu time    1.2630: real time    1.2784
    TRIAL :  cpu time    8.3909: real time    8.4269
    CORREC:  cpu time    3.9403: real time    3.9930
    CHARGE:  cpu time    1.0273: real time    1.0274
    --------------------------------------------
[...]
  8.436  14.376  -0.000   0.000  -0.000  -0.001   0.000  -0.001
 14.376  24.499  -0.001   0.000  -0.001  -0.002   0.001  -0.002
 -0.000  -0.001   1.996   0.000   0.000   5.747   0.000   0.000
  0.000   0.000   0.000   1.995   0.000   0.000   5.746   0.000
 -0.000  -0.001   0.000   0.000   1.996   0.000   0.000   5.748
 -0.001  -0.002   5.747   0.000   0.000  16.470   0.001   0.000
  0.000   0.001   0.000   5.746   0.000   0.001  16.465   0.001
 -0.001  -0.002   0.000   0.000   5.748   0.000   0.001  16.470
 total augmentation occupancy for first ion, spin component:           1
  4.376  -1.251  -0.003   0.001  -0.003  -0.001  -0.000  -0.000
 -1.251   0.377   0.003   0.001   0.003  -0.000  -0.000  -0.000
 -0.003   0.003   1.423  -0.008   0.003  -0.101   0.000  -0.000
  0.001   0.001  -0.008   1.515  -0.002   0.000  -0.102   0.000
 -0.003   0.003   0.003  -0.002   1.401  -0.000   0.000  -0.100
 -0.001  -0.000  -0.101   0.000  -0.000   0.008  -0.000   0.000
 -0.000  -0.000   0.000  -0.102   0.000  -0.000   0.007  -0.000
 -0.000  -0.000  -0.000   0.000  -0.100   0.000  -0.000   0.008
 total augmentation occupancy for first ion, spin component:           2
  0.047  -0.014  -0.017  -0.028   0.019   0.001   0.001  -0.001
 -0.014   0.004  -0.000  -0.002   0.002   0.000   0.000  -0.000
 -0.017  -0.000   0.020  -0.073  -0.015  -0.001   0.001   0.000
 -0.028  -0.002  -0.073   0.033  -0.028   0.001  -0.002   0.001
  0.019   0.002  -0.015  -0.028   0.011   0.000   0.001  -0.001
  0.001   0.000  -0.001   0.001   0.000   0.000   0.000   0.000
  0.001   0.000   0.001  -0.002   0.001   0.000   0.000   0.000
 -0.001  -0.000   0.000   0.001  -0.001   0.000   0.000   0.000


------------------------ aborting loop because EDIFF is reached ----------------------------------------


 


 total charge     
 
# of ion       s       p       d       tot
------------------------------------------
    1        0.405   0.429   0.000   0.834
    2        0.405   0.428   0.000   0.833
    3        0.404   0.431   0.000   0.836
    4        0.404   0.432   0.000   0.836
    5        0.405   0.424   0.000   0.829
    6        0.405   0.425   0.000   0.830
    7        0.405   0.429   0.000   0.834
    8        0.405   0.428   0.000   0.833
    9        0.406   0.427   0.000   0.832
   10        0.406   0.427   0.000   0.832
   11        0.404   0.429   0.000   0.834
   12        0.405   0.429   0.000   0.833
   13        0.405   0.429   0.000   0.835
   14        0.405   0.429   0.000   0.834
   15        0.406   0.427   0.000   0.833
   16        0.406   0.427   0.000   0.833
   17        0.405   0.427   0.000   0.832
   18        0.405   0.427   0.000   0.832
   19        0.334   0.354   5.133   5.821
   20        0.332   0.358   5.125   5.815
   21        0.333   0.359   5.123   5.814
   22        0.334   0.355   5.132   5.821
   23        0.338   0.353   5.125   5.816
   24        0.337   0.356   5.122   5.815
   25        0.332   0.364   5.122   5.818
   26        0.332   0.347   5.152   5.830
   27        0.333   0.349   5.146   5.828
   28        0.334   0.361   5.122   5.817
   29        0.339   0.362   5.104   5.805
   30        0.339   0.355   5.117   5.812
   31        0.332   0.356   5.131   5.819
   32        0.329   0.356   5.141   5.825
   33        0.333   0.356   5.128   5.816
   34        0.336   0.354   5.124   5.813
   35        0.334   0.357   5.126   5.818
   36        0.335   0.356   5.125   5.816
--------------------------------------------------
tot         13.306  14.113  92.297 119.716
 


 magnetization (x)
 
# of ion       s       p       d       tot
------------------------------------------
    1        0.004   0.006   0.000   0.010
    2        0.004   0.007   0.000   0.011
    3        0.004   0.004   0.000   0.007
    4        0.003   0.003   0.000   0.007
    5        0.003   0.005   0.000   0.008
    6        0.003   0.005   0.000   0.009
    7        0.005   0.009   0.000   0.014
    8        0.006   0.009   0.000   0.015
    9        0.010   0.020   0.000   0.030
   10        0.009   0.020   0.000   0.029
   11        0.005   0.009   0.000   0.015
   12        0.005   0.010   0.000   0.015
   13        0.001   0.001   0.000   0.003
   14        0.002   0.002   0.000   0.004
   15        0.008   0.017   0.000   0.025
   16        0.007   0.017   0.000   0.024
   17        0.002   0.001   0.000   0.002
   18        0.002   0.001   0.000   0.003
   19        0.027   0.020   2.316   2.362
   20       -0.009  -0.017  -2.267  -2.293
   21       -0.010  -0.024  -2.280  -2.314
   22        0.029   0.027   2.276   2.332
   23       -0.035  -0.014  -2.507  -2.556
   24       -0.039  -0.026  -2.446  -2.511
   25       -0.035  -0.042  -2.107  -2.185
   26       -0.020   0.005  -2.251  -2.266
   27       -0.022  -0.002  -2.283  -2.308
   28       -0.035  -0.034  -2.246  -2.315
   29        0.044   0.030   2.577   2.651
   30        0.039   0.016   2.590   2.645
   31        0.022   0.027   2.210   2.260
   32       -0.016  -0.027  -1.987  -2.030
   33       -0.013  -0.017  -2.312  -2.341
   34        0.020   0.017   2.469   2.505
   35       -0.023  -0.025  -2.299  -2.347
   36        0.016   0.023   2.367   2.407
--------------------------------------------------
tot          0.023   0.082  -8.179  -8.073
 
    FORLOC:  cpu time    0.0276: real time    0.0276
    FORNL :  cpu time   12.2082: real time   12.3371
    STRESS:  cpu time   18.0576: real time   18.1143
    FORCOR:  cpu time    0.2715: real time    0.2714
    OFIELD:  cpu time    0.0017: real time    0.0017

  FORCE on cell =-STRESS in cart. coord.  units (eV):
  Direction    XX          YY          ZZ          XY          YZ          ZX
  --------------------------------------------------------------------------------------
  Alpha Z   532.25743   532.25743   532.25743
  Ewald   -2702.40749 -2702.40749 -3196.26924    -0.00000    -0.00000    -0.00000
  Hartree   720.14843   719.60059   225.36499    -0.19864    -0.00000    -0.00000
  E(xc)    -760.45665  -760.32663  -760.42588     0.08088     0.00000     0.00000
  Local     249.26468   249.80053  1262.13808     0.76477     0.00000     0.00000
  n-local  -108.37422  -108.07304  -119.05908     0.66456    -0.09570    -0.08141
  augment   521.44544   521.16685   515.24097    -0.39539     0.00001     0.00001
  Kinetic  1555.24543  1554.88031  1541.39603    -0.59877     0.22718    -0.06248
  Fock        0.00000     0.00000     0.00000     0.00000     0.00000     0.00000
  -------------------------------------------------------------------------------------
  Total       7.12304     6.89855     0.64330     0.31740     0.00000     0.00000
  in kB      24.11366    23.35370     2.17777     1.07449     0.00000     0.00000
  external pressure =       16.55 kB  Pullay stress =        0.00 kB


 VOLUME and BASIS-vectors are now :
 -----------------------------------------------------------------------------
  energy-cutoff  :      404.80
  volume of cell :      473.27
      direct lattice vectors                 reciprocal lattice vectors
     8.250148166  0.000000000  0.000000000     0.121209944  0.000000000  0.000000000
     0.000000000  8.250148166  0.000000000     0.000000000  0.121209944  0.000000000
     0.000000000  0.000000000  6.953274261     0.000000000  0.000000000  0.143817137

  length of vectors
     8.250148166  8.250148166  6.953274261     0.121209944  0.121209944  0.143817137


 FORCES acting on ions:
    Electron-Ion                     Ewald-Force                    Non-Local-Force
 -----------------------------------------------------------------------------------------------
   0.136E+00 0.225E+00 0.218E-01   -.239E-08 -.239E-08 0.411E-08   -.136E-01 -.457E-01 -.292E-01
   0.136E+00 0.225E+00 -.218E-01   -.239E-08 -.239E-08 0.411E-08   -.136E-01 -.457E-01 0.292E-01
   -.325E-01 -.818E-01 -.897E-02   -.239E-08 -.802E-09 0.411E-08   -.898E-02 -.625E-02 -.283E-03
   -.325E-01 -.818E-01 0.897E-02   -.239E-08 -.802E-09 0.411E-08   -.898E-02 -.625E-02 0.283E-03
   -.137E+00 -.148E+00 0.743E-01   -.239E-08 0.631E-08 0.411E-08   0.686E-01 0.444E-01 -.340E-02
   -.137E+00 -.148E+00 -.743E-01   -.239E-08 0.631E-08 0.411E-08   0.686E-01 0.444E-01 0.340E-02
   0.106E-01 0.108E+00 -.921E-01   -.802E-09 -.239E-08 0.411E-08   -.121E-01 -.251E-01 -.117E-01
   0.106E-01 0.108E+00 0.921E-01   -.802E-09 -.239E-08 0.411E-08   -.121E-01 -.251E-01 0.117E-01
   0.288E+00 -.430E-01 0.540E-01   -.802E-09 -.802E-09 0.411E-08   0.576E-02 -.119E-01 -.356E-01
   0.288E+00 -.430E-01 -.540E-01   -.802E-09 -.802E-09 0.411E-08   0.576E-02 -.119E-01 0.356E-01
   -.126E-01 -.341E-01 0.994E-01   -.802E-09 0.631E-08 0.411E-08   0.531E-02 0.303E-01 0.126E-01
   -.126E-01 -.341E-01 -.994E-01   -.802E-09 0.631E-08 0.411E-08   0.531E-02 0.303E-01 -.126E-01
   -.125E+00 0.197E+00 -.126E+00   0.631E-08 -.239E-08 0.411E-08   0.959E-02 -.653E-01 0.942E-02
   -.125E+00 0.197E+00 0.126E+00   0.631E-08 -.239E-08 0.411E-08   0.959E-02 -.653E-01 -.942E-02
   -.230E+00 -.109E+00 -.700E-02   0.631E-08 -.802E-09 0.411E-08   0.101E-01 -.124E-02 0.828E-02
   -.230E+00 -.109E+00 0.700E-02   0.631E-08 -.802E-09 0.411E-08   0.101E-01 -.124E-02 -.828E-02
   0.123E+00 -.107E+00 0.779E-02   0.631E-08 0.631E-08 0.411E-08   -.711E-01 0.746E-01 0.408E-01
   0.123E+00 -.107E+00 -.779E-02   0.631E-08 0.631E-08 0.411E-08   -.711E-01 0.746E-01 -.408E-01
   -.329E+00 -.518E+00 0.177E-08   -.169E-07 -.169E-07 -.411E-08   0.265E+00 0.453E+00 0.000E+00
   0.148E-02 -.541E+00 -.647E-08   -.169E-07 -.169E-07 -.411E-08   -.725E-02 0.434E+00 0.000E+00
   0.106E-01 0.416E+00 0.831E-09   -.169E-07 0.802E-09 -.411E-08   -.711E-01 -.262E+00 0.000E+00
   -.415E+00 0.376E+00 -.537E-08   -.169E-07 0.802E-09 -.411E-08   0.231E+00 -.270E+00 0.000E+00
   -.260E+00 -.355E+00 0.385E-08   -.169E-07 0.130E-07 -.411E-08   0.112E+00 -.460E-02 0.000E+00
   0.283E+00 0.613E+00 -.987E-08   -.169E-07 0.130E-07 -.411E-08   -.174E+00 -.225E+00 0.000E+00
   -.145E+00 0.489E+00 -.795E-09   0.802E-09 -.169E-07 -.411E-08   0.129E+00 -.211E+00 0.000E+00
   -.489E-01 0.279E+00 -.295E-08   0.802E-09 -.169E-07 -.411E-08   0.106E-01 -.195E+00 0.000E+00
   -.230E-01 -.405E+00 -.170E-08   0.802E-09 0.802E-09 -.411E-08   0.307E-01 0.350E+00 0.000E+00
   -.698E-01 -.552E+00 -.190E-08   0.802E-09 0.802E-09 -.411E-08   0.386E-02 0.209E+00 0.000E+00
   -.151E+00 -.676E-01 0.129E-08   0.802E-09 0.130E-07 -.411E-08   0.143E+00 0.285E+00 0.000E+00
   0.443E+00 0.204E+00 -.652E-08   0.802E-09 0.130E-07 -.411E-08   -.245E+00 -.336E+00 0.000E+00
   0.330E+00 -.161E+00 -.868E-09   0.130E-07 -.169E-07 -.411E-08   -.170E+00 0.105E+00 0.000E+00
   0.579E-01 0.627E-01 -.316E-08   0.130E-07 -.169E-07 -.411E-08   -.659E-01 0.152E-02 0.000E+00
   -.165E-01 0.480E+00 -.172E-08   0.130E-07 0.802E-09 -.411E-08   0.640E-01 -.253E+00 0.000E+00
   0.412E+00 0.702E+00 -.220E-08   0.130E-07 0.802E-09 -.411E-08   -.331E+00 -.423E+00 0.000E+00
   0.134E+00 -.432E+00 0.111E-08   0.130E-07 0.130E-07 -.411E-08   -.169E-01 0.792E-01 0.000E+00
   -.253E+00 -.547E+00 -.687E-08   0.130E-07 0.130E-07 -.411E-08   0.992E-01 0.217E+00 0.000E+00
 -----------------------------------------------------------------------------------------------
   0.500E-02 0.583E-01 -.778E-07   -.197E-14 0.275E-13 0.265E-14   -.521E-02 -.583E-01 0.000E+00
 
 
 POSITION                                       TOTAL-FORCE (eV/Angst)
 -----------------------------------------------------------------------------------
      0.00000      0.00000      0.00000         0.123335      0.184027     -0.005053
      0.00000      0.00000      3.47664         0.123335      0.184027      0.005053
      0.00000      2.75005      0.00000        -0.040996     -0.087988     -0.009168
      0.00000      2.75005      3.47664        -0.040996     -0.087988      0.009168
      0.00000      5.50010      0.00000        -0.074862     -0.108207      0.070678
      0.00000      5.50010      3.47664        -0.074862     -0.108207     -0.070678
      2.75005      0.00000      0.00000        -0.000678      0.086048     -0.102032
      2.75005      0.00000      3.47664        -0.000678      0.086048      0.102032
      2.75005      2.75005      0.00000         0.293638     -0.054079      0.021723
      2.75005      2.75005      3.47664         0.293638     -0.054079     -0.021723
      2.75005      5.50010      0.00000        -0.008408     -0.006455      0.110627
      2.75005      5.50010      3.47664        -0.008408     -0.006455     -0.110627
      5.50010      0.00000      0.00000        -0.115787      0.137620     -0.116969
      5.50010      0.00000      3.47664        -0.115787      0.137620      0.116969
      5.50010      2.75005      0.00000        -0.220029     -0.111188      0.000589
      5.50010      2.75005      3.47664        -0.220029     -0.111188     -0.000589
      5.50010      5.50010      0.00000         0.058495     -0.038550      0.045131
      5.50010      5.50010      3.47664         0.058495     -0.038550     -0.045131
      1.37502      1.37502      1.73832        -0.069403     -0.077725      0.000000
      1.37502      1.37502      5.21496        -0.003806     -0.109880      0.000000
      1.37502      4.12507      1.73832        -0.058993      0.156013      0.000000
      1.37502      4.12507      5.21496        -0.187553      0.118618      0.000000
      1.37502      6.87512      1.73832        -0.146228     -0.369606      0.000000
      1.37502      6.87512      5.21496         0.119822      0.401415      0.000000
      4.12507      1.37502      1.73832        -0.018062      0.282314      0.000000
      4.12507      1.37502      5.21496        -0.040027      0.085332      0.000000
      4.12507      4.12507      1.73832         0.006646     -0.057806      0.000000
      4.12507      4.12507      5.21496        -0.069185     -0.348752      0.000000
      4.12507      6.87512      1.73832        -0.012351      0.214082      0.000000
      4.12507      6.87512      5.21496         0.208175     -0.129649      0.000000
      6.87512      1.37502      1.73832         0.160951     -0.059048      0.000000
      6.87512      1.37502      5.21496        -0.007893      0.067393      0.000000
      6.87512      4.12507      1.73832         0.047011      0.232214      0.000000
      6.87512      4.12507      5.21496         0.083455      0.294631      0.000000
      6.87512      6.87512      1.73832         0.107741     -0.360430      0.000000
      6.87512      6.87512      5.21496        -0.149717     -0.341571      0.000000
 -----------------------------------------------------------------------------------
    total drift:                               -0.000219      0.000004     -0.000000


--------------------------------------------------------------------------------------------------------



  FREE ENERGIE OF THE ION-ELECTRON SYSTEM (eV)
  ---------------------------------------------------
  free  energy   TOTEN  =      -236.08120528 eV

  energy  without entropy=     -236.08935729  energy(sigma->0) =     -236.08392262
 


--------------------------------------------------------------------------------------------------------


    POTLOK:  cpu time    0.6566: real time    0.6566


--------------------------------------------------------------------------------------------------------


     LOOP+:  cpu time 1298.5363: real time 1310.0629
    4ORBIT:  cpu time    0.0000: real time    0.0000
 


 total charge     
 
# of ion       s       p       d       tot
------------------------------------------
    1        0.405   0.429   0.000   0.834
    2        0.405   0.428   0.000   0.833
    3        0.404   0.431   0.000   0.836
    4        0.404   0.432   0.000   0.836
    5        0.405   0.424   0.000   0.829
    6        0.405   0.425   0.000   0.830
    7        0.405   0.429   0.000   0.834
    8        0.405   0.428   0.000   0.833
    9        0.406   0.427   0.000   0.832
   10        0.406   0.427   0.000   0.832
   11        0.404   0.429   0.000   0.834
   12        0.405   0.429   0.000   0.833
   13        0.405   0.429   0.000   0.835
   14        0.405   0.429   0.000   0.834
   15        0.406   0.427   0.000   0.833
   16        0.406   0.427   0.000   0.833
   17        0.405   0.427   0.000   0.832
   18        0.405   0.427   0.000   0.832
   19        0.334   0.354   5.133   5.821
   20        0.332   0.358   5.125   5.815
   21        0.333   0.359   5.123   5.814
   22        0.334   0.355   5.132   5.821
   23        0.338   0.353   5.125   5.816
   24        0.337   0.356   5.122   5.815
   25        0.332   0.364   5.122   5.818
   26        0.332   0.347   5.152   5.830
   27        0.333   0.349   5.146   5.828
   28        0.334   0.361   5.122   5.817
   29        0.339   0.362   5.104   5.805
   30        0.339   0.355   5.117   5.812
   31        0.332   0.356   5.131   5.819
   32        0.329   0.356   5.141   5.825
   33        0.333   0.356   5.128   5.816
   34        0.336   0.354   5.124   5.813
   35        0.334   0.357   5.126   5.818
   36        0.335   0.356   5.125   5.816
--------------------------------------------------
tot         13.306  14.113  92.297 119.716
 


 magnetization (x)
 
# of ion       s       p       d       tot
------------------------------------------
    1        0.004   0.006   0.000   0.010
    2        0.004   0.007   0.000   0.011
    3        0.004   0.004   0.000   0.007
    4        0.003   0.003   0.000   0.007
    5        0.003   0.005   0.000   0.008
    6        0.003   0.005   0.000   0.009
    7        0.005   0.009   0.000   0.014
    8        0.006   0.009   0.000   0.015
    9        0.010   0.020   0.000   0.030
   10        0.009   0.020   0.000   0.029
   11        0.005   0.009   0.000   0.015
   12        0.005   0.010   0.000   0.015
   13        0.001   0.001   0.000   0.003
   14        0.002   0.002   0.000   0.004
   15        0.008   0.017   0.000   0.025
   16        0.007   0.017   0.000   0.024
   17        0.002   0.001   0.000   0.002
   18        0.002   0.001   0.000   0.003
   19        0.027   0.020   2.316   2.362
   20       -0.009  -0.017  -2.267  -2.293
   21       -0.010  -0.024  -2.280  -2.314
   22        0.029   0.027   2.276   2.332
   23       -0.035  -0.014  -2.507  -2.556
   24       -0.039  -0.026  -2.446  -2.511
   25       -0.035  -0.042  -2.107  -2.185
   26       -0.020   0.005  -2.251  -2.266
   27       -0.022  -0.002  -2.283  -2.308
   28       -0.035  -0.034  -2.246  -2.315
   29        0.044   0.030   2.577   2.651
   30        0.039   0.016   2.590   2.645
   31        0.022   0.027   2.210   2.260
   32       -0.016  -0.027  -1.987  -2.030
   33       -0.013  -0.017  -2.312  -2.341
   34        0.020   0.017   2.469   2.505
   35       -0.023  -0.025  -2.299  -2.347
   36        0.016   0.023   2.367   2.407
--------------------------------------------------
tot          0.023   0.082  -8.179  -8.073
 

 total amount of memory used by VASP MPI-rank0   705355. kBytes
=======================================================================

   base      :      30000. kBytes
   nonl-proj :      34307. kBytes
   fftplans  :      21726. kBytes
   grid      :      14732. kBytes
   one-center:        279. kBytes
   wavefun   :     604311. kBytes
 
  
  
 General timing and accounting informations for this job:
 ========================================================
  
                  Total CPU time used (sec):     1323.135
                            User time (sec):     1299.794
                          System time (sec):       23.341
                         Elapsed time (sec):     1337.734
  
                   Maximum memory used (kb):      842092.
                   Average memory used (kb):           0.
  
                          Minor page faults:       619952
                          Major page faults:           17
                 Voluntary context switches:         3431
