  36  36   1   0
  0.1314651E+02  0.8250148E-09  0.8250148E-09  0.6953274E-09  0.2000000E-15
  1.000000000000000E-004
  CAR 
 AlMn_pv                                 
     11.33726640     -4.52445005  301      7.73934846      1.00000000
     -4.524  0.0000E+00  0.0000E+00  0.0000E+00  0.0000E+00
     -4.472  0.0000E+00  0.0000E+00  0.0000E+00  0.0000E+00
     -4.419  0.0000E+00  0.0000E+00  0.0000E+00  0.0000E+00
     -4.366  0.0000E+00  0.0000E+00  0.0000E+00  0.0000E+00
     -4.313  0.0000E+00  0.0000E+00  0.0000E+00  0.0000E+00
     -4.260  0.0000E+00  0.0000E+00  0.0000E+00  0.0000E+00
     -4.207  0.0000E+00  0.0000E+00  0.0000E+00  0.0000E+00
     -4.154 -0.4160E-29 -0.4160E-29 -0.2199E-30 -0.2199E-30
     -4.101 -0.2749E-27 -0.2749E-27 -0.1475E-28 -0.1475E-28
     -4.049 -0.1607E-25 -0.1607E-25 -0.8645E-27 -0.8645E-27
     -3.996 -0.8124E-24 -0.8124E-24 -0.4382E-25 -0.4382E-25
     -3.943 -0.3566E-22 -0.3566E-22 -0.1929E-23 -0.1929E-23
     -3.890 -0.1360E-20 -0.1360E-20 -0.7381E-22 -0.7381E-22
     -3.837 -0.4500E-19 -0.4500E-19 -0.2453E-20 -0.2453E-20
     -3.784 -0.1294E-17 -0.1294E-17 -0.7085E-19 -0.7085E-19
     -3.731 -0.3228E-16 -0.3228E-16 -0.1778E-17 -0.1778E-17
     -3.678 -0.6787E-15 -0.6787E-15 -0.3766E-16 -0.3766E-16
     -3.626 -0.1275E-13 -0.1275E-13 -0.7120E-15 -0.7120E-15
     -3.573 -0.2075E-12 -0.2075E-12 -0.1168E-13 -0.1168E-13
     -3.520 -0.2933E-11 -0.2933E-11 -0.1668E-12 -0.1668E-12
     -3.467 -0.3600E-10 -0.3600E-10 -0.2070E-11 -0.2070E-11
     -3.414 -0.3837E-09 -0.3837E-09 -0.2236E-10 -0.2236E-10
     -3.361 -0.3552E-08 -0.3552E-08 -0.2101E-09 -0.2101E-09
     -3.308 -0.2856E-07 -0.2856E-07 -0.1720E-08 -0.1720E-08
     -3.256 -0.1996E-06 -0.1996E-06 -0.1227E-07 -0.1227E-07
     -3.203 -0.1212E-05 -0.1212E-05 -0.7637E-07 -0.7637E-07
     -3.150 -0.6405E-05 -0.6405E-05 -0.4150E-06 -0.4150E-06
     -3.097 -0.2944E-04 -0.2944E-04 -0.1971E-05 -0.1971E-05
     -3.044 -0.1177E-03 -0.1177E-03 -0.8192E-05 -0.8192E-05
     -2.991 -0.4086E-03 -0.4086E-03 -0.2980E-04 -0.2980E-04
     -2.938 -0.1230E-02 -0.1230E-02 -0.9483E-04 -0.9483E-04
     -2.885 -0.3193E-02 -0.3193E-02 -0.2637E-03 -0.2637E-03
     -2.833 -0.7074E-02 -0.7074E-02 -0.6377E-03 -0.6377E-03
     -2.780 -0.1308E-01 -0.1308E-01 -0.1329E-02 -0.1329E-02
     -2.727 -0.1913E-01 -0.1913E-01 -0.2340E-02 -0.2340E-02
     -2.674 -0.1853E-01 -0.1853E-01 -0.3320E-02 -0.3320E-02
     -2.621  0.1116E-02  0.1116E-02 -0.3261E-02 -0.3261E-02
     -2.568  0.5485E-01  0.5485E-01 -0.3612E-03 -0.3612E-03
     -2.515  0.1516E+00  0.1516E+00  0.7655E-02  0.7655E-02
     -2.462  0.2838E+00  0.2838E+00  0.2266E-01  0.2266E-01
     -2.410  0.4251E+00  0.4251E+00  0.4514E-01  0.4514E-01
     -2.357  0.5440E+00  0.5440E+00  0.7390E-01  0.7390E-01
     -2.304  0.6297E+00  0.6297E+00  0.1072E+00  0.1072E+00
     -2.251  0.7075E+00  0.7075E+00  0.1446E+00  0.1446E+00
     -2.198  0.8208E+00  0.8208E+00  0.1880E+00  0.1880E+00
     -2.145  0.9864E+00  0.9864E+00  0.2402E+00  0.2402E+00
     -2.092  0.1160E+01  0.1160E+01  0.3015E+00  0.3015E+00
     -2.039  0.1259E+01  0.1259E+01  0.3681E+00  0.3681E+00
     -1.987  0.1231E+01  0.1231E+01  0.4331E+00  0.4331E+00
     -1.934  0.1117E+01  0.1117E+01  0.4922E+00  0.4922E+00
     -1.881  0.1033E+01  0.1033E+01  0.5468E+00  0.5468E+00
     -1.828  0.1084E+01  0.1084E+01  0.6041E+00  0.6041E+00
     -1.775  0.1277E+01  0.1277E+01  0.6716E+00  0.6716E+00
     -1.722  0.1522E+01  0.1522E+01  0.7521E+00  0.7521E+00
     -1.669  0.1700E+01  0.1700E+01  0.8420E+00  0.8420E+00
     -1.616  0.1749E+01  0.1749E+01  0.9345E+00  0.9345E+00
     -1.564  0.1701E+01  0.1701E+01  0.1024E+01  0.1024E+01
     -1.511  0.1643E+01  0.1643E+01  0.1111E+01  0.1111E+01
     -1.458  0.1654E+01  0.1654E+01  0.1199E+01  0.1199E+01
     -1.405  0.1739E+01  0.1739E+01  0.1291E+01  0.1291E+01
     -1.352  0.1821E+01  0.1821E+01  0.1387E+01  0.1387E+01
     -1.299  0.1809E+01  0.1809E+01  0.1483E+01  0.1483E+01
     -1.246  0.1692E+01  0.1692E+01  0.1572E+01  0.1572E+01
     -1.193  0.1578E+01  0.1578E+01  0.1655E+01  0.1655E+01
     -1.141  0.1610E+01  0.1610E+01  0.1741E+01  0.1741E+01
     -1.088  0.1841E+01  0.1841E+01  0.1838E+01  0.1838E+01
     -1.035  0.2176E+01  0.2176E+01  0.1953E+01  0.1953E+01
     -0.982  0.2459E+01  0.2459E+01  0.2083E+01  0.2083E+01
     -0.929  0.2599E+01  0.2599E+01  0.2220E+01  0.2220E+01
     -0.876  0.2622E+01  0.2622E+01  0.2359E+01  0.2359E+01
     -0.823  0.2599E+01  0.2599E+01  0.2496E+01  0.2496E+01
     -0.771  0.2554E+01  0.2554E+01  0.2631E+01  0.2631E+01
     -0.718  0.2445E+01  0.2445E+01  0.2761E+01  0.2761E+01
     -0.665  0.2242E+01  0.2242E+01  0.2879E+01  0.2879E+01
     -0.612  0.2003E+01  0.2003E+01  0.2985E+01  0.2985E+01
     -0.559  0.1862E+01  0.1862E+01  0.3084E+01  0.3084E+01
     -0.506  0.1935E+01  0.1935E+01  0.3186E+01  0.3186E+01
     -0.453  0.2229E+01  0.2229E+01  0.3304E+01  0.3304E+01
     -0.400  0.2641E+01  0.2641E+01  0.3443E+01  0.3443E+01
     -0.348  0.3033E+01  0.3033E+01  0.3604E+01  0.3604E+01
     -0.295  0.3306E+01  0.3306E+01  0.3779E+01  0.3779E+01
     -0.242  0.3431E+01  0.3431E+01  0.3960E+01  0.3960E+01
     -0.189  0.3432E+01  0.3432E+01  0.4141E+01  0.4141E+01
     -0.136  0.3359E+01  0.3359E+01  0.4319E+01  0.4319E+01
     -0.083  0.3266E+01  0.3266E+01  0.4492E+01  0.4492E+01
     -0.030  0.3190E+01  0.3190E+01  0.4660E+01  0.4660E+01
      0.023  0.3145E+01  0.3145E+01  0.4827E+01  0.4827E+01
      0.075  0.3127E+01  0.3127E+01  0.4992E+01  0.4992E+01
      0.128  0.3136E+01  0.3136E+01  0.5158E+01  0.5158E+01
      0.181  0.3182E+01  0.3182E+01  0.5326E+01  0.5326E+01
      0.234  0.3271E+01  0.3271E+01  0.5499E+01  0.5499E+01
      0.287  0.3377E+01  0.3377E+01  0.5678E+01  0.5678E+01
      0.340  0.3432E+01  0.3432E+01  0.5859E+01  0.5859E+01
      0.393  0.3369E+01  0.3369E+01  0.6037E+01  0.6037E+01
      0.446  0.3185E+01  0.3185E+01  0.6206E+01  0.6206E+01
      0.498  0.2979E+01  0.2979E+01  0.6363E+01  0.6363E+01
      0.551  0.2905E+01  0.2905E+01  0.6517E+01  0.6517E+01
      0.604  0.3048E+01  0.3048E+01  0.6678E+01  0.6678E+01
      0.657  0.3355E+01  0.3355E+01  0.6855E+01  0.6855E+01
      0.710  0.3684E+01  0.3684E+01  0.7050E+01  0.7050E+01
      0.763  0.3917E+01  0.3917E+01  0.7257E+01  0.7257E+01
      0.816  0.4026E+01  0.4026E+01  0.7470E+01  0.7470E+01
      0.869  0.4028E+01  0.4028E+01  0.7683E+01  0.7683E+01
      0.921  0.3929E+01  0.3929E+01  0.7891E+01  0.7891E+01
      0.974  0.3741E+01  0.3741E+01  0.8088E+01  0.8088E+01
      1.027  0.3528E+01  0.3528E+01  0.8275E+01  0.8275E+01
      1.080  0.3395E+01  0.3395E+01  0.8454E+01  0.8454E+01
      1.133  0.3395E+01  0.3395E+01  0.8634E+01  0.8634E+01
      1.186  0.3472E+01  0.3472E+01  0.8817E+01  0.8817E+01
      1.239  0.3520E+01  0.3520E+01  0.9004E+01  0.9004E+01
      1.292  0.3503E+01  0.3503E+01  0.9189E+01  0.9189E+01
      1.344  0.3476E+01  0.3476E+01  0.9373E+01  0.9373E+01
      1.397  0.3492E+01  0.3492E+01  0.9557E+01  0.9557E+01
      1.450  0.3524E+01  0.3524E+01  0.9744E+01  0.9744E+01
      1.503  0.3509E+01  0.3509E+01  0.9929E+01  0.9929E+01
      1.556  0.3466E+01  0.3466E+01  0.1011E+02  0.1011E+02
      1.609  0.3525E+01  0.3525E+01  0.1030E+02  0.1030E+02
      1.662  0.3826E+01  0.3826E+01  0.1050E+02  0.1050E+02
      1.714  0.4371E+01  0.4371E+01  0.1073E+02  0.1073E+02
      1.767  0.4984E+01  0.4984E+01  0.1100E+02  0.1100E+02
      1.820  0.5408E+01  0.5408E+01  0.1128E+02  0.1128E+02
      1.873  0.5482E+01  0.5482E+01  0.1157E+02  0.1157E+02
      1.926  0.5237E+01  0.5237E+01  0.1185E+02  0.1185E+02
      1.979  0.4855E+01  0.4855E+01  0.1210E+02  0.1210E+02
      2.032  0.4549E+01  0.4549E+01  0.1235E+02  0.1235E+02
      2.085  0.4467E+01  0.4467E+01  0.1258E+02  0.1258E+02
      2.137  0.4665E+01  0.4665E+01  0.1283E+02  0.1283E+02
      2.190  0.5096E+01  0.5096E+01  0.1310E+02  0.1310E+02
      2.243  0.5606E+01  0.5606E+01  0.1339E+02  0.1339E+02
      2.296  0.5969E+01  0.5969E+01  0.1371E+02  0.1371E+02
      2.349  0.5991E+01  0.5991E+01  0.1403E+02  0.1403E+02
      2.402  0.5635E+01  0.5635E+01  0.1432E+02  0.1432E+02
      2.455  0.5067E+01  0.5067E+01  0.1459E+02  0.1459E+02
      2.508  0.4554E+01  0.4554E+01  0.1483E+02  0.1483E+02
      2.560  0.4309E+01  0.4309E+01  0.1506E+02  0.1506E+02
      2.613  0.4392E+01  0.4392E+01  0.1529E+02  0.1529E+02
      2.666  0.4716E+01  0.4716E+01  0.1554E+02  0.1554E+02
      2.719  0.5128E+01  0.5128E+01  0.1581E+02  0.1581E+02
      2.772  0.5503E+01  0.5503E+01  0.1610E+02  0.1610E+02
      2.825  0.5784E+01  0.5784E+01  0.1641E+02  0.1641E+02
      2.878  0.5964E+01  0.5964E+01  0.1673E+02  0.1673E+02
      2.931  0.6053E+01  0.6053E+01  0.1705E+02  0.1705E+02
      2.983  0.6095E+01  0.6095E+01  0.1737E+02  0.1737E+02
      3.036  0.6176E+01  0.6176E+01  0.1769E+02  0.1769E+02
      3.089  0.6367E+01  0.6367E+01  0.1803E+02  0.1803E+02
      3.142  0.6623E+01  0.6623E+01  0.1838E+02  0.1838E+02
      3.195  0.6762E+01  0.6762E+01  0.1874E+02  0.1874E+02
      3.248  0.6600E+01  0.6600E+01  0.1909E+02  0.1909E+02
      3.301  0.6115E+01  0.6115E+01  0.1941E+02  0.1941E+02
      3.354  0.5477E+01  0.5477E+01  0.1970E+02  0.1970E+02
      3.406  0.4911E+01  0.4911E+01  0.1996E+02  0.1996E+02
      3.459  0.4548E+01  0.4548E+01  0.2020E+02  0.2020E+02
      3.512  0.4388E+01  0.4388E+01  0.2043E+02  0.2043E+02
      3.565  0.4382E+01  0.4382E+01  0.2066E+02  0.2066E+02
      3.618  0.4528E+01  0.4528E+01  0.2090E+02  0.2090E+02
      3.671  0.4872E+01  0.4872E+01  0.2116E+02  0.2116E+02
      3.724  0.5421E+01  0.5421E+01  0.2145E+02  0.2145E+02
      3.777  0.6065E+01  0.6065E+01  0.2177E+02  0.2177E+02
      3.829  0.6613E+01  0.6613E+01  0.2212E+02  0.2212E+02
      3.882  0.6950E+01  0.6950E+01  0.2249E+02  0.2249E+02
      3.935  0.7158E+01  0.7158E+01  0.2286E+02  0.2286E+02
      3.988  0.7489E+01  0.7489E+01  0.2326E+02  0.2326E+02
      4.041  0.8216E+01  0.8216E+01  0.2369E+02  0.2369E+02
      4.094  0.9454E+01  0.9454E+01  0.2419E+02  0.2419E+02
      4.147  0.1108E+02  0.1108E+02  0.2478E+02  0.2478E+02
      4.199  0.1276E+02  0.1276E+02  0.2546E+02  0.2546E+02
      4.252  0.1410E+02  0.1410E+02  0.2620E+02  0.2620E+02
      4.305  0.1476E+02  0.1476E+02  0.2698E+02  0.2698E+02
      4.358  0.1466E+02  0.1466E+02  0.2776E+02  0.2776E+02
      4.411  0.1397E+02  0.1397E+02  0.2850E+02  0.2850E+02
      4.464  0.1300E+02  0.1300E+02  0.2918E+02  0.2918E+02
      4.517  0.1212E+02  0.1212E+02  0.2982E+02  0.2982E+02
      4.570  0.1158E+02  0.1158E+02  0.3044E+02  0.3044E+02
      4.622  0.1148E+02  0.1148E+02  0.3104E+02  0.3104E+02
      4.675  0.1182E+02  0.1182E+02  0.3167E+02  0.3167E+02
      4.728  0.1258E+02  0.1258E+02  0.3233E+02  0.3233E+02
      4.781  0.1369E+02  0.1369E+02  0.3306E+02  0.3306E+02
      4.834  0.1503E+02  0.1503E+02  0.3385E+02  0.3385E+02
      4.887  0.1640E+02  0.1640E+02  0.3472E+02  0.3472E+02
      4.940  0.1771E+02  0.1771E+02  0.3566E+02  0.3566E+02
      4.993  0.1904E+02  0.1904E+02  0.3666E+02  0.3666E+02
      5.045  0.2056E+02  0.2056E+02  0.3775E+02  0.3775E+02
      5.098  0.2219E+02  0.2219E+02  0.3892E+02  0.3892E+02
      5.151  0.2347E+02  0.2347E+02  0.4016E+02  0.4016E+02
      5.204  0.2371E+02  0.2371E+02  0.4142E+02  0.4142E+02
      5.257  0.2258E+02  0.2258E+02  0.4261E+02  0.4261E+02
      5.310  0.2049E+02  0.2049E+02  0.4369E+02  0.4369E+02
      5.363  0.1835E+02  0.1835E+02  0.4466E+02  0.4466E+02
      5.416  0.1700E+02  0.1700E+02  0.4556E+02  0.4556E+02
      5.468  0.1665E+02  0.1665E+02  0.4644E+02  0.4644E+02
      5.521  0.1684E+02  0.1684E+02  0.4733E+02  0.4733E+02
      5.574  0.1692E+02  0.1692E+02  0.4823E+02  0.4823E+02
      5.627  0.1657E+02  0.1657E+02  0.4910E+02  0.4910E+02
      5.680  0.1597E+02  0.1597E+02  0.4995E+02  0.4995E+02
      5.733  0.1552E+02  0.1552E+02  0.5077E+02  0.5077E+02
      5.786  0.1541E+02  0.1541E+02  0.5158E+02  0.5158E+02
      5.839  0.1543E+02  0.1543E+02  0.5240E+02  0.5240E+02
      5.891  0.1528E+02  0.1528E+02  0.5321E+02  0.5321E+02
      5.944  0.1497E+02  0.1497E+02  0.5400E+02  0.5400E+02
      5.997  0.1495E+02  0.1495E+02  0.5479E+02  0.5479E+02
      6.050  0.1570E+02  0.1570E+02  0.5562E+02  0.5562E+02
      6.103  0.1722E+02  0.1722E+02  0.5653E+02  0.5653E+02
      6.156  0.1908E+02  0.1908E+02  0.5754E+02  0.5754E+02
      6.209  0.2079E+02  0.2079E+02  0.5864E+02  0.5864E+02
      6.262  0.2234E+02  0.2234E+02  0.5982E+02  0.5982E+02
      6.314  0.2412E+02  0.2412E+02  0.6109E+02  0.6109E+02
      6.367  0.2659E+02  0.2659E+02  0.6250E+02  0.6250E+02
      6.420  0.2984E+02  0.2984E+02  0.6408E+02  0.6408E+02
      6.473  0.3342E+02  0.3342E+02  0.6585E+02  0.6585E+02
      6.526  0.3650E+02  0.3650E+02  0.6777E+02  0.6777E+02
      6.579  0.3818E+02  0.3818E+02  0.6979E+02  0.6979E+02
      6.632  0.3795E+02  0.3795E+02  0.7180E+02  0.7180E+02
      6.684  0.3587E+02  0.3587E+02  0.7370E+02  0.7370E+02
      6.737  0.3253E+02  0.3253E+02  0.7542E+02  0.7542E+02
      6.790  0.2878E+02  0.2878E+02  0.7694E+02  0.7694E+02
      6.843  0.2539E+02  0.2539E+02  0.7828E+02  0.7828E+02
      6.896  0.2282E+02  0.2282E+02  0.7949E+02  0.7949E+02
      6.949  0.2113E+02  0.2113E+02  0.8060E+02  0.8060E+02
      7.002  0.2005E+02  0.2005E+02  0.8166E+02  0.8166E+02
      7.055  0.1921E+02  0.1921E+02  0.8268E+02  0.8268E+02
      7.107  0.1829E+02  0.1829E+02  0.8365E+02  0.8365E+02
      7.160  0.1704E+02  0.1704E+02  0.8455E+02  0.8455E+02
      7.213  0.1537E+02  0.1537E+02  0.8536E+02  0.8536E+02
      7.266  0.1331E+02  0.1331E+02  0.8607E+02  0.8607E+02
      7.319  0.1111E+02  0.1111E+02  0.8665E+02  0.8665E+02
      7.372  0.9228E+01  0.9228E+01  0.8714E+02  0.8714E+02
      7.425  0.8074E+01  0.8074E+01  0.8757E+02  0.8757E+02
      7.478  0.7747E+01  0.7747E+01  0.8798E+02  0.8798E+02
      7.530  0.7919E+01  0.7919E+01  0.8840E+02  0.8840E+02
      7.583  0.8072E+01  0.8072E+01  0.8882E+02  0.8882E+02
      7.636  0.7881E+01  0.7881E+01  0.8924E+02  0.8924E+02
      7.689  0.7458E+01  0.7458E+01  0.8963E+02  0.8963E+02
      7.742  0.7298E+01  0.7298E+01  0.9002E+02  0.9002E+02
      7.795  0.7978E+01  0.7978E+01  0.9044E+02  0.9044E+02
      7.848  0.9792E+01  0.9792E+01  0.9096E+02  0.9096E+02
      7.901  0.1250E+02  0.1250E+02  0.9162E+02  0.9162E+02
      7.953  0.1533E+02  0.1533E+02  0.9243E+02  0.9243E+02
      8.006  0.1733E+02  0.1733E+02  0.9335E+02  0.9335E+02
      8.059  0.1785E+02  0.1785E+02  0.9429E+02  0.9429E+02
      8.112  0.1687E+02  0.1687E+02  0.9518E+02  0.9518E+02
      8.165  0.1495E+02  0.1494E+02  0.9597E+02  0.9597E+02
      8.218  0.1276E+02  0.1275E+02  0.9665E+02  0.9665E+02
      8.271  0.1078E+02  0.1078E+02  0.9722E+02  0.9722E+02
      8.324  0.9222E+01  0.9235E+01  0.9770E+02  0.9771E+02
      8.376  0.8218E+01  0.8249E+01  0.9814E+02  0.9814E+02
      8.429  0.8025E+01  0.8076E+01  0.9856E+02  0.9857E+02
      8.482  0.8979E+01  0.9038E+01  0.9904E+02  0.9905E+02
      8.535  0.1120E+02  0.1124E+02  0.9963E+02  0.9964E+02
      8.588  0.1432E+02  0.1431E+02  0.1004E+03  0.1004E+03
      8.641  0.1753E+02  0.1742E+02  0.1013E+03  0.1013E+03
      8.694  0.1996E+02  0.1972E+02  0.1024E+03  0.1024E+03
      8.747  0.2115E+02  0.2079E+02  0.1035E+03  0.1035E+03
      8.799  0.2114E+02  0.2071E+02  0.1046E+03  0.1046E+03
      8.852  0.2020E+02  0.1980E+02  0.1057E+03  0.1056E+03
      8.905  0.1860E+02  0.1828E+02  0.1067E+03  0.1066E+03
      8.958  0.1652E+02  0.1630E+02  0.1075E+03  0.1074E+03
      9.011  0.1409E+02  0.1394E+02  0.1083E+03  0.1082E+03
      9.064  0.1142E+02  0.1137E+02  0.1089E+03  0.1088E+03
      9.117  0.8671E+01  0.8767E+01  0.1093E+03  0.1092E+03
      9.169  0.6028E+01  0.6330E+01  0.1097E+03  0.1096E+03
      9.222  0.3734E+01  0.4216E+01  0.1099E+03  0.1098E+03
      9.275  0.1996E+01  0.2536E+01  0.1100E+03  0.1099E+03
      9.328  0.8781E+00  0.1327E+01  0.1100E+03  0.1100E+03
      9.381  0.2776E+00  0.5465E+00  0.1100E+03  0.1100E+03
      9.434  0.1109E-01  0.1058E+00  0.1100E+03  0.1100E+03
      9.487 -0.8326E-01 -0.9565E-01  0.1100E+03  0.1100E+03
      9.540 -0.1013E+00 -0.1488E+00  0.1100E+03  0.1100E+03
      9.592 -0.8707E-01 -0.1272E+00  0.1100E+03  0.1100E+03
      9.645 -0.6140E-01 -0.8297E-01  0.1100E+03  0.1100E+03
      9.698 -0.3642E-01 -0.4426E-01  0.1100E+03  0.1100E+03
      9.751 -0.1827E-01 -0.1980E-01  0.1100E+03  0.1100E+03
      9.804 -0.7781E-02 -0.7507E-02  0.1100E+03  0.1100E+03
      9.857 -0.2820E-02 -0.2429E-02  0.1100E+03  0.1100E+03
      9.910 -0.8730E-03 -0.6730E-03  0.1100E+03  0.1100E+03
      9.963 -0.2314E-03 -0.1602E-03  0.1100E+03  0.1100E+03
     10.015 -0.5265E-04 -0.3280E-04  0.1100E+03  0.1100E+03
     10.068 -0.1031E-04 -0.5792E-05  0.1100E+03  0.1100E+03
     10.121 -0.1738E-05 -0.8829E-06  0.1100E+03  0.1100E+03
     10.174 -0.2530E-06 -0.1163E-06  0.1100E+03  0.1100E+03
     10.227 -0.3180E-07 -0.1325E-07  0.1100E+03  0.1100E+03
     10.280 -0.3457E-08 -0.1306E-08  0.1100E+03  0.1100E+03
     10.333 -0.3253E-09 -0.1116E-09  0.1100E+03  0.1100E+03
     10.386 -0.2650E-10 -0.8259E-11  0.1100E+03  0.1100E+03
     10.438 -0.1871E-11 -0.5302E-12  0.1100E+03  0.1100E+03
     10.491 -0.1142E-12 -0.2945E-13  0.1100E+03  0.1100E+03
     10.544 -0.6047E-14 -0.1456E-14  0.1100E+03  0.1100E+03
     10.597 -0.2240E-15  0.0000E+00  0.1100E+03  0.1100E+03
     10.650  0.0000E+00  0.0000E+00  0.1100E+03  0.1100E+03
     10.703  0.0000E+00  0.0000E+00  0.1100E+03  0.1100E+03
     10.756  0.0000E+00  0.0000E+00  0.1100E+03  0.1100E+03
     10.809  0.0000E+00  0.0000E+00  0.1100E+03  0.1100E+03
     10.861  0.0000E+00  0.0000E+00  0.1100E+03  0.1100E+03
     10.914  0.0000E+00  0.0000E+00  0.1100E+03  0.1100E+03
     10.967  0.0000E+00  0.0000E+00  0.1100E+03  0.1100E+03
     11.020  0.0000E+00  0.0000E+00  0.1100E+03  0.1100E+03
     11.073  0.0000E+00  0.0000E+00  0.1100E+03  0.1100E+03
     11.126  0.0000E+00  0.0000E+00  0.1100E+03  0.1100E+03
     11.179  0.0000E+00  0.0000E+00  0.1100E+03  0.1100E+03
     11.232  0.0000E+00  0.0000E+00  0.1100E+03  0.1100E+03
     11.284  0.0000E+00  0.0000E+00  0.1100E+03  0.1100E+03
     11.337  0.0000E+00  0.0000E+00  0.1100E+03  0.1100E+03
     11.33726640     -4.52445005  301      7.73934846      1.00000000
     -4.524  0.0000E+00  0.0000E+00  0.0000E+00  0.0000E+00  0.0000E+00  0.0000E+00
     -4.472  0.0000E+00  0.0000E+00  0.0000E+00  0.0000E+00  0.0000E+00  0.0000E+00
     -4.419  0.0000E+00  0.0000E+00  0.0000E+00  0.0000E+00  0.0000E+00  0.0000E+00
     -4.366  0.0000E+00  0.0000E+00  0.0000E+00  0.0000E+00  0.0000E+00  0.0000E+00
     -4.313  0.0000E+00  0.0000E+00  0.0000E+00  0.0000E+00  0.0000E+00  0.0000E+00
     -4.260  0.0000E+00  0.0000E+00  0.0000E+00  0.0000E+00  0.0000E+00  0.0000E+00
     -4.207  0.0000E+00  0.0000E+00  0.0000E+00  0.0000E+00  0.0000E+00  0.0000E+00
     -4.154 -0.4800E-31 -0.4800E-31 -0.2228E-35 -0.2228E-35  0.0000E+00  0.0000E+00
     -4.101 -0.3172E-29 -0.3172E-29 -0.1472E-33 -0.1472E-33  0.0000E+00  0.0000E+00
     -4.049 -0.1855E-27 -0.1855E-27 -0.1473E-31 -0.1473E-31  0.0000E+00  0.0000E+00
     -3.996 -0.9375E-26 -0.9375E-26 -0.8240E-30 -0.8240E-30  0.0000E+00  0.0000E+00
     -3.943 -0.4116E-24 -0.4116E-24 -0.4078E-28 -0.4078E-28  0.0000E+00  0.0000E+00
     -3.890 -0.1569E-22 -0.1569E-22 -0.1778E-26 -0.1778E-26  0.0000E+00  0.0000E+00
     -3.837 -0.5193E-21 -0.5193E-21 -0.6824E-25 -0.6824E-25  0.0000E+00  0.0000E+00
     -3.784 -0.1493E-19 -0.1493E-19 -0.2304E-23 -0.2304E-23  0.0000E+00  0.0000E+00
     -3.731 -0.3725E-18 -0.3725E-18 -0.6834E-22 -0.6834E-22  0.0000E+00  0.0000E+00
     -3.678 -0.7831E-17 -0.7831E-17 -0.1768E-20 -0.1768E-20  0.0000E+00  0.0000E+00
     -3.626 -0.1472E-15 -0.1472E-15 -0.4036E-19 -0.4036E-19  0.0000E+00  0.0000E+00
     -3.573 -0.2394E-14 -0.2394E-14 -0.7846E-18 -0.7846E-18  0.0000E+00  0.0000E+00
     -3.520 -0.3384E-13 -0.3384E-13 -0.1365E-16 -0.1365E-16  0.0000E+00  0.0000E+00
     -3.467 -0.4154E-12 -0.4154E-12 -0.2071E-15 -0.2071E-15  0.0000E+00  0.0000E+00
     -3.414 -0.4426E-11 -0.4426E-11 -0.2739E-14 -0.2739E-14  0.0000E+00  0.0000E+00
     -3.361 -0.4097E-10 -0.4097E-10 -0.3153E-13 -0.3153E-13  0.0000E+00  0.0000E+00
     -3.308 -0.3294E-09 -0.3294E-09 -0.3157E-12 -0.3157E-12  0.0000E+00  0.0000E+00
     -3.256 -0.2301E-08 -0.2301E-08 -0.2748E-11 -0.2748E-11  0.0000E+00  0.0000E+00
     -3.203 -0.1398E-07 -0.1398E-07 -0.2076E-10 -0.2076E-10  0.0000E+00  0.0000E+00
     -3.150 -0.7382E-07 -0.7382E-07 -0.1362E-09 -0.1362E-09  0.0000E+00  0.0000E+00
     -3.097 -0.3392E-06 -0.3392E-06 -0.7748E-09 -0.7748E-09  0.0000E+00  0.0000E+00
     -3.044 -0.1355E-05 -0.1355E-05 -0.3819E-08 -0.3819E-08  0.0000E+00  0.0000E+00
     -2.991 -0.4704E-05 -0.4704E-05 -0.1629E-07 -0.1629E-07  0.0000E+00  0.0000E+00
     -2.938 -0.1415E-04 -0.1415E-04 -0.6003E-07 -0.6003E-07  0.0000E+00  0.0000E+00
     -2.885 -0.3672E-04 -0.3672E-04 -0.1905E-06 -0.1905E-06  0.0000E+00  0.0000E+00
     -2.833 -0.8127E-04 -0.8127E-04 -0.5175E-06 -0.5175E-06  0.0000E+00  0.0000E+00
     -2.780 -0.1501E-03 -0.1501E-03 -0.1192E-05 -0.1192E-05  0.0000E+00  0.0000E+00
     -2.727 -0.2191E-03 -0.2191E-03 -0.2283E-05 -0.2283E-05  0.0000E+00  0.0000E+00
     -2.674 -0.2114E-03 -0.2114E-03 -0.3480E-05 -0.3480E-05  0.0000E+00  0.0000E+00
     -2.621  0.1550E-04  0.1550E-04 -0.3726E-05 -0.3726E-05  0.0000E+00  0.0000E+00
     -2.568  0.6337E-03  0.6337E-03 -0.1137E-05 -0.1137E-05  0.0000E+00  0.0000E+00
     -2.515  0.1745E-02  0.1745E-02  0.6301E-05  0.6301E-05  0.0000E+00  0.0000E+00
     -2.462  0.3262E-02  0.3262E-02  0.1939E-04  0.1939E-04  0.0000E+00  0.0000E+00
     -2.410  0.4880E-02  0.4880E-02  0.3707E-04  0.3707E-04  0.0000E+00  0.0000E+00
     -2.357  0.6237E-02  0.6237E-02  0.5818E-04  0.5818E-04  0.0000E+00  0.0000E+00
     -2.304  0.7208E-02  0.7208E-02  0.8552E-04  0.8552E-04  0.0000E+00  0.0000E+00
     -2.251  0.8076E-02  0.8076E-02  0.1279E-03  0.1279E-03  0.0000E+00  0.0000E+00
     -2.198  0.9337E-02  0.9337E-02  0.1948E-03  0.1948E-03  0.0000E+00  0.0000E+00
     -2.145  0.1118E-01  0.1118E-01  0.2841E-03  0.2841E-03  0.0000E+00  0.0000E+00
     -2.092  0.1313E-01  0.1313E-01  0.3741E-03  0.3741E-03  0.0000E+00  0.0000E+00
     -2.039  0.1422E-01  0.1422E-01  0.4331E-03  0.4331E-03  0.0000E+00  0.0000E+00
     -1.987  0.1389E-01  0.1389E-01  0.4460E-03  0.4460E-03  0.0000E+00  0.0000E+00
     -1.934  0.1258E-01  0.1258E-01  0.4359E-03  0.4359E-03  0.0000E+00  0.0000E+00
     -1.881  0.1160E-01  0.1160E-01  0.4559E-03  0.4559E-03  0.0000E+00  0.0000E+00
     -1.828  0.1212E-01  0.1212E-01  0.5508E-03  0.5508E-03  0.0000E+00  0.0000E+00
     -1.775  0.1424E-01  0.1424E-01  0.7189E-03  0.7189E-03  0.0000E+00  0.0000E+00
     -1.722  0.1693E-01  0.1693E-01  0.9100E-03  0.9100E-03  0.0000E+00  0.0000E+00
     -1.669  0.1887E-01  0.1887E-01  0.1060E-02  0.1060E-02  0.0000E+00  0.0000E+00
     -1.616  0.1940E-01  0.1940E-01  0.1137E-02  0.1137E-02  0.0000E+00  0.0000E+00
     -1.564  0.1883E-01  0.1883E-01  0.1161E-02  0.1161E-02  0.0000E+00  0.0000E+00
     -1.511  0.1815E-01  0.1815E-01  0.1191E-02  0.1191E-02  0.0000E+00  0.0000E+00
     -1.458  0.1822E-01  0.1822E-01  0.1279E-02  0.1279E-02  0.0000E+00  0.0000E+00
     -1.405  0.1910E-01  0.1910E-01  0.1421E-02  0.1421E-02  0.0000E+00  0.0000E+00
     -1.352  0.1997E-01  0.1997E-01  0.1545E-02  0.1545E-02  0.0000E+00  0.0000E+00
     -1.299  0.1984E-01  0.1984E-01  0.1570E-02  0.1570E-02  0.0000E+00  0.0000E+00
     -1.246  0.1859E-01  0.1859E-01  0.1495E-02  0.1495E-02  0.0000E+00  0.0000E+00
     -1.193  0.1735E-01  0.1735E-01  0.1437E-02  0.1437E-02  0.0000E+00  0.0000E+00
     -1.141  0.1768E-01  0.1768E-01  0.1546E-02  0.1546E-02  0.0000E+00  0.0000E+00
     -1.088  0.2012E-01  0.2012E-01  0.1873E-02  0.1873E-02  0.0000E+00  0.0000E+00
     -1.035  0.2368E-01  0.2368E-01  0.2316E-02  0.2316E-02  0.0000E+00  0.0000E+00
     -0.982  0.2667E-01  0.2667E-01  0.2701E-02  0.2701E-02  0.0000E+00  0.0000E+00
     -0.929  0.2814E-01  0.2814E-01  0.2930E-02  0.2930E-02  0.0000E+00  0.0000E+00
     -0.876  0.2835E-01  0.2835E-01  0.3038E-02  0.3038E-02  0.0000E+00  0.0000E+00
     -0.823  0.2804E-01  0.2804E-01  0.3111E-02  0.3111E-02  0.0000E+00  0.0000E+00
     -0.771  0.2744E-01  0.2744E-01  0.3171E-02  0.3171E-02  0.0000E+00  0.0000E+00
     -0.718  0.2615E-01  0.2615E-01  0.3140E-02  0.3140E-02  0.0000E+00  0.0000E+00
     -0.665  0.2394E-01  0.2394E-01  0.2943E-02  0.2943E-02  0.0000E+00  0.0000E+00
     -0.612  0.2152E-01  0.2152E-01  0.2632E-02  0.2632E-02  0.0000E+00  0.0000E+00
     -0.559  0.2032E-01  0.2032E-01  0.2397E-02  0.2397E-02  0.0000E+00  0.0000E+00
     -0.506  0.2145E-01  0.2145E-01  0.2447E-02  0.2447E-02  0.0000E+00  0.0000E+00
     -0.453  0.2479E-01  0.2479E-01  0.2864E-02  0.2864E-02  0.0000E+00  0.0000E+00
     -0.400  0.2914E-01  0.2914E-01  0.3549E-02  0.3549E-02  0.0000E+00  0.0000E+00
     -0.348  0.3306E-01  0.3306E-01  0.4291E-02  0.4291E-02  0.0000E+00  0.0000E+00
     -0.295  0.3571E-01  0.3571E-01  0.4882E-02  0.4882E-02  0.0000E+00  0.0000E+00
     -0.242  0.3694E-01  0.3694E-01  0.5210E-02  0.5210E-02  0.0000E+00  0.0000E+00
     -0.189  0.3701E-01  0.3701E-01  0.5290E-02  0.5290E-02  0.0000E+00  0.0000E+00
     -0.136  0.3634E-01  0.3634E-01  0.5233E-02  0.5233E-02  0.0000E+00  0.0000E+00
     -0.083  0.3540E-01  0.3540E-01  0.5156E-02  0.5156E-02  0.0000E+00  0.0000E+00
     -0.030  0.3464E-01  0.3464E-01  0.5103E-02  0.5103E-02  0.0000E+00  0.0000E+00
      0.023  0.3437E-01  0.3437E-01  0.5042E-02  0.5042E-02  0.0000E+00  0.0000E+00
      0.075  0.3458E-01  0.3458E-01  0.4955E-02  0.4955E-02  0.0000E+00  0.0000E+00
      0.128  0.3507E-01  0.3507E-01  0.4913E-02  0.4913E-02  0.0000E+00  0.0000E+00
      0.181  0.3567E-01  0.3567E-01  0.5044E-02  0.5044E-02  0.0000E+00  0.0000E+00
      0.234  0.3630E-01  0.3630E-01  0.5407E-02  0.5407E-02  0.0000E+00  0.0000E+00
      0.287  0.3683E-01  0.3683E-01  0.5892E-02  0.5892E-02  0.0000E+00  0.0000E+00
      0.340  0.3691E-01  0.3691E-01  0.6257E-02  0.6257E-02  0.0000E+00  0.0000E+00
      0.393  0.3598E-01  0.3598E-01  0.6305E-02  0.6305E-02  0.0000E+00  0.0000E+00
      0.446  0.3395E-01  0.3395E-01  0.6057E-02  0.6057E-02  0.0000E+00  0.0000E+00
      0.498  0.3166E-01  0.3166E-01  0.5781E-02  0.5781E-02  0.0000E+00  0.0000E+00
      0.551  0.3062E-01  0.3062E-01  0.5819E-02  0.5819E-02  0.0000E+00  0.0000E+00
      0.604  0.3180E-01  0.3180E-01  0.6321E-02  0.6321E-02  0.0000E+00  0.0000E+00
      0.657  0.3478E-01  0.3478E-01  0.7129E-02  0.7129E-02  0.0000E+00  0.0000E+00
      0.710  0.3808E-01  0.3808E-01  0.7935E-02  0.7935E-02  0.0000E+00  0.0000E+00
      0.763  0.4037E-01  0.4037E-01  0.8538E-02  0.8538E-02  0.0000E+00  0.0000E+00
      0.816  0.4123E-01  0.4123E-01  0.8924E-02  0.8924E-02  0.0000E+00  0.0000E+00
      0.869  0.4080E-01  0.4080E-01  0.9133E-02  0.9133E-02  0.0000E+00  0.0000E+00
      0.921  0.3929E-01  0.3929E-01  0.9130E-02  0.9130E-02  0.0000E+00  0.0000E+00
      0.974  0.3702E-01  0.3702E-01  0.8871E-02  0.8871E-02  0.0000E+00  0.0000E+00
      1.027  0.3478E-01  0.3478E-01  0.8467E-02  0.8467E-02  0.0000E+00  0.0000E+00
      1.080  0.3357E-01  0.3357E-01  0.8172E-02  0.8172E-02  0.0000E+00  0.0000E+00
      1.133  0.3380E-01  0.3380E-01  0.8155E-02  0.8155E-02  0.0000E+00  0.0000E+00
      1.186  0.3473E-01  0.3473E-01  0.8333E-02  0.8333E-02  0.0000E+00  0.0000E+00
      1.239  0.3524E-01  0.3524E-01  0.8485E-02  0.8485E-02  0.0000E+00  0.0000E+00
      1.292  0.3496E-01  0.3496E-01  0.8524E-02  0.8524E-02  0.0000E+00  0.0000E+00
      1.344  0.3445E-01  0.3445E-01  0.8572E-02  0.8572E-02  0.0000E+00  0.0000E+00
      1.397  0.3418E-01  0.3418E-01  0.8763E-02  0.8763E-02  0.0000E+00  0.0000E+00
      1.450  0.3381E-01  0.3381E-01  0.9058E-02  0.9058E-02  0.0000E+00  0.0000E+00
      1.503  0.3272E-01  0.3272E-01  0.9336E-02  0.9336E-02  0.0000E+00  0.0000E+00
      1.556  0.3119E-01  0.3119E-01  0.9633E-02  0.9633E-02  0.0000E+00  0.0000E+00
      1.609  0.3068E-01  0.3068E-01  0.1022E-01  0.1022E-01  0.0000E+00  0.0000E+00
      1.662  0.3267E-01  0.3267E-01  0.1138E-01  0.1138E-01  0.0000E+00  0.0000E+00
      1.714  0.3716E-01  0.3716E-01  0.1306E-01  0.1306E-01  0.0000E+00  0.0000E+00
      1.767  0.4238E-01  0.4238E-01  0.1478E-01  0.1478E-01  0.0000E+00  0.0000E+00
      1.820  0.4589E-01  0.4589E-01  0.1590E-01  0.1590E-01  0.0000E+00  0.0000E+00
      1.873  0.4628E-01  0.4628E-01  0.1600E-01  0.1600E-01  0.0000E+00  0.0000E+00
      1.926  0.4396E-01  0.4396E-01  0.1518E-01  0.1518E-01  0.0000E+00  0.0000E+00
      1.979  0.4061E-01  0.4061E-01  0.1394E-01  0.1394E-01  0.0000E+00  0.0000E+00
      2.032  0.3802E-01  0.3802E-01  0.1294E-01  0.1294E-01  0.0000E+00  0.0000E+00
      2.085  0.3726E-01  0.3726E-01  0.1261E-01  0.1261E-01  0.0000E+00  0.0000E+00
      2.137  0.3860E-01  0.3860E-01  0.1308E-01  0.1308E-01  0.0000E+00  0.0000E+00
      2.190  0.4165E-01  0.4165E-01  0.1414E-01  0.1414E-01  0.0000E+00  0.0000E+00
      2.243  0.4541E-01  0.4541E-01  0.1531E-01  0.1531E-01  0.0000E+00  0.0000E+00
      2.296  0.4832E-01  0.4832E-01  0.1597E-01  0.1597E-01  0.0000E+00  0.0000E+00
      2.349  0.4889E-01  0.4889E-01  0.1565E-01  0.1565E-01  0.0000E+00  0.0000E+00
      2.402  0.4652E-01  0.4652E-01  0.1440E-01  0.1440E-01  0.0000E+00  0.0000E+00
      2.455  0.4197E-01  0.4197E-01  0.1284E-01  0.1284E-01  0.0000E+00  0.0000E+00
      2.508  0.3697E-01  0.3697E-01  0.1180E-01  0.1180E-01  0.0000E+00  0.0000E+00
      2.560  0.3332E-01  0.3332E-01  0.1185E-01  0.1185E-01  0.0000E+00  0.0000E+00
      2.613  0.3205E-01  0.3205E-01  0.1298E-01  0.1298E-01  0.0000E+00  0.0000E+00
      2.666  0.3297E-01  0.3297E-01  0.1472E-01  0.1472E-01  0.0000E+00  0.0000E+00
      2.719  0.3497E-01  0.3497E-01  0.1652E-01  0.1652E-01  0.0000E+00  0.0000E+00