   36   36    1    2
  0.1314651E+02  0.8250148E-09  0.8250148E-09  0.6953274E-09  0.2000000E-15
  1.000000000000000E-004
  CAR 
 AlMn_pv                                 
    180     24    110
 
  0.0000000E+00  0.0000000E+00  0.0000000E+00  0.6666667E-02
    1       -2.524450     -2.524450   1.000000   1.000000
    2       -0.341705     -0.341705   1.000000   1.000000
    3       -0.341705     -0.341705   1.000000   1.000000
    4       -0.341705     -0.341705   1.000000   1.000000
    5       -0.341705     -0.341705   1.000000   1.000000
    6       -0.137764     -0.137764   1.000000   1.000000
    7        1.378381      1.378381   1.000000   1.000000
    8        1.378381      1.378381   1.000000   1.000000
    9        1.378381      1.378381   1.000000   1.000000
   10        1.378381      1.378381   1.000000   1.000000
   11        1.408048      1.408048   1.000000   1.000000
   12        1.587119      1.587119   1.000000   1.000000
   13        1.587119      1.587119   1.000000   1.000000
   14        1.587119      1.587119   1.000000   1.000000
   15        1.587119      1.587119   1.000000   1.000000
   16        2.762581      2.762581   1.000000   1.000000
   17        2.762581      2.762581   1.000000   1.000000
   18        2.762581      2.762581   1.000000   1.000000
   19        2.762581      2.762581   1.000000   1.000000
   20        3.559067      3.559067   1.000000   1.000000
   21        3.559067      3.559067   1.000000   1.000000
   22        3.559067      3.559067   1.000000   1.000000
   23        3.559067      3.559067   1.000000   1.000000
   24        4.204998      4.204998   1.000000   1.000000
   25        4.204998      4.204998   1.000000   1.000000
   26        4.204998      4.204998   1.000000   1.000000
   27        4.204998      4.204998   1.000000   1.000000
   28        4.622959      4.622959   1.000000   1.000000
   29        4.622959      4.622959   1.000000   1.000000
   30        4.622959      4.622959   1.000000   1.000000
   31        4.622959      4.622959   1.000000   1.000000
   32        4.773758      4.773758   1.000000   1.000000
   33        4.773758      4.773758   1.000000   1.000000
   34        4.773758      4.773758   1.000000   1.000000
   35        4.773758      4.773758   1.000000   1.000000
   36        4.822292      4.822292   1.000000   1.000000
   37        5.095404      5.095404   1.000000   1.000000
   38        5.179189      5.179189   1.000000   1.000000
   39        5.179189      5.179189   1.000000   1.000000
   40        5.179189      5.179189   1.000000   1.000000
   41        5.179189      5.179189   1.000000   1.000000
   42        5.246225      5.246225   1.000000   1.000000
   43        5.246225      5.246225   1.000000   1.000000
   44        5.246225      5.246225   1.000000   1.000000
   45        5.246225      5.246225   1.000000   1.000000
   46        5.463853      5.463853   1.000000   1.000000
   47        5.463853      5.463853   1.000000   1.000000
   48        5.463853      5.463853   1.000000   1.000000
   49        5.463853      5.463853   1.000000   1.000000
   50        6.091068      6.091068   1.000000   1.000000
   51        6.091068      6.091068   1.000000   1.000000
   52        6.091068      6.091068   1.000000   1.000000
   53        6.091068      6.091068   1.000000   1.000000
   54        6.134239      6.134239   1.000000   1.000000
   55        6.134239      6.134239   1.000000   1.000000
   56        6.134239      6.134239   1.000000   1.000000
   57        6.134239      6.134239   1.000000   1.000000
   58        6.315131      6.315131   1.000000   1.000000
   59        6.315131      6.315131   1.000000   1.000000
   60        6.315131      6.315131   1.000000   1.000000
   61        6.315131      6.315131   1.000000   1.000000
   62        6.432764      6.432764   1.000000   1.000000
   63        6.432764      6.432764   1.000000   1.000000
   64        6.432764      6.432764   1.000000   1.000000
   65        6.432764      6.432764   1.000000   1.000000
   66        6.440396      6.440396   1.000000   1.000000
   67        6.494058      6.494058   1.000000   1.000000
   68        6.494058      6.494058   1.000000   1.000000
   69        6.494058      6.494058   1.000000   1.000000
   70        6.494058      6.494058   1.000000   1.000000
   71        6.510981      6.510981   1.000000   1.000000
   72        6.510981      6.510981   1.000000   1.000000
   73        6.518153      6.518153   1.000000   1.000000
   74        6.518153      6.518153   1.000000   1.000000
   75        6.518153      6.518153   1.000000   1.000000
   76        6.518153      6.518153   1.000000   1.000000
   77        6.676206      6.676206   1.000000   1.000000
   78        6.676206      6.676206   1.000000   1.000000
   79        6.676206      6.676206   1.000000   1.000000
   80        6.676206      6.676206   1.000000   1.000000
   81        6.959138      6.959138   1.000000   1.000000
   82        6.959138      6.959138   1.000000   1.000000
   83        6.959138      6.959138   1.000000   1.000000
   84        6.959138      6.959138   1.000000   1.000000
   85        7.138506      7.138506   1.000091   1.000091
   86        7.584541      7.584541   0.983089   0.983089
   87        7.584541      7.584541   0.983089   0.983089
   88        7.584541      7.584541   0.983089   0.983089
   89        7.584541      7.584541   0.983089   0.983089
   90        7.780323      7.780322   0.330697   0.330697
   91        7.968371      7.968370  -0.034367  -0.034367
   92        7.968373      7.968372  -0.034368  -0.034368
   93        7.968376      7.968374  -0.034368  -0.034368
   94        7.968379      7.968383  -0.034369  -0.034370
   95        8.227418      8.227406  -0.001505  -0.001505
   96        8.227455      8.227428  -0.001503  -0.001504
   97        8.227484      8.227486  -0.001502  -0.001502
   98        8.227582      8.227561  -0.001498  -0.001498
   99        8.604686      8.604685  -0.000000  -0.000000
  100        8.604688      8.604689  -0.000000  -0.000000
  101        8.604691      8.604693  -0.000000  -0.000000
  102        8.604705      8.604715  -0.000000  -0.000000
  103        8.668450      8.668133  -0.000000  -0.000000
  104        8.670738      8.669457  -0.000000  -0.000000
  105        8.673803      8.673199  -0.000000  -0.000000
  106        8.679486      8.675603  -0.000000  -0.000000
  107        8.719940      8.727444  -0.000000  -0.000000
  108        8.735698      8.729333  -0.000000  -0.000000
  109        8.845937      8.845938  -0.000000  -0.000000
  110        9.042535      9.042627  -0.000000  -0.000000
 
  0.2000000E+00  0.0000000E+00  0.0000000E+00  0.2666667E-01
    1       -2.433897     -2.433897   1.000000   1.000000
    2       -1.107826     -1.107826   1.000000   1.000000
    3       -0.258814     -0.258814   1.000000   1.000000
    4       -0.258814     -0.258814   1.000000   1.000000
    5       -0.071814     -0.071814   1.000000   1.000000
    6        0.562286      0.562286   1.000000   1.000000
    7        0.869389      0.869389   1.000000   1.000000
    8        0.929967      0.929967   1.000000   1.000000
    9        0.929967      0.929967   1.000000   1.000000
   10        1.440984      1.440984   1.000000   1.000000
   11        1.440984      1.440984   1.000000   1.000000
   12        1.503059      1.503059   1.000000   1.000000
   13        1.910588      1.910588   1.000000   1.000000
   14        2.310451      2.310451   1.000000   1.000000
   15        2.310451      2.310451   1.000000   1.000000
   16        2.311924      2.311924   1.000000   1.000000
   17        2.311924      2.311924   1.000000   1.000000
   18        2.843358      2.843358   1.000000   1.000000
   19        3.220923      3.220923   1.000000   1.000000
   20        3.220923      3.220923   1.000000   1.000000
   21        3.627705      3.627705   1.000000   1.000000
   22        3.627705      3.627705   1.000000   1.000000
   23        3.737324      3.737324   1.000000   1.000000
   24        4.170451      4.170451   1.000000   1.000000
   25        4.170451      4.170451   1.000000   1.000000
   26        4.170819      4.170819   1.000000   1.000000
   27        4.170819      4.170819   1.000000   1.000000
   28        4.321728      4.321728   1.000000   1.000000
   29        4.553300      4.553300   1.000000   1.000000
   30        4.553300      4.553300   1.000000   1.000000
   31        4.658096      4.658096   1.000000   1.000000
   32        4.658096      4.658096   1.000000   1.000000
   33        4.825191      4.825191   1.000000   1.000000
   34        4.861277      4.861277   1.000000   1.000000
   35        4.964737      4.964737   1.000000   1.000000
   36        4.964737      4.964737   1.000000   1.000000
   37        5.039661      5.039661   1.000000   1.000000
   38        5.039661      5.039661   1.000000   1.000000
   39        5.091299      5.091299   1.000000   1.000000
   40        5.120898      5.120898   1.000000   1.000000
   41        5.134166      5.134166   1.000000   1.000000
   42        5.134166      5.134166   1.000000   1.000000
   43        5.179441      5.179441   1.000000   1.000000
   44        5.179441      5.179441   1.000000   1.000000
   45        5.322246      5.322246   1.000000   1.000000
   46        5.504171      5.504171   1.000000   1.000000
   47        5.504171      5.504171   1.000000   1.000000
   48        5.511896      5.511896   1.000000   1.000000
   49        5.584754      5.584754   1.000000   1.000000
   50        5.854298      5.854298   1.000000   1.000000
   51        5.986647      5.986647   1.000000   1.000000
   52        5.986647      5.986647   1.000000   1.000000
   53        6.033216      6.033216   1.000000   1.000000
   54        6.033216      6.033216   1.000000   1.000000
   55        6.159980      6.159980   1.000000   1.000000
   56        6.159980      6.159980   1.000000   1.000000
   57        6.233513      6.233513   1.000000   1.000000
   58        6.233513      6.233513   1.000000   1.000000
   59        6.274205      6.274205   1.000000   1.000000
   60        6.274205      6.274205   1.000000   1.000000
   61        6.303044      6.303044   1.000000   1.000000
   62        6.365675      6.365675   1.000000   1.000000
   63        6.365675      6.365675   1.000000   1.000000
   64        6.386835      6.386835   1.000000   1.000000
   65        6.386835      6.386835   1.000000   1.000000
   66        6.391500      6.391500   1.000000   1.000000
   67        6.413640      6.413640   1.000000   1.000000
   68        6.463066      6.463066   1.000000   1.000000
   69        6.520349      6.520349   1.000000   1.000000
   70        6.547947      6.547947   1.000000   1.000000
   71        6.592478      6.592478   1.000000   1.000000
   72        6.592478      6.592478   1.000000   1.000000
   73        6.605855      6.605855   1.000000   1.000000
   74        6.632108      6.632108   1.000000   1.000000
   75        6.659874      6.659874   1.000000   1.000000
   76        6.659874      6.659874   1.000000   1.000000
   77        6.710954      6.710954   1.000000   1.000000
   78        6.772898      6.772898   1.000000   1.000000
   79        6.772898      6.772898   1.000000   1.000000
   80        6.794875      6.794875   1.000000   1.000000
   81        6.794875      6.794875   1.000000   1.000000
   82        6.871090      6.871090   1.000000   1.000000
   83        7.090509      7.090509   1.000022   1.000022
   84        7.090509      7.090509   1.000022   1.000022
   85        7.093729      7.093729   1.000025   1.000025
   86        7.269781      7.269781   1.002224   1.002224
   87        7.269781      7.269781   1.002224   1.002224
   88        7.661931      7.661931   0.801934   0.801933
   89        7.661931      7.661932   0.801930   0.801925
   90        7.799545      7.799545   0.257722   0.257718
   91        7.942677      7.942668  -0.026758  -0.026752
   92        7.969942      7.969940  -0.034581  -0.034581
   93        7.997503      7.997508  -0.034847  -0.034846
   94        7.997518      7.997514  -0.034845  -0.034845
   95        8.173747      8.173656  -0.004409  -0.004418
   96        8.173852      8.173925  -0.004399  -0.004392
   97        8.322890      8.322896  -0.000147  -0.000147
   98        8.419958      8.419953  -0.000008  -0.000008
   99        8.419968      8.419986  -0.000008  -0.000008
  100        8.572264      8.573350  -0.000000  -0.000000
  101        8.576310      8.582811  -0.000000  -0.000000
  102        8.626966      8.624229  -0.000000  -0.000000
  103        8.629003      8.633901  -0.000000  -0.000000
  104        8.762238      8.794027  -0.000000  -0.000000
  105        8.798794      8.799631  -0.000000  -0.000000
  106        8.799290      8.800716  -0.000000  -0.000000
  107        8.853476      8.856377  -0.000000  -0.000000
  108        8.857074      8.857028  -0.000000  -0.000000
  109        8.857207      8.862447  -0.000000  -0.000000
  110        8.993703      8.999445  -0.000000  -0.000000
 
  0.4000000E+00  0.0000000E+00  0.0000000E+00  0.2666667E-01
    1       -2.163837     -2.163837   1.000000   1.000000
    2       -1.719120     -1.719120   1.000000   1.000000
    3       -0.012759     -0.012759   1.000000   1.000000
    4       -0.012759     -0.012759   1.000000   1.000000
    5        0.123842      0.123842   1.000000   1.000000
    6        0.388345      0.388345   1.000000   1.000000
    7        0.388345      0.388345   1.000000   1.000000
    8        0.442225      0.442225   1.000000   1.000000
    9        1.575088      1.575088   1.000000   1.000000
   10        1.625612      1.625612   1.000000   1.000000
   11        1.625612      1.625612   1.000000   1.000000
   12        1.784028      1.784028   1.000000   1.000000
   13        1.922264      1.922264   1.000000   1.000000
   14        1.922264      1.922264   1.000000   1.000000
   15        2.238421      2.238421   1.000000   1.000000
   16        2.316343      2.316343   1.000000   1.000000
   17        2.677286      2.677286   1.000000   1.000000
   18        2.950740      2.950740   1.000000   1.000000
   19        2.950740      2.950740   1.000000   1.000000
   20        3.582838      3.582838   1.000000   1.000000
   21        3.582838      3.582838   1.000000   1.000000
   22        3.810004      3.810004   1.000000   1.000000
   23        3.810004      3.810004   1.000000   1.000000
   24        4.027705      4.027705   1.000000   1.000000
   25        4.027705      4.027705   1.000000   1.000000
   26        4.073559      4.073559   1.000000   1.000000
   27        4.073559      4.073559   1.000000   1.000000
   28        4.342353      4.342353   1.000000   1.000000
   29        4.342353      4.342353   1.000000   1.000000
   30        4.508135      4.508135   1.000000   1.000000
   31        4.672530      4.672530   1.000000   1.000000
   32        4.672530      4.672530   1.000000   1.000000
   33        4.759248      4.759248   1.000000   1.000000
   34        4.759248      4.759248   1.000000   1.000000
   35        4.923252      4.923252   1.000000   1.000000
   36        4.923252      4.923252   1.000000   1.000000
   37        4.927293      4.927293   1.000000   1.000000
   38        4.967219      4.967219   1.000000   1.000000
   39        5.101286      5.101286   1.000000   1.000000
   40        5.101286      5.101286   1.000000   1.000000
   41        5.105174      5.105174   1.000000   1.000000
   42        5.165572      5.165572   1.000000   1.000000
   43        5.165572      5.165572   1.000000   1.000000
   44        5.185787      5.185787   1.000000   1.000000
   45        5.248206      5.248206   1.000000   1.000000
   46        5.613313      5.613313   1.000000   1.000000
   47        5.618943      5.618943   1.000000   1.000000
   48        5.618943      5.618943   1.000000   1.000000
   49        5.670366      5.670366   1.000000   1.000000
   50        5.791863      5.791863   1.000000   1.000000
   51        5.791863      5.791863   1.000000   1.000000
   52        5.845355      5.845355   1.000000   1.000000
   53        6.029306      6.029306   1.000000   1.000000
   54        6.029306      6.029306   1.000000   1.000000
   55        6.105577      6.105577   1.000000   1.000000
   56        6.105577      6.105577   1.000000   1.000000
   57        6.164779      6.164779   1.000000   1.000000
   58        6.185911      6.185911   1.000000   1.000000
   59        6.205931      6.205931   1.000000   1.000000
   60        6.205931      6.205931   1.000000   1.000000
   61        6.233723      6.233723   1.000000   1.000000
   62        6.316489      6.316489   1.000000   1.000000
   63        6.316489      6.316489   1.000000   1.000000
   64        6.323375      6.323375   1.000000   1.000000
   65        6.323375      6.323375   1.000000   1.000000
   66        6.401548      6.401548   1.000000   1.000000
   67        6.401548      6.401548   1.000000   1.000000
   68        6.516380      6.516380   1.000000   1.000000
   69        6.546835      6.546835   1.000000   1.000000
   70        6.559558      6.559558   1.000000   1.000000
   71        6.586343      6.586343   1.000000   1.000000
   72        6.684750      6.684750   1.000000   1.000000
   73        6.684750      6.684750   1.000000   1.000000
   74        6.720996      6.720996   1.000000   1.000000
   75        6.720996      6.720996   1.000000   1.000000
   76        6.730069      6.730069   1.000000   1.000000
   77        6.751471      6.751471   1.000000   1.000000
   78        6.751471      6.751471   1.000000   1.000000
   79        6.795927      6.795927   1.000000   1.000000
   80        6.947469      6.947469   1.000000   1.000000
   81        6.947470      6.947470   1.000000   1.000000
   82        6.968501      6.968501   1.000000   1.000000
   83        6.968501      6.968501   1.000000   1.000000
   84        6.970158      6.970158   1.000000   1.000000
   85        7.086276      7.086276   1.000020   1.000020
   86        7.086276      7.086276   1.000020   1.000020
   87        7.408684      7.408684   1.020629   1.020629
   88        7.660974      7.660974   0.805044   0.805052
   89        7.660981      7.660985   0.805007   0.804989
   90        7.852423      7.852420   0.096188   0.096200
   91        7.887648      7.887648   0.026433   0.026420
   92        7.921140      7.921119  -0.012898  -0.012871
   93        7.921913      7.921909  -0.013538  -0.013533
   94        8.077362      8.077367  -0.018988  -0.018986
   95        8.077478      8.077642  -0.018956  -0.018910
   96        8.170537      8.170575  -0.004678  -0.004675
   97        8.171064      8.170823  -0.004628  -0.004650
   98        8.425644      8.425563  -0.000007  -0.000007
   99        8.425825      8.426036  -0.000007  -0.000007
  100        8.478147      8.477706  -0.000001  -0.000001
  101        8.481821      8.483815  -0.000001  -0.000001
  102        8.612232      8.612084  -0.000000  -0.000000
  103        8.624252      8.614951  -0.000000  -0.000000
  104        8.690064      8.690174  -0.000000  -0.000000
  105        8.700592      8.692446  -0.000000  -0.000000
  106        8.871372      8.857426  -0.000000  -0.000000
  107        8.885850      8.884358  -0.000000  -0.000000
  108        8.893945      8.886395  -0.000000  -0.000000
  109        9.040666      9.043213  -0.000000  -0.000000
  110        9.044626      9.045360  -0.000000  -0.000000
 
  0.2000000E+00  0.2000000E+00  0.0000000E+00  0.2666667E-01
    1       -2.343611     -2.343611   1.000000   1.000000
    2       -1.021986     -1.021986   1.000000   1.000000
    3       -1.021986     -1.021986   1.000000   1.000000
    4       -0.005980     -0.005980   1.000000   1.000000
    5        0.223289      0.223289   1.000000   1.000000
    6        0.641305      0.641305   1.000000   1.000000
    7        0.641305      0.641305   1.000000   1.000000
    8        0.933273      0.933273   1.000000   1.000000
    9        0.933273      0.933273   1.000000   1.000000
   10        1.597403      1.597403   1.000000   1.000000
   11        1.744135      1.744135   1.000000   1.000000
   12        1.744135      1.744135   1.000000   1.000000
   13        1.834034      1.834034   1.000000   1.000000
   14        1.972029      1.972029   1.000000   1.000000
   15        1.972029      1.972029   1.000000   1.000000
   16        2.808199      2.808199   1.000000   1.000000
   17        2.808199      2.808199   1.000000   1.000000
   18        2.846545      2.846545   1.000000   1.000000
   19        2.923736      2.923736   1.000000   1.000000
   20        2.923736      2.923736   1.000000   1.000000
   21        3.619135      3.619135   1.000000   1.000000
   22        3.790976      3.790976   1.000000   1.000000
   23        3.790976      3.790976   1.000000   1.000000
   24        3.874004      3.874004   1.000000   1.000000
   25        4.178804      4.178804   1.000000   1.000000
   26        4.178804      4.178804   1.000000   1.000000
   27        4.228591      4.228591   1.000000   1.000000
   28        4.369320      4.369320   1.000000   1.000000
   29        4.369320      4.369320   1.000000   1.000000
   30        4.422374      4.422374   1.000000   1.000000
   31        4.667367      4.667367   1.000000   1.000000
   32        4.667367      4.667367   1.000000   1.000000
   33        4.791024      4.791024   1.000000   1.000000
   34        4.791024      4.791024   1.000000   1.000000
   35        4.821533      4.821533   1.000000   1.000000
   36        4.821533      4.821533   1.000000   1.000000
   37        4.899121      4.899121   1.000000   1.000000
   38        5.117090      5.117090   1.000000   1.000000
   39        5.117090      5.117090   1.000000   1.000000
   40        5.139866      5.139866   1.000000   1.000000
   41        5.147761      5.147761   1.000000   1.000000
   42        5.234996      5.234996   1.000000   1.000000
   43        5.301048      5.301048   1.000000   1.000000
   44        5.366784      5.366784   1.000000   1.000000
   45        5.366784      5.366784   1.000000   1.000000
   46        5.516189      5.516189   1.000000   1.000000
   47        5.516189      5.516189   1.000000   1.000000
   48        5.597988      5.597988   1.000000   1.000000
   49        5.597988      5.597988   1.000000   1.000000
   50        5.845786      5.845786   1.000000   1.000000
   51        5.861043      5.861043   1.000000   1.000000
   52        5.861043      5.861043   1.000000   1.000000
   53        6.016494      6.016494   1.000000   1.000000
   54        6.038715      6.038715   1.000000   1.000000
   55        6.038715      6.038715   1.000000   1.000000
   56        6.094979      6.094979   1.000000   1.000000
   57        6.094979      6.094979   1.000000   1.000000
   58        6.216894      6.216894   1.000000   1.000000
   59        6.216894      6.216894   1.000000   1.000000
   60        6.275263      6.275263   1.000000   1.000000
   61        6.283665      6.283665   1.000000   1.000000
   62        6.328613      6.328613   1.000000   1.000000
   63        6.416139      6.416139   1.000000   1.000000
   64        6.427629      6.427629   1.000000   1.000000
   65        6.455787      6.455787   1.000000   1.000000
   66        6.455787      6.455787   1.000000   1.000000
   67        6.487855      6.487855   1.000000   1.000000
   68        6.546466      6.546466   1.000000   1.000000
   69        6.546466      6.546466   1.000000   1.000000
   70        6.558477      6.558477   1.000000   1.000000
   71        6.558477      6.558477   1.000000   1.000000
   72        6.602402      6.602402   1.000000   1.000000
   73        6.602402      6.602402   1.000000   1.000000
   74        6.614089      6.614089   1.000000   1.000000
   75        6.614089      6.614089   1.000000   1.000000
   76        6.680714      6.680714   1.000000   1.000000
   77        6.687538      6.687538   1.000000   1.000000
   78        6.736016      6.736016   1.000000   1.000000
   79        6.736016      6.736016   1.000000   1.000000
   80        6.870855      6.870855   1.000000   1.000000
   81        6.870855      6.870855   1.000000   1.000000
   82        7.043688      7.043688   1.000005   1.000005
   83        7.043688      7.043688   1.000005   1.000005
   84        7.046879      7.046879   1.000006   1.000006
   85        7.187810      7.187810   1.000339   1.000339
   86        7.221130      7.221130   1.000763   1.000763
   87        7.221130      7.221130   1.000763   1.000763
   88        7.339626      7.339626   1.008029   1.008029
   89        7.819438      7.819438   0.189439   0.189444
   90        7.972173      7.972178  -0.034840  -0.034841
   91        7.972259      7.972241  -0.034853  -0.034851
   92        7.991390      7.991392  -0.035273  -0.035273
   93        7.995644      7.995641  -0.035001  -0.035001
   94        7.995683      7.995649  -0.034997  -0.035000
   95        8.095335      8.095379  -0.015195  -0.015189
   96        8.225271      8.225268  -0.001576  -0.001577
   97        8.260137      8.260133  -0.000720  -0.000719
   98        8.421487      8.418479  -0.000008  -0.000009
   99        8.424994      8.421467  -0.000007  -0.000008
  100        8.582040      8.578957  -0.000000  -0.000000
  101        8.624942      8.600455  -0.000000  -0.000000
  102        8.627820      8.627484  -0.000000  -0.000000
  103        8.628344      8.627945  -0.000000  -0.000000
  104        8.654021      8.653915  -0.000000  -0.000000
  105        8.654663      8.654061  -0.000000  -0.000000
  106        8.711111      8.680292  -0.000000  -0.000000
  107        8.841512      8.850442  -0.000000  -0.000000
  108        8.911402      8.911919  -0.000000  -0.000000
  109        9.104696      9.191691  -0.000000  -0.000000
  110        9.221367      9.262749  -0.000000  -0.000000
 
  0.4000000E+00  0.2000000E+00  0.0000000E+00  0.5333333E-01
    1       -2.074389     -2.074389   1.000000   1.000000
    2       -1.631128     -1.631128   1.000000   1.000000
    3       -0.766559     -0.766559   1.000000   1.000000
    4       -0.347846     -0.347846   1.000000   1.000000
    5        0.189336      0.189336   1.000000   1.000000
    6        0.507082      0.507082   1.000000   1.000000
    7        0.874619      0.874619   1.000000   1.000000
    8        1.122305      1.122305   1.000000   1.000000
    9        1.250109      1.250109   1.000000   1.000000
   10        1.427986      1.427986   1.000000   1.000000
   11        1.650232      1.650232   1.000000   1.000000
   12        1.876203      1.876203   1.000000   1.000000
   13        2.152286      2.152286   1.000000   1.000000
   14        2.326305      2.326305   1.000000   1.000000
   15        2.377636      2.377636   1.000000   1.000000
   16        2.438907      2.438907   1.000000   1.000000
   17        2.596168      2.596168   1.000000   1.000000
   18        2.738550      2.738550   1.000000   1.000000
   19        3.153592      3.153592   1.000000   1.000000
   20        3.165267      3.165267   1.000000   1.000000
   21        3.197802      3.197802   1.000000   1.000000
   22        3.495218      3.495218   1.000000   1.000000
   23        3.607494      3.607494   1.000000   1.000000
   24        3.923590      3.923590   1.000000   1.000000
   25        3.935817      3.935817   1.000000   1.000000
   26        4.106126      4.106126   1.000000   1.000000
   27        4.282828      4.282828   1.000000   1.000000
   28        4.406188      4.406188   1.000000   1.000000
   29        4.478156      4.478156   1.000000   1.000000
   30        4.494629      4.494629   1.000000   1.000000
   31        4.504958      4.504958   1.000000   1.000000
   32        4.598086      4.598086   1.000000   1.000000
   33        4.683190      4.683190   1.000000   1.000000
   34        4.753590      4.753590   1.000000   1.000000
   35        4.802892      4.802892   1.000000   1.000000
   36        4.910451      4.910451   1.000000   1.000000
   37        4.991734      4.991734   1.000000   1.000000
   38        5.001966      5.001966   1.000000   1.000000
   39        5.133288      5.133288   1.000000   1.000000
   40        5.185756      5.185756   1.000000   1.000000
   41        5.217290      5.217290   1.000000   1.000000
   42        5.270201      5.270201   1.000000   1.000000
   43        5.288524      5.288524   1.000000   1.000000
   44        5.433499      5.433499   1.000000   1.000000
   45        5.492530      5.492530   1.000000   1.000000
   46        5.511054      5.511054   1.000000   1.000000
   47        5.538690      5.538690   1.000000   1.000000
   48        5.641951      5.641951   1.000000   1.000000
   49        5.657238      5.657238   1.000000   1.000000
   50        5.670831      5.670831   1.000000   1.000000
   51        5.833038      5.833038   1.000000   1.000000
   52        5.851270      5.851270   1.000000   1.000000
   53        5.886651      5.886651   1.000000   1.000000
   54        5.943922      5.943922   1.000000   1.000000
   55        6.022721      6.022721   1.000000   1.000000
   56        6.056024      6.056024   1.000000   1.000000
   57        6.140735      6.140735   1.000000   1.000000
   58        6.171219      6.171219   1.000000   1.000000
   59        6.180978      6.180978   1.000000   1.000000
   60        6.218239      6.218239   1.000000   1.000000
   61        6.247646      6.247646   1.000000   1.000000
   62        6.320764      6.320764   1.000000   1.000000
   63        6.377313      6.377313   1.000000   1.000000
   64        6.420228      6.420228   1.000000   1.000000
   65        6.443109      6.443109   1.000000   1.000000
   66        6.444846      6.444846   1.000000   1.000000
   67        6.454538      6.454538   1.000000   1.000000
   68        6.457001      6.457001   1.000000   1.000000