       N       E                     dE             d eps       ncg     rms          ort
DAV:   1     0.135778989696E+04    0.13578E+04   -0.58541E+04  2640   0.144E+03
DAV:   2    -0.534028026117E+02   -0.14112E+04   -0.13815E+04  2640   0.446E+02
DAV:   3    -0.236885513727E+03   -0.18348E+03   -0.16591E+03  2640   0.173E+02
DAV:   4    -0.266664608477E+03   -0.29779E+02   -0.26883E+02  2640   0.751E+01
DAV:   5    -0.269758545365E+03   -0.30939E+01   -0.29832E+01  2640   0.222E+01
DAV:   6    -0.270006031543E+03   -0.24749E+00   -0.24265E+00  2640   0.569E+00
DAV:   7    -0.270032510123E+03   -0.26479E-01   -0.26211E-01  2640   0.166E+00
DAV:   8    -0.270034723636E+03   -0.22135E-02   -0.21984E-02  2640   0.424E-01
SDA:   9    -0.726349936971E+02    0.19740E+03   -0.21984E-02  2640   0.219E+04 0.000E+00
CGA:  10    -0.214991751139E+03   -0.14236E+03   -0.14590E+03  2640   0.705E+02 0.242E+03
CGA:  11    -0.223865254395E+03   -0.88735E+01   -0.90156E+01  2640   0.656E+02-0.294E+00
CGA:  12    -0.235410735258E+03   -0.11545E+02   -0.11558E+02  2640   0.130E+02 0.498E+00
CGA:  13    -0.236508567329E+03   -0.10978E+01   -0.11049E+01  2640   0.449E+01-0.275E-01
CGA:  14    -0.237606192955E+03   -0.10976E+01   -0.10965E+01  2640   0.267E+01 0.147E-01
CGA:  15    -0.237880851778E+03   -0.27466E+00   -0.27374E+00  2640   0.101E+01 0.568E-02
CGA:  16    -0.238143939754E+03   -0.26309E+00   -0.26312E+00  2640   0.659E+00-0.758E-03
CGA:  17    -0.238218309210E+03   -0.74369E-01   -0.74428E-01  2640   0.277E+00-0.329E-03
CGA:  18    -0.238311305115E+03   -0.92996E-01   -0.92986E-01  2640   0.242E+00-0.726E-04
CGA:  19    -0.238337012938E+03   -0.25708E-01   -0.25659E-01  2640   0.650E-01-0.213E-04
CGA:  20    -0.238359897621E+03   -0.22885E-01   -0.22972E-01  2640   0.945E-01-0.558E-03
CGA:  21    -0.238372834787E+03   -0.12937E-01   -0.12933E-01  2640   0.381E-01-0.294E-03
CGA:  22    -0.238385179755E+03   -0.12345E-01   -0.12386E-01  2640   0.372E-01-0.310E-03
CGA:  23    -0.238389719511E+03   -0.45398E-02   -0.45255E-02  2640   0.104E-01-0.189E-04
CGA:  24    -0.238393621819E+03   -0.39023E-02   -0.39259E-02  2640   0.180E-01-0.115E-03
CGA:  25    -0.238396348951E+03   -0.27271E-02   -0.27243E-02  2640   0.599E-02-0.233E-04
CGA:  26    -0.238397898082E+03   -0.15491E-02   -0.15505E-02  2640   0.521E-02-0.138E-04
CGA:  27    -0.238398691746E+03   -0.79366E-03   -0.79467E-03  2640   0.222E-02 0.347E-04
CGA:  28    -0.238399499992E+03   -0.80825E-03   -0.80102E-03  2640   0.294E-02 0.485E-04
CGA:  29    -0.238399950804E+03   -0.45081E-03   -0.45176E-03  2640   0.918E-03 0.164E-04
CGA:  30    -0.238400236769E+03   -0.28596E-03   -0.28534E-03  2640   0.844E-03 0.503E-05
CGA:  31    -0.238400372716E+03   -0.13595E-03   -0.13618E-03  2640   0.398E-03 0.481E-05
CGA:  32    -0.238400544085E+03   -0.17137E-03   -0.17287E-03  2640   0.454E-03-0.703E-05
CGA:  33    -0.238400607594E+03   -0.63509E-04   -0.62900E-04  2640   0.143E-03-0.818E-05
CGA:  34    -0.238400661013E+03   -0.53418E-04   -0.54157E-04  2640   0.159E-03-0.445E-05
CGA:  35    -0.238400684113E+03   -0.23100E-04   -0.23202E-04  2640   0.664E-04 0.145E-05
CGA:  36    -0.238400712505E+03   -0.28392E-04   -0.27909E-04  2640   0.842E-04 0.249E-05
CGA:  37    -0.238400723811E+03   -0.11306E-04   -0.11228E-04  2640   0.969E-05-0.872E-06
CGA:  38    -0.238400728183E+03   -0.43717E-05    0.10267E-03  2640   0.158E-04 0.941E-05
CGA:  39    -0.238400731128E+03   -0.29452E-05   -0.29821E-05  2640   0.991E-05 0.101E-05
CGA:  40    -0.238400736067E+03   -0.49387E-05   -0.48981E-05  2640   0.316E-05 0.172E-06
CGA:  41    -0.238400738309E+03   -0.22423E-05   -0.20502E-05  2640   0.276E-06 0.486E-06
CGA:  42    -0.238400738486E+03   -0.17750E-06    0.46455E-06  2640   0.680E-06 0.578E-06
CGA:  43    -0.238400738648E+03   -0.16183E-06   -0.15863E-06  2640   0.602E-06-0.152E-06
CGA:  44    -0.238400738731E+03   -0.83148E-07   -0.88318E-07  2640   0.963E-07 0.883E-07
   1 F= -.23840074E+03 E0= -.23842304E+03  d E =0.669136E-01  mag=    -0.0000
