 vasp.5.4.4.18Apr17-6-g9f103f2a35 (build Dec 20 2018 12:05:58) complex          
  
 executed on             LinuxIFC date 2019.06.20  15:23:33
 running on   32 total cores
 distrk:  each k-point on    8 cores,    4 groups
 distr:  one band on NCORES_PER_BAND=   4 cores,    2 groups


--------------------------------------------------------------------------------------------------------


 INCAR:
 POTCAR:    PAW_PBE Al 04Jan2001                  
 POTCAR:    PAW_PBE Mn 06Sep2000                  

 ----------------------------------------------------------------------------- 
|                                                                             |
|           W    W    AA    RRRRR   N    N  II  N    N   GGGG   !!!           |
|           W    W   A  A   R    R  NN   N  II  NN   N  G    G  !!!           |
|           W    W  A    A  R    R  N N  N  II  N N  N  G       !!!           |
|           W WW W  AAAAAA  RRRRR   N  N N  II  N  N N  G  GGG   !            |
|           WW  WW  A    A  R   R   N   NN  II  N   NN  G    G                |
|           W    W  A    A  R    R  N    N  II  N    N   GGGG   !!!           |
|                                                                             |
|      You have enabled k-point parallelism (KPAR>1).                         |
|      This developmental code was originally  written by Paul Kent at ORNL,  |
|      and carefully double checked in Vienna.                                |
|      GW as well as linear response parallelism added by Martijn Marsman     |
|      and Georg Kresse.                                                      |
|      Carefully verify results versus KPAR=1.                                |
|      Report problems to Paul Kent and Vienna.                               |
|                                                                             |
 ----------------------------------------------------------------------------- 

 POTCAR:    PAW_PBE Al 04Jan2001                  
   VRHFIN =Al: s2p1                                                             
   LEXCH  = PE                                                                  
   EATOM  =    53.5387 eV,    3.9350 Ry                                         
                                                                                
   TITEL  = PAW_PBE Al 04Jan2001                                                
   LULTRA =        F    use ultrasoft PP ?                                      
   IUNSCR =        1    unscreen: 0-lin 1-nonlin 2-no                           
   RPACOR =    1.500    partial core radius                                     
   POMASS =   26.981; ZVAL   =    3.000    mass and valenz                      
   RCORE  =    1.900    outmost cutoff radius                                   
   RWIGS  =    2.650; RWIGS  =    1.402    wigner-seitz radius (au A)           
   ENMAX  =  240.300; ENMIN  =  180.225 eV                                      
   ICORE  =        2    local potential                                         
   LCOR   =        T    correct aug charges                                     
   LPAW   =        T    paw PP                                                  
   EAUG   =  291.052                                                            
   DEXC   =    0.000                                                            
   RMAX   =    1.939    core radius for proj-oper                               
   RAUG   =    1.300    factor for augmentation sphere                          
   RDEP   =    1.966    radius for radial grids                                 
   RDEPT  =    1.856    core radius for aug-charge                              
                                                                                
   Atomic configuration                                                         
    6 entries                                                                   
     n  l   j            E        occ.                                          
     1  0  0.50     -1511.1048   2.0000                                         
     2  0  0.50      -108.1629   2.0000                                         
     2  1  1.50       -69.6402   6.0000                                         
     3  0  0.50        -7.7528   2.0000                                         
     3  1  1.50        -2.7121   1.0000                                         
     3  2  2.50        -2.7212   0.0000                                         
   Description                                                                  
     l       E           TYP  RCUT    TYP  RCUT                                 
     0     -7.7528455     23  1.900                                             
     0     -3.3096929     23  1.900                                             
     1     -2.7120682     23  1.900                                             
     1     13.6058260     23  1.900                                             
     2     -2.7211652      7  1.900                                             
  local pseudopotential read in
  partial core-charges read in
  partial kinetic energy density read in
  atomic valenz-charges read in
  non local Contribution for L=           0  read in
    real space projection operators read in
  non local Contribution for L=           0  read in
    real space projection operators read in
  non local Contribution for L=           1  read in
    real space projection operators read in
  non local Contribution for L=           1  read in
    real space projection operators read in
    PAW grid and wavefunctions read in
 
   number of l-projection  operators is LMAX  =           4
   number of lm-projection operators is LMMAX =           8
 
 POTCAR:    PAW_PBE Mn 06Sep2000                  
   VRHFIN =Mn: d6 s1                                                            
   LEXCH  = PE                                                                  
   EATOM  =   416.7541 eV,   30.6306 Ry                                         
                                                                                
   TITEL  = PAW_PBE Mn 06Sep2000                                                
   LULTRA =        F    use ultrasoft PP ?                                      
   IUNSCR =        1    unscreen: 0-lin 1-nonlin 2-no                           
   RPACOR =    2.000    partial core radius                                     
   POMASS =   54.938; ZVAL   =    7.000    mass and valenz                      
   RCORE  =    2.300    outmost cutoff radius                                   
   RWIGS  =    2.500; RWIGS  =    1.323    wigner-seitz radius (au A)           
   ENMAX  =  269.864; ENMIN  =  202.398 eV                                      
   RCLOC  =    1.725    cutoff for local pot                                    
   LCOR   =        T    correct aug charges                                     
   LPAW   =        T    paw PP                                                  
   EAUG   =  500.711                                                            
   DEXC   =    0.000                                                            
   RMAX   =    2.343    core radius for proj-oper                               
   RAUG   =    1.300    factor for augmentation sphere                          
   RDEP   =    2.338    radius for radial grids                                 
   RDEPT  =    1.911    core radius for aug-charge                              
                                                                                
   Atomic configuration                                                         
    9 entries                                                                   
     n  l   j            E        occ.                                          
     1  0  0.50     -6424.8288   2.0000                                         
     2  0  0.50      -739.1154   2.0000                                         
     2  1  1.50      -625.3949   6.0000                                         
     3  0  0.50       -81.6100   2.0000                                         
     3  1  1.50       -50.4667   6.0000                                         
     3  2  2.50        -3.3745   6.0000                                         
     4  0  0.50        -4.1331   1.0000                                         
     4  1  0.50        -4.0817   0.0000                                         
     4  3  2.50        -1.3606   0.0000                                         
   Description                                                                  
     l       E           TYP  RCUT    TYP  RCUT                                 
     2     -3.3744664     23  2.300                                             
     2     -4.7350490     23  2.300                                             
     0     -4.1331408     23  2.300                                             
     0      7.6656614     23  2.300                                             
     1     -2.7211652     23  2.300                                             
     1     20.4087390     23  2.300                                             
  local pseudopotential read in
  partial core-charges read in
  partial kinetic energy density read in
  atomic valenz-charges read in
  non local Contribution for L=           2  read in
    real space projection operators read in
  non local Contribution for L=           2  read in
    real space projection operators read in
  non local Contribution for L=           0  read in
    real space projection operators read in
  non local Contribution for L=           0  read in
    real space projection operators read in
  non local Contribution for L=           1  read in
    real space projection operators read in
  non local Contribution for L=           1  read in
    real space projection operators read in
    PAW grid and wavefunctions read in
 
   number of l-projection  operators is LMAX  =           6
   number of lm-projection operators is LMMAX =          18
 

 ----------------------------------------------------------------------------- 
|                                                                             |
|  ADVICE TO THIS USER RUNNING 'VASP/VAMP'   (HEAR YOUR MASTER'S VOICE ...):  |
|                                                                             |
|      You have a (more or less) 'large supercell' and for larger cells       |
|      it might be more efficient to use real space projection opertators     |
|      So try LREAL= Auto  in the INCAR   file.                               |
|      Mind:          For very  accurate calculation you might also keep the  |
|      reciprocal projection scheme          (i.e. LREAL=.FALSE.)             |
|                                                                             |
 ----------------------------------------------------------------------------- 

  PAW_PBE Al 04Jan2001                  :
 energy of atom  1       EATOM=  -53.5387
 kinetic energy error for atom=    0.0005 (will be added to EATOM!!)
  PAW_PBE Mn 06Sep2000                  :
 energy of atom  2       EATOM= -416.7541
 kinetic energy error for atom=    0.0080 (will be added to EATOM!!)
 
 
 POSCAR: NewRef: 18, @ ['Mn', array([1.37502469, 
  positions in cartesian coordinates
  velocities in cartesian coordinates
  No initial velocities read in
 exchange correlation table for  LEXCH =        8
   RHO(1)=    0.500       N(1)  =     2000
   RHO(2)=  100.500       N(2)  =     4000
 


--------------------------------------------------------------------------------------------------------


 ion  position               nearest neighbor table
   1  0.000  0.000  0.000-  20 2.61  24 2.61  32 2.61  36 2.61  31 2.61  23 2.61  35 2.61  19 2.61
                             3 2.75   7 2.75   5 2.75  13 2.75
   2  0.000  0.000  0.500-  19 2.61  23 2.61  31 2.61  35 2.61  20 2.61  32 2.61  24 2.61  36 2.61
                             4 2.75   8 2.75   6 2.75  14 2.75
   3  0.000  0.333  0.000-  20 2.61  32 2.61  22 2.61  34 2.61  19 2.61  31 2.61  33 2.61  21 2.61
                             9 2.75   1 2.75   5 2.75  15 2.75
   4  0.000  0.333  0.500-  19 2.61  31 2.61  21 2.61  33 2.61  32 2.61  20 2.61  22 2.61  34 2.61
                            10 2.75   2 2.75   6 2.75  16 2.75
   5  0.000  0.667  0.000-  22 2.61  34 2.61  24 2.61  36 2.61  21 2.61  33 2.61  35 2.61  23 2.61
                             3 2.75  11 2.75   1 2.75  17 2.75
   6  0.000  0.667  0.500-  21 2.61  33 2.61  23 2.61  35 2.61  34 2.61  22 2.61  24 2.61  36 2.61
                             4 2.75  12 2.75   2 2.75  18 2.75
   7  0.333  0.000  0.000-  20 2.61  24 2.61  26 2.61  30 2.61  23 2.61  19 2.61  29 2.61  25 2.61
                            13 2.75   1 2.75   9 2.75  11 2.75
   8  0.333  0.000  0.500-  19 2.61  23 2.61  25 2.61  29 2.61  20 2.61  24 2.61  26 2.61  30 2.61
                            14 2.75   2 2.75  10 2.75  12 2.75
   9  0.333  0.333  0.000-  20 2.61  22 2.61  26 2.61  19 2.61  28 2.61  21 2.61  25 2.61  27 2.61
                             3 2.75   7 2.75  11 2.75  15 2.75
  10  0.333  0.333  0.500-  19 2.61  21 2.61  25 2.61  20 2.61  27 2.61  26 2.61  22 2.61  28 2.61
                             4 2.75   8 2.75  12 2.75  16 2.75
  11  0.333  0.667  0.000-  22 2.61  24 2.61  28 2.61  21 2.61  30 2.61  23 2.61  27 2.61  29 2.61
                            17 2.75   5 2.75   9 2.75   7 2.75
  12  0.333  0.667  0.500-  21 2.61  23 2.61  27 2.61  22 2.61  29 2.61  28 2.61  24 2.61  30 2.61
                            18 2.75   6 2.75  10 2.75   8 2.75
  13  0.667  0.000  0.000-  26 2.61  30 2.61  32 2.61  36 2.61  29 2.61  25 2.61  35 2.61  31 2.61
                             7 2.75  15 2.75   1 2.75  17 2.75
  14  0.667  0.000  0.500-  25 2.61  29 2.61  31 2.61  35 2.61  26 2.61  30 2.61  32 2.61  36 2.61
                             8 2.75  16 2.75   2 2.75  18 2.75
  15  0.667  0.333  0.000-  26 2.61  28 2.61  32 2.61  25 2.61  34 2.61  27 2.61  31 2.61  33 2.61
                            17 2.75   9 2.75  13 2.75   3 2.75
  16  0.667  0.333  0.500-  25 2.61  27 2.61  31 2.61  26 2.61  33 2.61  32 2.61  28 2.61  34 2.61
                            18 2.75  10 2.75  14 2.75   4 2.75
  17  0.667  0.667  0.000-  28 2.61  30 2.61  34 2.61  27 2.61  36 2.61  29 2.61  33 2.61  35 2.61
                            11 2.75  15 2.75  13 2.75   5 2.75
  18  0.667  0.667  0.500-  27 2.61  29 2.61  33 2.61  28 2.61  35 2.61  34 2.61  30 2.61  36 2.61
                            12 2.75  16 2.75  14 2.75   6 2.75
  19  0.167  0.167  0.250-  10 2.61   8 2.61   4 2.61   9 2.61   2 2.61   7 2.61   3 2.61   1 2.61
                            21 2.75  25 2.75  23 2.75  31 2.75
  20  0.167  0.167  0.750-   9 2.61   7 2.61   3 2.61  10 2.61   1 2.61   4 2.61   8 2.61   2 2.61
                            22 2.75  26 2.75  24 2.75  32 2.75
  21  0.167  0.500  0.250-  12 2.61  10 2.61   6 2.61  11 2.61   4 2.61   9 2.61   5 2.61   3 2.61
                            19 2.75  23 2.75  27 2.75  33 2.75
  22  0.167  0.500  0.750-  11 2.61   9 2.61   5 2.61  12 2.61   3 2.61   6 2.61  10 2.61   4 2.61
                            20 2.75  24 2.75  28 2.75  34 2.75
  23  0.167  0.833  0.250-   8 2.61  12 2.61   2 2.61   6 2.61  11 2.61   7 2.61   5 2.61   1 2.61
                            21 2.75  29 2.75  19 2.75  35 2.75
  24  0.167  0.833  0.750-   7 2.61  11 2.61   1 2.61   5 2.61   8 2.61  12 2.61   2 2.61   6 2.61
                            22 2.75  30 2.75  20 2.75  36 2.75
  25  0.500  0.167  0.250-  16 2.61  14 2.61  10 2.61  15 2.61   8 2.61  13 2.61   9 2.61   7 2.61
                            19 2.75  27 2.75  31 2.75  29 2.75
  26  0.500  0.167  0.750-  15 2.61  13 2.61   9 2.61  16 2.61   7 2.61  10 2.61  14 2.61   8 2.61
                            20 2.75  28 2.75  32 2.75  30 2.75
  27  0.500  0.500  0.250-  18 2.61  16 2.61  12 2.61  17 2.61  10 2.61  15 2.61  11 2.61   9 2.61
                            21 2.75  25 2.75  29 2.75  33 2.75
  28  0.500  0.500  0.750-  17 2.61  15 2.61  11 2.61  18 2.61   9 2.61  12 2.61  16 2.61  10 2.61
                            22 2.75  26 2.75  30 2.75  34 2.75
  29  0.500  0.833  0.250-  14 2.61  18 2.61   8 2.61  12 2.61  17 2.61  13 2.61  11 2.61   7 2.61
                            23 2.75  27 2.75  35 2.75  25 2.75
  30  0.500  0.833  0.750-  13 2.61  17 2.61   7 2.61  11 2.61  14 2.61  18 2.61   8 2.61  12 2.61
                            24 2.75  28 2.75  36 2.75  26 2.75
  31  0.833  0.167  0.250-   4 2.61  16 2.61  14 2.61   2 2.61  15 2.61   3 2.61  13 2.61   1 2.61
                            25 2.75  33 2.75  19 2.75  35 2.75
  32  0.833  0.167  0.750-   3 2.61  15 2.61  13 2.61   1 2.61   4 2.61  16 2.61   2 2.61  14 2.61
                            26 2.75  34 2.75  20 2.75  36 2.75
  33  0.833  0.500  0.250-   6 2.61  18 2.61  16 2.61   4 2.61  17 2.61   5 2.61  15 2.61   3 2.61
                            27 2.75  31 2.75  35 2.75  21 2.75
  34  0.833  0.500  0.750-   5 2.61  17 2.61  15 2.61   3 2.61   6 2.61  18 2.61   4 2.61  16 2.61
                            28 2.75  32 2.75  36 2.75  22 2.75
  35  0.833  0.833  0.250-   2 2.61   6 2.61  14 2.61  18 2.61  13 2.61   5 2.61  17 2.61   1 2.61
                            29 2.75  33 2.75  31 2.75  23 2.75
  36  0.833  0.833  0.750-   1 2.61   5 2.61  13 2.61  17 2.61   2 2.61  14 2.61   6 2.61  18 2.61
                            30 2.75  34 2.75  32 2.75  24 2.75
 
  LATTYP: Found a simple tetragonal cell.
 ALAT       =     8.2501481662
 C/A-ratio  =     0.8428059861
  
  Lattice vectors:
  
 A1 = (   8.2501481662,   0.0000000000,   0.0000000000)
 A2 = (   0.0000000000,   8.2501481662,   0.0000000000)
 A3 = (   0.0000000000,   0.0000000000,   6.9532742610)


Analysis of symmetry for initial positions (statically):
=====================================================================
 Subroutine PRICEL returns following result:
 
  LATTYP: Found a simple tetragonal cell.
 ALAT       =     2.7500493888
 C/A-ratio  =     1.2642089792
  
  Lattice vectors:
  
 A1 = (   2.7500493888,   0.0000000000,   0.0000000000)
 A2 = (   0.0000000000,   2.7500493888,   0.0000000000)
 A3 = (   0.0000000000,   0.0000000000,   3.4766371305)
 
  18 primitive cells build up your supercell.
 

 Routine SETGRP: Setting up the symmetry group for a 
 simple tetragonal supercell.


 Subroutine GETGRP returns: Found 16 space group operations
 (whereof 16 operations were pure point group operations)
 out of a pool of 16 trial point group operations.


The static configuration has the point symmetry D_4h.


Analysis of symmetry for dynamics (positions and initial velocities):
=====================================================================
 Subroutine PRICEL returns following result:
 
  LATTYP: Found a simple tetragonal cell.
 ALAT       =     2.7500493888
 C/A-ratio  =     1.2642089792
  
  Lattice vectors:
  
 A1 = (   2.7500493888,   0.0000000000,   0.0000000000)
 A2 = (   0.0000000000,   2.7500493888,   0.0000000000)
 A3 = (   0.0000000000,   0.0000000000,   3.4766371305)
 
  18 primitive cells build up your supercell.
 

 Routine SETGRP: Setting up the symmetry group for a 
 simple tetragonal supercell.


 Subroutine GETGRP returns: Found 16 space group operations
 (whereof 16 operations were pure point group operations)
 out of a pool of 16 trial point group operations.


The dynamic configuration has the point symmetry D_4h.


Analysis of structural, dynamic, and magnetic symmetry:
=====================================================================
 Subroutine PRICEL returns following result:
 
  LATTYP: Found a simple tetragonal cell.
 ALAT       =     2.7500493888
 C/A-ratio  =     1.2642089792
  
  Lattice vectors:
  
 A1 = (   2.7500493888,   0.0000000000,   0.0000000000)
 A2 = (   0.0000000000,   2.7500493888,   0.0000000000)
 A3 = (   0.0000000000,   0.0000000000,   3.4766371305)
 
  18 primitive cells build up your supercell.
 

 Routine SETGRP: Setting up the symmetry group for a 
 simple tetragonal supercell.


 Subroutine GETGRP returns: Found 16 space group operations
 (whereof 16 operations were pure point group operations)
 out of a pool of 16 trial point group operations.


The magnetic configuration has the point symmetry D_4h.


 Subroutine INISYM returns: Found 16 space group operations
 (whereof 16 operations are pure point group operations),
 and found    18 'primitive' translations

 
 
 KPOINTS: automatic KPOINTS                       

Automatic generation of k-mesh.
 generate k-points for:    5    5    6
Space group operators:
 irot       det(A)        alpha          n_x          n_y          n_z        tau_x        tau_y        tau_z
    1     1.000000     0.000001     1.000000     0.000000     0.000000     0.000000     0.000000     0.000000
    2    -1.000000     0.000001     1.000000     0.000000     0.000000     0.000000     0.000000     0.000000
    3     1.000000    90.000000     0.000000     0.000000    -1.000000     0.000000     0.000000     0.000000
    4    -1.000000    90.000000     0.000000     0.000000    -1.000000     0.000000     0.000000     0.000000
    5     1.000000   179.999999     0.000000     0.000000     1.000000     0.000000     0.000000     0.000000
    6    -1.000000   179.999999     0.000000     0.000000     1.000000     0.000000     0.000000     0.000000
    7     1.000000    90.000000     0.000000     0.000000     1.000000     0.000000     0.000000     0.000000
    8    -1.000000    90.000000     0.000000     0.000000     1.000000     0.000000     0.000000     0.000000
    9     1.000000   180.000000     0.000000     1.000000     0.000000     0.000000     0.000000     0.000000
   10    -1.000000   180.000000     0.000000     1.000000     0.000000     0.000000     0.000000     0.000000
   11     1.000000   180.000000     0.707107     0.707107     0.000000     0.000000     0.000000     0.000000
   12    -1.000000   180.000000     0.707107     0.707107     0.000000     0.000000     0.000000     0.000000
   13     1.000000   180.000000     1.000000     0.000000     0.000000     0.000000     0.000000     0.000000
   14    -1.000000   180.000000     1.000000     0.000000     0.000000     0.000000     0.000000     0.000000
   15     1.000000   180.000000     0.707107    -0.707107     0.000000     0.000000     0.000000     0.000000
   16    -1.000000   180.000000     0.707107    -0.707107     0.000000     0.000000     0.000000     0.000000
 
 Subroutine IBZKPT returns following result:
 ===========================================
 
 Found     24 irreducible k-points:
 
 Following reciprocal coordinates:
            Coordinates               Weight
  0.000000  0.000000  0.000000      1.000000
  0.200000  0.000000  0.000000      4.000000
  0.400000  0.000000  0.000000      4.000000
  0.200000  0.200000  0.000000      4.000000
  0.400000  0.200000  0.000000      8.000000
  0.400000  0.400000  0.000000      4.000000
  0.000000  0.000000  0.166667      2.000000
  0.200000  0.000000  0.166667      8.000000
  0.400000  0.000000  0.166667      8.000000
  0.200000  0.200000  0.166667      8.000000
  0.400000  0.200000  0.166667     16.000000
  0.400000  0.400000  0.166667      8.000000
  0.000000  0.000000  0.333333      2.000000
  0.200000  0.000000  0.333333      8.000000
  0.400000  0.000000  0.333333      8.000000
  0.200000  0.200000  0.333333      8.000000
  0.400000  0.200000  0.333333     16.000000
  0.400000  0.400000  0.333333      8.000000
  0.000000  0.000000  0.500000      1.000000
  0.200000  0.000000  0.500000      4.000000
  0.400000  0.000000  0.500000      4.000000
  0.200000  0.200000  0.500000      4.000000
  0.400000  0.200000  0.500000      8.000000
  0.400000  0.400000  0.500000      4.000000
 
 Following cartesian coordinates:
            Coordinates               Weight
  0.000000  0.000000  0.000000      1.000000
  0.024242  0.000000  0.000000      4.000000
  0.048484  0.000000  0.000000      4.000000
  0.024242  0.024242  0.000000      4.000000
  0.048484  0.024242  0.000000      8.000000
  0.048484  0.048484  0.000000      4.000000
  0.000000  0.000000  0.023970      2.000000
  0.024242  0.000000  0.023970      8.000000
  0.048484  0.000000  0.023970      8.000000
  0.024242  0.024242  0.023970      8.000000
  0.048484  0.024242  0.023970     16.000000
  0.048484  0.048484  0.023970      8.000000
  0.000000  0.000000  0.047939      2.000000
  0.024242  0.000000  0.047939      8.000000
  0.048484  0.000000  0.047939      8.000000
  0.024242  0.024242  0.047939      8.000000
  0.048484  0.024242  0.047939     16.000000
  0.048484  0.048484  0.047939      8.000000
  0.000000  0.000000  0.071909      1.000000
  0.024242  0.000000  0.071909      4.000000
  0.048484  0.000000  0.071909      4.000000
  0.024242  0.024242  0.071909      4.000000
  0.048484  0.024242  0.071909      8.000000
  0.048484  0.048484  0.071909      4.000000
 


--------------------------------------------------------------------------------------------------------




 Dimension of arrays:
   k-points           NKPTS =     24   k-points in BZ     NKDIM =     24   number of bands    NBANDS=    110
   number of dos      NEDOS =    301   number of ions     NIONS =     36
   non local maximal  LDIM  =      6   non local SUM 2l+1 LMDIM =     18
   total plane-waves  NPLWV = 139968
   max r-space proj   IRMAX =      1   max aug-charges    IRDMAX=  92271
   dimension x,y,z NGX =    54 NGY =   54 NGZ =   48
   dimension x,y,z NGXF=   108 NGYF=  108 NGZF=   96
   support grid    NGXF=   216 NGYF=  216 NGZF=  192
   ions per type =              18  18
   NGX,Y,Z   is equivalent  to a cutoff of  10.88, 10.88, 11.48 a.u.
   NGXF,Y,Z  is equivalent  to a cutoff of  21.76, 21.76, 22.95 a.u.

 SYSTEM =  AlMn_pv                                 
 POSCAR =  NewRef: 18, @ ['Mn', array([1.37502469, 

 Startparameter for this run:
   NWRITE =      2    write-flag & timer
   PREC   = accura    normal or accurate (medium, high low for compatibility)
   ISTART =      0    job   : 0-new  1-cont  2-samecut
   ICHARG =      2    charge: 1-file 2-atom 10-const
   ISPIN  =      2    spin polarized calculation?
   LNONCOLLINEAR =      F non collinear calculations
   LSORBIT =      F    spin-orbit coupling
   INIWAV =      1    electr: 0-lowe 1-rand  2-diag
   LASPH  =      F    aspherical Exc in radial PAW
   METAGGA=      F    non-selfconsistent MetaGGA calc.

 Electronic Relaxation 1
   ENCUT  =  404.8 eV  29.75 Ry    5.45 a.u.  13.53 13.53 11.41*2*pi/ulx,y,z
   ENINI  =  404.8     initial cutoff
   ENAUG  =  500.7 eV  augmentation charge cutoff
   NELM   =    100;   NELMIN=  4; NELMDL= -8     # of ELM steps 
   EDIFF  = 0.1E-06   stopping-criterion for ELM
   LREAL  =      F    real-space projection
   NLSPLINE    = F    spline interpolate recip. space projectors
   LCOMPAT=      F    compatible to vasp.4.4
   GGA_COMPAT  = T    GGA compatible to vasp.4.4-vasp.4.6
   LMAXPAW     = -100 max onsite density
   LMAXMIX     =    2 max onsite mixed and CHGCAR
   VOSKOWN=      0    Vosko Wilk Nusair interpolation
   ROPT   =    0.00000   0.00000
 Ionic relaxation
   EDIFFG = 0.1E-05   stopping-criterion for IOM
   NSW    =      0    number of steps for IOM
   NBLOCK =      1;   KBLOCK =      1    inner block; outer block 
   IBRION =     -1    ionic relax: 0-MD 1-quasi-New 2-CG
   NFREE  =      0    steps in history (QN), initial steepest desc. (CG)
   ISIF   =      2    stress and relaxation
   IWAVPR =     10    prediction:  0-non 1-charg 2-wave 3-comb
   ISYM   =      2    0-nonsym 1-usesym 2-fastsym
   LCORR  =      T    Harris-Foulkes like correction to forces

   POTIM  = 0.2000    time-step for ionic-motion
   TEIN   =    0.0    initial temperature
   TEBEG  =    0.0;   TEEND  =   0.0 temperature during run
   SMASS  =  -3.00    Nose mass-parameter (am)
   estimated Nose-frequenzy (Omega)   =  0.10E-29 period in steps =****** mass=  -0.156E-26a.u.
   SCALEE = 1.0000    scale energy and forces
   NPACO  =    256;   APACO  = 16.0  distance and # of slots for P.C.
   PSTRESS=    0.0 pullay stress

  Mass of Ions in am
   POMASS =  26.98 54.94
  Ionic Valenz
   ZVAL   =   3.00  7.00
  Atomic Wigner-Seitz radii
   RWIGS  =  -1.00 -1.00
  virtual crystal weights 
   VCA    =   1.00  1.00
   NELECT =     180.0000    total number of electrons
   NUPDOWN=      -1.0000    fix difference up-down

 DOS related values:
   EMIN   =  10.00;   EMAX   =-10.00  energy-range for DOS
   EFERMI =   0.00
   ISMEAR =     1;   SIGMA  =   0.20  broadening in eV -4-tet -1-fermi 0-gaus

 Electronic relaxation 2 (details)
   IALGO  =     58    algorithm
   LDIAG  =      T    sub-space diagonalisation (order eigenvalues)
   LSUBROT=      F    optimize rotation matrix (better conditioning)
   TURBO    =      0    0=normal 1=particle mesh
   IRESTART =      0    0=no restart 2=restart with 2 vectors
   NREBOOT  =      0    no. of reboots
   NMIN     =      0    reboot dimension
   EREF     =   0.00    reference energy to select bands
   IMIX   =      4    mixing-type and parameters
     AMIX     =   0.40;   BMIX     =  1.00
     AMIX_MAG =   1.60;   BMIX_MAG =  1.00
     AMIN     =   0.10
     WC   =   100.;   INIMIX=   1;  MIXPRE=   1;  MAXMIX= -45

 Intra band minimization:
   WEIMIN = 0.0000     energy-eigenvalue tresh-hold
   EBREAK =  0.23E-09  absolut break condition
   DEPER  =   0.30     relativ break condition  

   TIME   =   0.40     timestep for ELM

  volume/ion in A,a.u.               =      13.15        88.72
  Fermi-wavevector in a.u.,A,eV,Ry     =   1.186118  2.241439 19.141722  1.406877
  Thomas-Fermi vector in A             =   2.322298
 
 Write flags
   LWAVE        =      F    write WAVECAR
   LDOWNSAMPLE  =      F    k-point downsampling of WAVECAR
   LCHARG       =      F    write CHGCAR
   LVTOT        =      F    write LOCPOT, total local potential
   LVHAR        =      F    write LOCPOT, Hartree potential only
   LELF         =      F    write electronic localiz. function (ELF)
   LORBIT       =     10    0 simple, 1 ext, 2 COOP (PROOUT), +10 PAW based schemes


 Dipole corrections
   LMONO  =      F    monopole corrections only (constant potential shift)
   LDIPOL =      F    correct potential (dipole corrections)
   IDIPOL =      0    1-x, 2-y, 3-z, 4-all directions 
   EPSILON=  1.0000000 bulk dielectric constant

 Exchange correlation treatment:
   GGA     =    --    GGA type
   LEXCH   =     8    internal setting for exchange type
   VOSKOWN=      0    Vosko Wilk Nusair interpolation
   LHFCALC =     F    Hartree Fock is set to
   LHFONE  =     F    Hartree Fock one center treatment
   AEXX    =    0.0000 exact exchange contribution

 Linear response parameters
   LEPSILON=     F    determine dielectric tensor
   LRPA    =     F    only Hartree local field effects (RPA)
   LNABLA  =     F    use nabla operator in PAW spheres
   LVEL    =     F    velocity operator in full k-point grid
   LINTERFAST=   F  fast interpolation
   KINTER  =     0    interpolate to denser k-point grid
   CSHIFT  =0.1000    complex shift for real part using Kramers Kronig
   OMEGAMAX=  -1.0    maximum frequency
   DEG_THRESHOLD= 0.2000000E-02 threshold for treating states as degnerate
   RTIME   =   -0.100 relaxation time in fs
  (WPLASMAI=    0.000 imaginary part of plasma frequency in eV, 0.658/RTIME)
   DFIELD  = 0.0000000 0.0000000 0.0000000 field for delta impulse in time
 
 Orbital magnetization related:
   ORBITALMAG=     F  switch on orbital magnetization
   LCHIMAG   =     F  perturbation theory with respect to B field
   DQ        =  0.001000  dq finite difference perturbation B field
   LLRAUG    =     F  two centre corrections for induced B field



--------------------------------------------------------------------------------------------------------


 Static calculation
 charge density and potential will be updated during run
 spin polarized calculation
 Conjugate gradient for all bands (Freysoldt, et al. PRB 79, 241103 (2009))
 preconditioned conjugated gradient                                        
 perform sub-space diagonalisation
    before iterative eigenvector-optimisation
 modified Broyden-mixing scheme, WC =      100.0
 initial mixing is a Kerker type mixing with AMIX =  0.4000 and BMIX =      1.0000
 Hartree-type preconditioning will be used
 using additional bands           20
 reciprocal scheme for non local part
 use partial core corrections
 no Harris-corrections to forces 
 use gradient corrections 
 use of overlap-Matrix (Vanderbilt PP)
 Methfessel and Paxton  Order N= 1 SIGMA  =   0.20


--------------------------------------------------------------------------------------------------------


  energy-cutoff  :      404.80
  volume of cell :      473.27
      direct lattice vectors                 reciprocal lattice vectors
     8.250148166  0.000000000  0.000000000     0.121209944  0.000000000  0.000000000
     0.000000000  8.250148166  0.000000000     0.000000000  0.121209944  0.000000000
     0.000000000  0.000000000  6.953274261     0.000000000  0.000000000  0.143817137

  length of vectors
     8.250148166  8.250148166  6.953274261     0.121209944  0.121209944  0.143817137


 
 k-points in units of 2pi/SCALE and weight: automatic KPOINTS                       
   0.00000000  0.00000000  0.00000000       0.007
   0.02424199  0.00000000  0.00000000       0.027
   0.04848398  0.00000000  0.00000000       0.027
   0.02424199  0.02424199  0.00000000       0.027
   0.04848398  0.02424199  0.00000000       0.053
   0.04848398  0.04848398  0.00000000       0.027
   0.00000000  0.00000000  0.02396952       0.013
   0.02424199  0.00000000  0.02396952       0.053
   0.04848398  0.00000000  0.02396952       0.053
   0.02424199  0.02424199  0.02396952       0.053
   0.04848398  0.02424199  0.02396952       0.107
   0.04848398  0.04848398  0.02396952       0.053
   0.00000000  0.00000000  0.04793905       0.013
   0.02424199  0.00000000  0.04793905       0.053
   0.04848398  0.00000000  0.04793905       0.053
   0.02424199  0.02424199  0.04793905       0.053
   0.04848398  0.02424199  0.04793905       0.107
   0.04848398  0.04848398  0.04793905       0.053
   0.00000000  0.00000000  0.07190857       0.007
   0.02424199  0.00000000  0.07190857       0.027
   0.04848398  0.00000000  0.07190857       0.027
   0.02424199  0.02424199  0.07190857       0.027
   0.04848398  0.02424199  0.07190857       0.053
   0.04848398  0.04848398  0.07190857       0.027
 
 k-points in reciprocal lattice and weights: automatic KPOINTS                       
   0.00000000  0.00000000  0.00000000       0.007
   0.20000000  0.00000000  0.00000000       0.027
   0.40000000  0.00000000  0.00000000       0.027
   0.20000000  0.20000000  0.00000000       0.027
   0.40000000  0.20000000  0.00000000       0.053
   0.40000000  0.40000000  0.00000000       0.027
   0.00000000  0.00000000  0.16666667       0.013
   0.20000000  0.00000000  0.16666667       0.053
   0.40000000  0.00000000  0.16666667       0.053
   0.20000000  0.20000000  0.16666667       0.053
   0.40000000  0.20000000  0.16666667       0.107
   0.40000000  0.40000000  0.16666667       0.053
   0.00000000  0.00000000  0.33333333       0.013
   0.20000000  0.00000000  0.33333333       0.053
   0.40000000  0.00000000  0.33333333       0.053
   0.20000000  0.20000000  0.33333333       0.053
   0.40000000  0.20000000  0.33333333       0.107
   0.40000000  0.40000000  0.33333333       0.053
   0.00000000  0.00000000  0.50000000       0.007
   0.20000000  0.00000000  0.50000000       0.027
   0.40000000  0.00000000  0.50000000       0.027
   0.20000000  0.20000000  0.50000000       0.027
   0.40000000  0.20000000  0.50000000       0.053
   0.40000000  0.40000000  0.50000000       0.027
 
 position of ions in fractional coordinates (direct lattice) 
   0.00000000  0.00000000  0.00000000
   0.00000000  0.00000000  0.50000000
   0.00000000  0.33333333  0.00000000
   0.00000000  0.33333333  0.50000000
   0.00000000  0.66666667  0.00000000
   0.00000000  0.66666667  0.50000000
   0.33333333  0.00000000  0.00000000
   0.33333333  0.00000000  0.50000000
   0.33333333  0.33333333  0.00000000
   0.33333333  0.33333333  0.50000000
   0.33333333  0.66666667  0.00000000
   0.33333333  0.66666667  0.50000000
   0.66666667  0.00000000  0.00000000
   0.66666667  0.00000000  0.50000000
   0.66666667  0.33333333  0.00000000
   0.66666667  0.33333333  0.50000000
   0.66666667  0.66666667  0.00000000
   0.66666667  0.66666667  0.50000000
   0.16666667  0.16666667  0.25000000
   0.16666667  0.16666667  0.75000000
   0.16666667  0.50000000  0.25000000
   0.16666667  0.50000000  0.75000000
   0.16666667  0.83333333  0.25000000
   0.16666667  0.83333333  0.75000000
   0.50000000  0.16666667  0.25000000
   0.50000000  0.16666667  0.75000000
   0.50000000  0.50000000  0.25000000
   0.50000000  0.50000000  0.75000000
   0.50000000  0.83333333  0.25000000
   0.50000000  0.83333333  0.75000000
   0.83333333  0.16666667  0.25000000
   0.83333333  0.16666667  0.75000000
   0.83333333  0.50000000  0.25000000
   0.83333333  0.50000000  0.75000000
   0.83333333  0.83333333  0.25000000
   0.83333333  0.83333333  0.75000000
 
 position of ions in cartesian coordinates  (Angst):
   0.00000000  0.00000000  0.00000000
   0.00000000  0.00000000  3.47663713
   0.00000000  2.75004939  0.00000000
   0.00000000  2.75004939  3.47663713
   0.00000000  5.50009878  0.00000000
   0.00000000  5.50009878  3.47663713
   2.75004939  0.00000000  0.00000000
   2.75004939  0.00000000  3.47663713
   2.75004939  2.75004939  0.00000000
   2.75004939  2.75004939  3.47663713
   2.75004939  5.50009878  0.00000000
   2.75004939  5.50009878  3.47663713
   5.50009878  0.00000000  0.00000000
   5.50009878  0.00000000  3.47663713
   5.50009878  2.75004939  0.00000000
   5.50009878  2.75004939  3.47663713
   5.50009878  5.50009878  0.00000000
   5.50009878  5.50009878  3.47663713
   1.37502469  1.37502469  1.73831857
   1.37502469  1.37502469  5.21495570
   1.37502469  4.12507408  1.73831857
   1.37502469  4.12507408  5.21495570
   1.37502469  6.87512347  1.73831857
   1.37502469  6.87512347  5.21495570
   4.12507408  1.37502469  1.73831857
   4.12507408  1.37502469  5.21495570
   4.12507408  4.12507408  1.73831857
   4.12507408  4.12507408  5.21495570
   4.12507408  6.87512347  1.73831857
   4.12507408  6.87512347  5.21495570
   6.87512347  1.37502469  1.73831857
   6.87512347  1.37502469  5.21495570
   6.87512347  4.12507408  1.73831857
   6.87512347  4.12507408  5.21495570
   6.87512347  6.87512347  1.73831857
   6.87512347  6.87512347  5.21495570
 


--------------------------------------------------------------------------------------------------------


 k-point  1 :   0.0000 0.0000 0.0000  plane waves:    8799
 k-point  2 :   0.2000 0.0000 0.0000  plane waves:    8753
 k-point  3 :   0.4000 0.0000 0.0000  plane waves:    8757
 k-point  4 :   0.2000 0.2000 0.0000  plane waves:    8767
 k-point  5 :   0.4000 0.2000 0.0000  plane waves:    8761
 k-point  6 :   0.4000 0.4000 0.0000  plane waves:    8731
 k-point  7 :   0.0000 0.0000 0.1667  plane waves:    8763
 k-point  8 :   0.2000 0.0000 0.1667  plane waves:    8771
 k-point  9 :   0.4000 0.0000 0.1667  plane waves:    8747
 k-point 10 :   0.2000 0.2000 0.1667  plane waves:    8764
 k-point 11 :   0.4000 0.2000 0.1667  plane waves:    8768
 k-point 12 :   0.4000 0.4000 0.1667  plane waves:    8740
 k-point 13 :   0.0000 0.0000 0.3333  plane waves:    8743
 k-point 14 :   0.2000 0.0000 0.3333  plane waves:    8736
 k-point 15 :   0.4000 0.0000 0.3333  plane waves:    8753
 k-point 16 :   0.2000 0.2000 0.3333  plane waves:    8753
 k-point 17 :   0.4000 0.2000 0.3333  plane waves:    8743
 k-point 18 :   0.4000 0.4000 0.3333  plane waves:    8755
 k-point 19 :   0.0000 0.0000 0.5000  plane waves:    8742
 k-point 20 :   0.2000 0.0000 0.5000  plane waves:    8756
 k-point 21 :   0.4000 0.0000 0.5000  plane waves:    8744
 k-point 22 :   0.2000 0.2000 0.5000  plane waves:    8762
 k-point 23 :   0.4000 0.2000 0.5000  plane waves:    8732
 k-point 24 :   0.4000 0.4000 0.5000  plane waves:    8736

 maximum and minimum number of plane-waves per node :      2206     2165

 maximum number of plane-waves:      8799
 maximum index in each direction: 
   IXMAX=   13   IYMAX=   13   IZMAX=   11
   IXMIN=  -13   IYMIN=  -13   IZMIN=  -11


 parallel 3D FFT for wavefunctions:
    minimum data exchange during FFTs selected (reduces bandwidth)
 parallel 3D FFT for charge:
    minimum data exchange during FFTs selected (reduces bandwidth)


 total amount of memory used by VASP MPI-rank0   378257. kBytes
=======================================================================

   base      :      30000. kBytes
   nonl-proj :      16518. kBytes
   fftplans  :      21726. kBytes
   grid      :      14732. kBytes
   one-center:        279. kBytes
   wavefun   :     295002. kBytes
 
     INWAV:  cpu time    0.0000: real time    0.0000
 Broyden mixing: mesh for mixing (old mesh)
   NGX = 27   NGY = 27   NGZ = 23
  (NGX  =108   NGY  =108   NGZ  = 96)
  gives a total of  16767 points

 initial charge density was supplied:
 charge density of overlapping atoms calculated
 number of electron     180.0000000 magnetization       0.0000000
 keeping initial charge density in first step


--------------------------------------------------------------------------------------------------------


 Maximum index for augmentation-charges        11261 (set IRDMAX)


--------------------------------------------------------------------------------------------------------


 First call to EWALD:  gamma=   0.227
 Maximum number of real-space cells 3x 3x 3
 Maximum number of reciprocal cells 3x 3x 3

    FEWALD:  cpu time    0.0252: real time    0.0252


--------------------------------------- Iteration      1(   1)  ---------------------------------------


    POTLOK:  cpu time    0.2509: real time    0.2515
    SETDIJ:  cpu time    0.3108: real time    0.3287
    TRIAL :  cpu time    9.1024: real time    9.1285
    CORREC:  cpu time    0.0031: real time    0.0031
    --------------------------------------------
      LOOP:  cpu time    9.7638: real time    9.8187

 eigenvalue-minimisations  : 10560
 total energy-change (2. order) : 0.1357790E+04  (-0.5854062E+04)
 number of electron     180.0000000 magnetization      -0.0000000
 augmentation part      180.0000000 magnetization      -0.0000000

 Free energy of the ion-electron system (eV)
  ---------------------------------------------------
  alpha Z        PSCENC =       532.25742704
  Ewald energy   TEWEN  =     -8601.05107233
  -Hartree energ DENC   =     -1903.73857242
  -exchange      EXHF   =         0.00000000
  -V(xc)+E(xc)   XCENC  =      -663.96315698
  PAW double counting   =      8494.55058411    -7650.81563588
  entropy T*S    EENTRO =        -0.00380458
  eigenvalues    EBANDS =      2685.43811954
  atomic energy  EATOM  =      8465.11600846
  ---------------------------------------------------
  free energy    TOTEN  =      1357.78989696 eV

  energy without entropy =     1357.79370155  energy(sigma->0) =     1357.79116516


--------------------------------------------------------------------------------------------------------




--------------------------------------- Iteration      1(   2)  ---------------------------------------


    TRIAL :  cpu time    8.3025: real time    9.1370
    CORREC:  cpu time    0.0039: real time    0.0039
    --------------------------------------------
      LOOP:  cpu time    8.3089: real time    9.1437

 eigenvalue-minimisations  : 10560
 total energy-change (2. order) :-0.1411193E+04  (-0.1381485E+04)
 number of electron     180.0000000 magnetization      -0.0000000
 augmentation part      180.0000000 magnetization      -0.0000000

 Free energy of the ion-electron system (eV)
  ---------------------------------------------------
  alpha Z        PSCENC =       532.25742704
  Ewald energy   TEWEN  =     -8601.05107233
  -Hartree energ DENC   =     -1903.73857242
  -exchange      EXHF   =         0.00000000
  -V(xc)+E(xc)   XCENC  =      -663.96315698
  PAW double counting   =      8494.55058411    -7650.81563588
  entropy T*S    EENTRO =        -0.00163052
  eigenvalues    EBANDS =      1274.24324590
  atomic energy  EATOM  =      8465.11600846
  ---------------------------------------------------
  free energy    TOTEN  =       -53.40280261 eV

  energy without entropy =      -53.40117209  energy(sigma->0) =      -53.40225911


--------------------------------------------------------------------------------------------------------




--------------------------------------- Iteration      1(   3)  ---------------------------------------


    TRIAL :  cpu time   11.7206: real time   11.7839
    CORREC:  cpu time    0.0044: real time    0.0044
    --------------------------------------------
      LOOP:  cpu time   11.7258: real time   11.7910

 eigenvalue-minimisations  : 16200
 total energy-change (2. order) :-0.1834827E+03  (-0.1659116E+03)
 number of electron     180.0000000 magnetization      -0.0000000
 augmentation part      180.0000000 magnetization      -0.0000000

 Free energy of the ion-electron system (eV)
  ---------------------------------------------------
  alpha Z        PSCENC =       532.25742704
  Ewald energy   TEWEN  =     -8601.05107233
  -Hartree energ DENC   =     -1903.73857242
  -exchange      EXHF   =         0.00000000
  -V(xc)+E(xc)   XCENC  =      -663.96315698
  PAW double counting   =      8494.55058411    -7650.81563588
  entropy T*S    EENTRO =         0.02026833
  eigenvalues    EBANDS =      1090.73863594
  atomic energy  EATOM  =      8465.11600846
  ---------------------------------------------------
  free energy    TOTEN  =      -236.88551373 eV

  energy without entropy =     -236.90578205  energy(sigma->0) =     -236.89226984


--------------------------------------------------------------------------------------------------------




--------------------------------------- Iteration      1(   4)  ---------------------------------------


    TRIAL :  cpu time   12.3189: real time   12.4187
    CORREC:  cpu time    0.0047: real time    0.0056
    --------------------------------------------
      LOOP:  cpu time   12.3248: real time   12.4273

 eigenvalue-minimisations  : 17224
 total energy-change (2. order) :-0.2977909E+02  (-0.2688285E+02)
 number of electron     180.0000000 magnetization      -0.0000000
 augmentation part      180.0000000 magnetization      -0.0000000

 Free energy of the ion-electron system (eV)
  ---------------------------------------------------
  alpha Z        PSCENC =       532.25742704
  Ewald energy   TEWEN  =     -8601.05107233
  -Hartree energ DENC   =     -1903.73857242
  -exchange      EXHF   =         0.00000000
  -V(xc)+E(xc)   XCENC  =      -663.96315698
  PAW double counting   =      8494.55058411    -7650.81563588
  entropy T*S    EENTRO =         0.05421092
  eigenvalues    EBANDS =      1060.92559860
  atomic energy  EATOM  =      8465.11600846
  ---------------------------------------------------
  free energy    TOTEN  =      -266.66460848 eV

  energy without entropy =     -266.71881939  energy(sigma->0) =     -266.68267878


--------------------------------------------------------------------------------------------------------




--------------------------------------- Iteration      1(   5)  ---------------------------------------


    TRIAL :  cpu time   13.0498: real time   13.1333
    CORREC:  cpu time    0.0047: real time    0.0048
    --------------------------------------------
      LOOP:  cpu time   13.0556: real time   13.1410

 eigenvalue-minimisations  : 17608
 total energy-change (2. order) :-0.3093937E+01  (-0.2983150E+01)
 number of electron     180.0000000 magnetization      -0.0000000
 augmentation part      180.0000000 magnetization      -0.0000000

 Free energy of the ion-electron system (eV)
  ---------------------------------------------------
  alpha Z        PSCENC =       532.25742704
  Ewald energy   TEWEN  =     -8601.05107233
  -Hartree energ DENC   =     -1903.73857242
  -exchange      EXHF   =         0.00000000
  -V(xc)+E(xc)   XCENC  =      -663.96315698
  PAW double counting   =      8494.55058411    -7650.81563588
  entropy T*S    EENTRO =         0.06237158
  eigenvalues    EBANDS =      1057.82350106
  atomic energy  EATOM  =      8465.11600846
  ---------------------------------------------------
  free energy    TOTEN  =      -269.75854537 eV

  energy without entropy =     -269.82091694  energy(sigma->0) =     -269.77933589


--------------------------------------------------------------------------------------------------------




--------------------------------------- Iteration      1(   6)  ---------------------------------------


    TRIAL :  cpu time   13.0979: real time   13.1601
    CORREC:  cpu time    0.0048: real time    0.0049
    --------------------------------------------
      LOOP:  cpu time   13.1057: real time   13.1680

 eigenvalue-minimisations  : 17560
 total energy-change (2. order) :-0.2474862E+00  (-0.2426492E+00)
 number of electron     180.0000000 magnetization      -0.0000000
 augmentation part      180.0000000 magnetization      -0.0000000

 Free energy of the ion-electron system (eV)
  ---------------------------------------------------
  alpha Z        PSCENC =       532.25742704
  Ewald energy   TEWEN  =     -8601.05107233
  -Hartree energ DENC   =     -1903.73857242
  -exchange      EXHF   =         0.00000000
  -V(xc)+E(xc)   XCENC  =      -663.96315698
  PAW double counting   =      8494.55058411    -7650.81563588
  entropy T*S    EENTRO =         0.06466791
  eigenvalues    EBANDS =      1057.57371854
  atomic energy  EATOM  =      8465.11600846
  ---------------------------------------------------
  free energy    TOTEN  =      -270.00603154 eV

  energy without entropy =     -270.07069946  energy(sigma->0) =     -270.02758751


--------------------------------------------------------------------------------------------------------




--------------------------------------- Iteration      1(   7)  ---------------------------------------


    TRIAL :  cpu time   12.5693: real time   13.3945
    CORREC:  cpu time    0.0048: real time    0.0049
    --------------------------------------------
      LOOP:  cpu time   12.5750: real time   13.4023

 eigenvalue-minimisations  : 17856
 total energy-change (2. order) :-0.2647858E-01  (-0.2621056E-01)
 number of electron     180.0000000 magnetization      -0.0000000
 augmentation part      180.0000000 magnetization      -0.0000000

 Free energy of the ion-electron system (eV)
  ---------------------------------------------------
  alpha Z        PSCENC =       532.25742704
  Ewald energy   TEWEN  =     -8601.05107233
  -Hartree energ DENC   =     -1903.73857242
  -exchange      EXHF   =         0.00000000
  -V(xc)+E(xc)   XCENC  =      -663.96315698
  PAW double counting   =      8494.55058411    -7650.81563588
  entropy T*S    EENTRO =         0.06524861
  eigenvalues    EBANDS =      1057.54665927
  atomic energy  EATOM  =      8465.11600846
  ---------------------------------------------------
  free energy    TOTEN  =      -270.03251012 eV

  energy without entropy =     -270.09775873  energy(sigma->0) =     -270.05425966


--------------------------------------------------------------------------------------------------------




--------------------------------------- Iteration      1(   8)  ---------------------------------------


    TRIAL :  cpu time   12.3381: real time   12.3911
    CORREC:  cpu time    0.0051: real time    0.0064
    CHARGE:  cpu time    0.8292: real time    0.8294
    --------------------------------------------
      LOOP:  cpu time   13.1757: real time   13.2303

 eigenvalue-minimisations  : 17264
 total energy-change (2. order) :-0.2213513E-02  (-0.2198352E-02)
 number of electron     179.9999997 magnetization       0.0000000
 augmentation part       42.8693252 magnetization       0.0000000

 Free energy of the ion-electron system (eV)
  ---------------------------------------------------
  alpha Z        PSCENC =       532.25742704
  Ewald energy   TEWEN  =     -8601.05107233
  -Hartree energ DENC   =     -1903.73857242
  -exchange      EXHF   =         0.00000000
  -V(xc)+E(xc)   XCENC  =      -663.96315698
  PAW double counting   =      8494.55058411    -7650.81563588
  entropy T*S    EENTRO =         0.06539410
  eigenvalues    EBANDS =      1057.54430026
  atomic energy  EATOM  =      8465.11600846
  ---------------------------------------------------
  free energy    TOTEN  =      -270.03472364 eV

  energy without entropy =     -270.10011774  energy(sigma->0) =     -270.05652167


--------------------------------------------------------------------------------------------------------




--------------------------------------- Iteration      1(   9)  ---------------------------------------


    POTLOK:  cpu time    0.2530: real time    0.2532
    SETDIJ:  cpu time    0.3204: real time    0.3205
    TRIAL :  cpu time    4.1812: real time    4.2505
    CORREC:  cpu time    2.1866: real time    2.1985
    CHARGE:  cpu time    0.8284: real time    0.8880
    --------------------------------------------
      LOOP:  cpu time    7.7740: real time    7.9158

 eigenvalue-minimisations  :     0
 total energy-change (2. order) : 0.1973997E+03  (-0.1458990E+03)
 number of electron     179.9999996 magnetization      -0.0000000
 augmentation part       55.5336592 magnetization      -0.0000000

 Free energy of the ion-electron system (eV)
  ---------------------------------------------------
  alpha Z        PSCENC =       532.25742704
  Ewald energy   TEWEN  =     -8601.05107233
  -Hartree energ DENC   =      -850.23778098
  -exchange      EXHF   =         0.00000000
  -V(xc)+E(xc)   XCENC  =      -693.94791688
  PAW double counting   =     12787.46403672   -11841.36913996
  entropy T*S    EENTRO =         0.03816340
  eigenvalues    EBANDS =       129.06805014
  atomic energy  EATOM  =      8465.11600846
  ---------------------------------------------------
  free energy    TOTEN  =       -72.63499370 eV

  energy without entropy =      -72.67315709  energy(sigma->0) =      -72.64771483


--------------------------------------------------------------------------------------------------------




--------------------------------------- Iteration      1(  10)  ---------------------------------------


    POTLOK:  cpu time    0.2498: real time    0.2498
    SETDIJ:  cpu time    0.3203: real time    0.3202
    TRIAL :  cpu time    5.0625: real time    5.0752
    CORREC:  cpu time    2.2709: real time    2.2820
    CHARGE:  cpu time    0.8253: real time    0.8253
    --------------------------------------------
      LOOP:  cpu time    8.7313: real time    8.7558

 eigenvalue-minimisations  :     0
 total energy-change (2. order) :-0.1423568E+03  (-0.9015596E+01)
 number of electron     179.9999996 magnetization       0.0000000
 augmentation part       58.8625623 magnetization       0.0000000

 Free energy of the ion-electron system (eV)
  ---------------------------------------------------
  alpha Z        PSCENC =       532.25742704
  Ewald energy   TEWEN  =     -8601.05107233
  -Hartree energ DENC   =     -1432.01510725
  -exchange      EXHF   =         0.00000000
  -V(xc)+E(xc)   XCENC  =      -673.57672839
  PAW double counting   =     13879.54844392   -13059.57995454
  entropy T*S    EENTRO =         0.04443906
  eigenvalues    EBANDS =       674.27106857
  atomic energy  EATOM  =      8465.11600846
  ---------------------------------------------------
  free energy    TOTEN  =      -214.99175114 eV

  energy without entropy =     -215.03619020  energy(sigma->0) =     -215.00656416


--------------------------------------------------------------------------------------------------------




--------------------------------------- Iteration      1(  11)  ---------------------------------------


    POTLOK:  cpu time    0.2500: real time    0.2500
    SETDIJ:  cpu time    0.3433: real time    0.3435
    TRIAL :  cpu time    4.1762: real time    4.2051
    CORREC:  cpu time    2.1806: real time    2.1931
    CHARGE:  cpu time    0.8170: real time    0.8243
    --------------------------------------------
      LOOP:  cpu time    7.7730: real time    7.8238

 eigenvalue-minimisations  :     0
 total energy-change (2. order) :-0.8873503E+01  (-0.1155795E+02)
 number of electron     179.9999996 magnetization      -0.0000000
 augmentation part       58.3332360 magnetization      -0.0000000

 Free energy of the ion-electron system (eV)
  ---------------------------------------------------
  alpha Z        PSCENC =       532.25742704
  Ewald energy   TEWEN  =     -8601.05107233
  -Hartree energ DENC   =     -1642.02541936
  -exchange      EXHF   =         0.00000000
  -V(xc)+E(xc)   XCENC  =      -665.94653399
  PAW double counting   =     14620.24466001   -13831.12875322
  entropy T*S    EENTRO =         0.05722718
  eigenvalues    EBANDS =       898.62398995
  atomic energy  EATOM  =      8465.11600846
  ---------------------------------------------------
  free energy    TOTEN  =      -223.86525439 eV

  energy without entropy =     -223.92248157  energy(sigma->0) =     -223.88433012


--------------------------------------------------------------------------------------------------------




--------------------------------------- Iteration      1(  12)  ---------------------------------------


    POTLOK:  cpu time    0.2455: real time    1.0254
    SETDIJ:  cpu time    0.3143: real time    0.3144
    TRIAL :  cpu time    4.1447: real time    4.1468
    CORREC:  cpu time    2.2014: real time    2.2144
    CHARGE:  cpu time    0.8395: real time    0.8398
    --------------------------------------------
      LOOP:  cpu time    7.7499: real time    8.5513

 eigenvalue-minimisations  :     0
 total energy-change (2. order) :-0.1154548E+02  (-0.1104931E+01)
 number of electron     179.9999996 magnetization      -0.0000000
 augmentation part       57.3000658 magnetization      -0.0000000

 Free energy of the ion-electron system (eV)
  ---------------------------------------------------
  alpha Z        PSCENC =       532.25742704
  Ewald energy   TEWEN  =     -8601.05107233
  -Hartree energ DENC   =     -1704.14566540
  -exchange      EXHF   =         0.00000000
  -V(xc)+E(xc)   XCENC  =      -664.56833988
  PAW double counting   =     14325.38119280   -13506.98528328
  entropy T*S    EENTRO =         0.05735711
  eigenvalues    EBANDS =       918.52777016
  atomic energy  EATOM  =      8465.11600846
  ---------------------------------------------------
  free energy    TOTEN  =      -235.41073526 eV

  energy without entropy =     -235.46809237  energy(sigma->0) =     -235.42985430


--------------------------------------------------------------------------------------------------------




--------------------------------------- Iteration      1(  13)  ---------------------------------------


    POTLOK:  cpu time    0.2487: real time    0.2487
    SETDIJ:  cpu time    0.3418: real time    0.3418
    TRIAL :  cpu time    4.1495: real time    4.1706
    CORREC:  cpu time    2.5116: real time    2.5987
    CHARGE:  cpu time    0.8571: real time    1.5001
    --------------------------------------------
      LOOP:  cpu time    8.1114: real time    8.8633

 eigenvalue-minimisations  :     0
 total energy-change (2. order) :-0.1097832E+01  (-0.1096547E+01)
 number of electron     179.9999996 magnetization      -0.0000000
 augmentation part       57.4701789 magnetization      -0.0000000

 Free energy of the ion-electron system (eV)
  ---------------------------------------------------
  alpha Z        PSCENC =       532.25742704
  Ewald energy   TEWEN  =     -8601.05107233
  -Hartree energ DENC   =     -1651.72092605
  -exchange      EXHF   =         0.00000000
  -V(xc)+E(xc)   XCENC  =      -666.54677445
  PAW double counting   =     13973.37376820   -13139.74683316
  entropy T*S    EENTRO =         0.05682682
  eigenvalues    EBANDS =       851.75247784
  atomic energy  EATOM  =      8465.11600846
  ---------------------------------------------------
  free energy    TOTEN  =      -236.50856733 eV

  energy without entropy =     -236.56539415  energy(sigma->0) =     -236.52750960


--------------------------------------------------------------------------------------------------------




--------------------------------------- Iteration      1(  14)  ---------------------------------------


    POTLOK:  cpu time    0.2496: real time    0.2496
    SETDIJ:  cpu time    0.3530: real time    0.3533
    TRIAL :  cpu time    4.2722: real time    4.2785
    CORREC:  cpu time    2.1987: real time    2.1996
    CHARGE:  cpu time    0.8184: real time    0.8258
    --------------------------------------------
      LOOP:  cpu time    7.8963: real time    7.9113

 eigenvalue-minimisations  :     0
 total energy-change (2. order) :-0.1097626E+01  (-0.2737381E+00)
 number of electron     179.9999996 magnetization       0.0000000
 augmentation part       58.0838119 magnetization       0.0000000

 Free energy of the ion-electron system (eV)
  ---------------------------------------------------
  alpha Z        PSCENC =       532.25742704
  Ewald energy   TEWEN  =     -8601.05107233
  -Hartree energ DENC   =     -1645.21909544
  -exchange      EXHF   =         0.00000000
  -V(xc)+E(xc)   XCENC  =      -666.84079409
  PAW double counting   =     13218.95855053   -12382.22363826
  entropy T*S    EENTRO =         0.05565421
  eigenvalues    EBANDS =       841.33959432
  atomic energy  EATOM  =      8465.11600846
  ---------------------------------------------------
  free energy    TOTEN  =      -237.60619296 eV

  energy without entropy =     -237.66184716  energy(sigma->0) =     -237.62474436


--------------------------------------------------------------------------------------------------------




--------------------------------------- Iteration      1(  15)  ---------------------------------------


    POTLOK:  cpu time    0.2494: real time    0.2494
    SETDIJ:  cpu time    0.3081: real time    0.3273
    TRIAL :  cpu time    4.1585: real time    4.1711
    CORREC:  cpu time    2.2263: real time    2.2394
    CHARGE:  cpu time    0.8650: real time    0.8753
    --------------------------------------------
      LOOP:  cpu time    7.8100: real time    7.8657

 eigenvalue-minimisations  :     0
 total energy-change (2. order) :-0.2746588E+00  (-0.2631184E+00)
 number of electron     179.9999996 magnetization      -0.0000000
 augmentation part       58.2042606 magnetization      -0.0000000

 Free energy of the ion-electron system (eV)
  ---------------------------------------------------
  alpha Z        PSCENC =       532.25742704
  Ewald energy   TEWEN  =     -8601.05107233
  -Hartree energ DENC   =     -1672.68226080
  -exchange      EXHF   =         0.00000000
  -V(xc)+E(xc)   XCENC  =      -665.78075727
  PAW double counting   =     13093.20846218   -12262.38012921
  entropy T*S    EENTRO =         0.05501982
  eigenvalues    EBANDS =       873.37581595
  atomic energy  EATOM  =      8465.11600846
  ---------------------------------------------------
  free energy    TOTEN  =      -237.88085178 eV

  energy without entropy =     -237.93587159  energy(sigma->0) =     -237.89919172


--------------------------------------------------------------------------------------------------------




--------------------------------------- Iteration      1(  16)  ---------------------------------------


    POTLOK:  cpu time    0.2489: real time    0.2489
    SETDIJ:  cpu time    0.3162: real time    0.3162
    TRIAL :  cpu time    4.1893: real time    4.1916
    CORREC:  cpu time    2.2077: real time    2.2735
    CHARGE:  cpu time    0.8154: real time    0.8255
    --------------------------------------------
      LOOP:  cpu time    7.7978: real time    7.8764

 eigenvalue-minimisations  :     0
 total energy-change (2. order) :-0.2630880E+00  (-0.7442751E-01)
 number of electron     179.9999996 magnetization       0.0000000
 augmentation part       57.9154810 magnetization       0.0000000

 Free energy of the ion-electron system (eV)
  ---------------------------------------------------
  alpha Z        PSCENC =       532.25742704
  Ewald energy   TEWEN  =     -8601.05107233
  -Hartree energ DENC   =     -1675.39335316
  -exchange      EXHF   =         0.00000000
  -V(xc)+E(xc)   XCENC  =      -665.38988567
  PAW double counting   =     13007.90272103   -12178.27805612
  entropy T*S    EENTRO =         0.05585479
  eigenvalues    EBANDS =       876.63725120
  atomic energy  EATOM  =      8465.11600846
  ---------------------------------------------------
  free energy    TOTEN  =      -238.14393975 eV

  energy without entropy =     -238.19979454  energy(sigma->0) =     -238.16255802


--------------------------------------------------------------------------------------------------------




--------------------------------------- Iteration      1(  17)  ---------------------------------------


    POTLOK:  cpu time    0.2491: real time    0.2491
    SETDIJ:  cpu time    0.3397: real time    0.3398
    TRIAL :  cpu time    4.0861: real time    4.1464
    CORREC:  cpu time    2.5669: real time    2.5680
    CHARGE:  cpu time    1.4543: real time    1.4625
    --------------------------------------------
      LOOP:  cpu time    8.7037: real time    8.7738

 eigenvalue-minimisations  :     0
 total energy-change (2. order) :-0.7436946E-01  (-0.9298638E-01)
 number of electron     179.9999996 magnetization       0.0000000
 augmentation part       57.7921525 magnetization       0.0000000

 Free energy of the ion-electron system (eV)
  ---------------------------------------------------
  alpha Z        PSCENC =       532.25742704
  Ewald energy   TEWEN  =     -8601.05107233
  -Hartree energ DENC   =     -1660.45404926
  -exchange      EXHF   =         0.00000000
  -V(xc)+E(xc)   XCENC  =      -665.82463813
  PAW double counting   =     12975.18324557   -12142.48114636
  entropy T*S    EENTRO =         0.05866529
  eigenvalues    EBANDS =       858.98006101
  atomic energy  EATOM  =      8465.11600846
  ---------------------------------------------------
  free energy    TOTEN  =      -238.21830921 eV

  energy without entropy =     -238.27697450  energy(sigma->0) =     -238.23786431


--------------------------------------------------------------------------------------------------------




--------------------------------------- Iteration      1(  18)  ---------------------------------------


    POTLOK:  cpu time    0.2493: real time    0.2493
    SETDIJ:  cpu time    0.3194: real time    0.3198
    TRIAL :  cpu time    4.1503: real time    4.1618
    CORREC:  cpu time    2.2395: real time    2.2546
    CHARGE:  cpu time    0.8252: real time    0.8252
    --------------------------------------------
      LOOP:  cpu time    7.7875: real time    7.8160

 eigenvalue-minimisations  :     0
 total energy-change (2. order) :-0.9299591E-01  (-0.2565907E-01)
 number of electron     179.9999996 magnetization       0.0000000
 augmentation part       57.9468428 magnetization       0.0000000

 Free energy of the ion-electron system (eV)
  ---------------------------------------------------
  alpha Z        PSCENC =       532.25742704
  Ewald energy   TEWEN  =     -8601.05107233
  -Hartree energ DENC   =     -1658.00626783
  -exchange      EXHF   =         0.00000000
  -V(xc)+E(xc)   XCENC  =      -665.78908918
  PAW double counting   =     12976.00112627   -12142.58951328
  entropy T*S    EENTRO =         0.05980377
  eigenvalues    EBANDS =       855.69141045
  atomic energy  EATOM  =      8465.11600846
  ---------------------------------------------------
  free energy    TOTEN  =      -238.31130512 eV

  energy without entropy =     -238.37110888  energy(sigma->0) =     -238.33123970


--------------------------------------------------------------------------------------------------------




--------------------------------------- Iteration      1(  19)  ---------------------------------------


    POTLOK:  cpu time    0.2491: real time    0.2492
    SETDIJ:  cpu time    0.3119: real time    0.3220
    TRIAL :  cpu time    4.8510: real time    4.8721
    CORREC:  cpu time    2.1944: real time    2.1953
    CHARGE:  cpu time    0.8432: real time    0.8432
    --------------------------------------------
      LOOP:  cpu time    8.4650: real time    8.4980

 eigenvalue-minimisations  :     0
 total energy-change (2. order) :-0.2570782E-01  (-0.2297175E-01)
 number of electron     179.9999996 magnetization      -0.0000000
 augmentation part       58.0248660 magnetization      -0.0000000

 Free energy of the ion-electron system (eV)
  ---------------------------------------------------
  alpha Z        PSCENC =       532.25742704
  Ewald energy   TEWEN  =     -8601.05107233
  -Hartree energ DENC   =     -1667.33080713
  -exchange      EXHF   =         0.00000000
  -V(xc)+E(xc)   XCENC  =      -665.42132235
  PAW double counting   =     12993.98898894   -12162.48435224
  entropy T*S    EENTRO =         0.06212609
  eigenvalues    EBANDS =       866.52831290
  atomic energy  EATOM  =      8465.11600846
  ---------------------------------------------------
  free energy    TOTEN  =      -238.33701294 eV

  energy without entropy =     -238.39913902  energy(sigma->0) =     -238.35772163


--------------------------------------------------------------------------------------------------------




--------------------------------------- Iteration      1(  20)  ---------------------------------------


    POTLOK:  cpu time    0.2468: real time    0.2614
    SETDIJ:  cpu time    0.3161: real time    0.3161
    TRIAL :  cpu time    4.1456: real time    4.1489
    CORREC:  cpu time    2.1794: real time    2.1802
    CHARGE:  cpu time    0.8702: real time    0.8878
    --------------------------------------------
      LOOP:  cpu time    7.7657: real time    7.8029

 eigenvalue-minimisations  :     0
 total energy-change (2. order) :-0.2288468E-01  (-0.1293274E-01)
 number of electron     179.9999996 magnetization       0.0000000
 augmentation part       57.9291014 magnetization       0.0000000

 Free energy of the ion-electron system (eV)
  ---------------------------------------------------
  alpha Z        PSCENC =       532.25742704
  Ewald energy   TEWEN  =     -8601.05107233
  -Hartree energ DENC   =     -1671.60729327
  -exchange      EXHF   =         0.00000000
  -V(xc)+E(xc)   XCENC  =      -665.20699971
  PAW double counting   =     12998.09905720   -12167.40113282
  entropy T*S    EENTRO =         0.06358251
  eigenvalues    EBANDS =       871.37198173
  atomic energy  EATOM  =      8465.11600846
  ---------------------------------------------------
  free energy    TOTEN  =      -238.35989762 eV

  energy without entropy =     -238.42348013  energy(sigma->0) =     -238.38109179


--------------------------------------------------------------------------------------------------------




--------------------------------------- Iteration      1(  21)  ---------------------------------------


    POTLOK:  cpu time    0.2488: real time    0.2488
    SETDIJ:  cpu time    0.3123: real time    0.3527
    TRIAL :  cpu time    4.1170: real time    4.8467
    CORREC:  cpu time    2.2082: real time    2.2101
    CHARGE:  cpu time    0.8451: real time    0.8460
    --------------------------------------------
      LOOP:  cpu time    7.7532: real time    8.5261

 eigenvalue-minimisations  :     0
 total energy-change (2. order) :-0.1293717E-01  (-0.1238582E-01)
 number of electron     179.9999996 magnetization       0.0000000
 augmentation part       57.8949056 magnetization       0.0000000

 Free energy of the ion-electron system (eV)
  ---------------------------------------------------
  alpha Z        PSCENC =       532.25742704
  Ewald energy   TEWEN  =     -8601.05107233
  -Hartree energ DENC   =     -1666.27924052
  -exchange      EXHF   =         0.00000000
  -V(xc)+E(xc)   XCENC  =      -665.33372321
  PAW double counting   =     12988.21597044   -12156.33314362
  entropy T*S    EENTRO =         0.06491957
  eigenvalues    EBANDS =       864.97135645
  atomic energy  EATOM  =      8465.11600846
  ---------------------------------------------------
  free energy    TOTEN  =      -238.37283479 eV

  energy without entropy =     -238.43775436  energy(sigma->0) =     -238.39447464


--------------------------------------------------------------------------------------------------------




--------------------------------------- Iteration      1(  22)  ---------------------------------------


    POTLOK:  cpu time    0.2489: real time    0.2489
    SETDIJ:  cpu time    0.3194: real time    0.3195
    TRIAL :  cpu time    4.1690: real time    4.2102
    CORREC:  cpu time    2.1790: real time    2.1801
    CHARGE:  cpu time    0.8239: real time    0.8241
    --------------------------------------------
      LOOP:  cpu time    7.7449: real time    7.7883

 eigenvalue-minimisations  :     0
 total energy-change (2. order) :-0.1234497E-01  (-0.4525464E-02)
 number of electron     179.9999996 magnetization       0.0000000
 augmentation part       57.9623115 magnetization       0.0000000

 Free energy of the ion-electron system (eV)
  ---------------------------------------------------
  alpha Z        PSCENC =       532.25742704
  Ewald energy   TEWEN  =     -8601.05107233
  -Hartree energ DENC   =     -1663.65889443
  -exchange      EXHF   =         0.00000000
  -V(xc)+E(xc)   XCENC  =      -665.29584368
  PAW double counting   =     12983.90033013   -12151.49144526
  entropy T*S    EENTRO =         0.06533876
  eigenvalues    EBANDS =       861.77339075
  atomic energy  EATOM  =      8465.11600846
  ---------------------------------------------------
  free energy    TOTEN  =      -238.38517975 eV

  energy without entropy =     -238.45051852  energy(sigma->0) =     -238.40695934


--------------------------------------------------------------------------------------------------------




--------------------------------------- Iteration      1(  23)  ---------------------------------------


    POTLOK:  cpu time    0.2494: real time    0.2494
    SETDIJ:  cpu time    0.3207: real time    0.3207
    TRIAL :  cpu time    4.1476: real time    4.1690
    CORREC:  cpu time    2.2045: real time    2.2052
    CHARGE:  cpu time    0.9088: real time    0.9088
    --------------------------------------------
      LOOP:  cpu time    7.8462: real time    7.8690

 eigenvalue-minimisations  :     0
 total energy-change (2. order) :-0.4539756E-02  (-0.3925935E-02)
 number of electron     179.9999996 magnetization       0.0000000
 augmentation part       57.9972511 magnetization       0.0000000

 Free energy of the ion-electron system (eV)
  ---------------------------------------------------
  alpha Z        PSCENC =       532.25742704
  Ewald energy   TEWEN  =     -8601.05107233
  -Hartree energ DENC   =     -1666.95625971
  -exchange      EXHF   =         0.00000000
  -V(xc)+E(xc)   XCENC  =      -665.12182278
  PAW double counting   =     12989.01536614   -12157.34492698
  entropy T*S    EENTRO =         0.06570355
  eigenvalues    EBANDS =       865.63022189
  atomic energy  EATOM  =      8465.11600846
  ---------------------------------------------------
  free energy    TOTEN  =      -238.38971951 eV

  energy without entropy =     -238.45542306  energy(sigma->0) =     -238.41162070


--------------------------------------------------------------------------------------------------------




--------------------------------------- Iteration      1(  24)  ---------------------------------------


    POTLOK:  cpu time    0.2493: real time    0.2494
    SETDIJ:  cpu time    0.3230: real time    0.3230
    TRIAL :  cpu time    4.0827: real time    4.2034
    CORREC:  cpu time    2.2051: real time    2.2059
    CHARGE:  cpu time    0.8271: real time    0.8272
    --------------------------------------------
      LOOP:  cpu time    7.7062: real time    7.8277

 eigenvalue-minimisations  :     0
 total energy-change (2. order) :-0.3902307E-02  (-0.2724315E-02)
 number of electron     179.9999996 magnetization      -0.0000000
 augmentation part       57.9519213 magnetization      -0.0000000

 Free energy of the ion-electron system (eV)
  ---------------------------------------------------
  alpha Z        PSCENC =       532.25742704
  Ewald energy   TEWEN  =     -8601.05107233
  -Hartree energ DENC   =     -1668.90489902
  -exchange      EXHF   =         0.00000000
  -V(xc)+E(xc)   XCENC  =      -665.00126364
  PAW double counting   =     12989.71584729   -12158.53568333
  entropy T*S    EENTRO =         0.06598063
  eigenvalues    EBANDS =       867.94431017
  atomic energy  EATOM  =      8465.11600846
  ---------------------------------------------------
  free energy    TOTEN  =      -238.39362182 eV

  energy without entropy =     -238.45960245  energy(sigma->0) =     -238.41561536


--------------------------------------------------------------------------------------------------------




--------------------------------------- Iteration      1(  25)  ---------------------------------------


    POTLOK:  cpu time    0.2494: real time    0.2493
    SETDIJ:  cpu time    0.3492: real time    0.3494
    TRIAL :  cpu time    4.8523: real time    4.8722
    CORREC:  cpu time    2.1950: real time    2.1957
    CHARGE:  cpu time    0.8262: real time    0.8261
    --------------------------------------------
      LOOP:  cpu time    8.4777: real time    8.4995

 eigenvalue-minimisations  :     0
 total energy-change (2. order) :-0.2727132E-02  (-0.1550535E-02)
 number of electron     179.9999996 magnetization       0.0000000
 augmentation part       57.9295802 magnetization       0.0000000

 Free energy of the ion-electron system (eV)
  ---------------------------------------------------
  alpha Z        PSCENC =       532.25742704
  Ewald energy   TEWEN  =     -8601.05107233
  -Hartree energ DENC   =     -1666.65744871
  -exchange      EXHF   =         0.00000000
  -V(xc)+E(xc)   XCENC  =      -665.04696926
  PAW double counting   =     12986.40214195   -12154.79986860
  entropy T*S    EENTRO =         0.06616082
  eigenvalues    EBANDS =       865.31745187
  atomic energy  EATOM  =      8465.11600846
  ---------------------------------------------------
  free energy    TOTEN  =      -238.39634895 eV

  energy without entropy =     -238.46250977  energy(sigma->0) =     -238.41840256


--------------------------------------------------------------------------------------------------------




--------------------------------------- Iteration      1(  26)  ---------------------------------------


    POTLOK:  cpu time    0.2484: real time    0.2484
    SETDIJ:  cpu time    0.3196: real time    0.3198
    TRIAL :  cpu time    4.1372: real time    4.1749
    CORREC:  cpu time    2.1228: real time    2.9222
    CHARGE:  cpu time    0.8425: real time    0.8424
    --------------------------------------------
      LOOP:  cpu time    7.6883: real time    8.5260

 eigenvalue-minimisations  :     0
 total energy-change (2. order) :-0.1549131E-02  (-0.7946722E-03)
 number of electron     179.9999996 magnetization       0.0000000
 augmentation part       57.9525924 magnetization       0.0000000

 Free energy of the ion-electron system (eV)
  ---------------------------------------------------
  alpha Z        PSCENC =       532.25742704
  Ewald energy   TEWEN  =     -8601.05107233
  -Hartree energ DENC   =     -1665.55904190
  -exchange      EXHF   =         0.00000000
[...]
  8.438  14.379   0.000   0.001   0.000   0.000   0.002   0.000
 14.379  24.504   0.000   0.001   0.000   0.000   0.003   0.000
  0.000   0.000   1.996  -0.000  -0.000   5.748  -0.000  -0.000
  0.001   0.001  -0.000   1.995  -0.000  -0.000   5.746  -0.000
  0.000   0.000  -0.000  -0.000   1.996  -0.000  -0.000   5.748
  0.000   0.000   5.748  -0.000  -0.000  16.472  -0.000  -0.000
  0.002   0.003  -0.000   5.746  -0.000  -0.000  16.467  -0.000
  0.000   0.000  -0.000  -0.000   5.748  -0.000  -0.000  16.472
 total augmentation occupancy for first ion, spin component:           1
  4.378  -1.250   0.000   0.000   0.000   0.000   0.000   0.000
 -1.250   0.375   0.000   0.000   0.000   0.000   0.000   0.000
  0.000   0.000   1.409   0.000   0.000  -0.101   0.000  -0.000
  0.000   0.000  -0.000   1.509  -0.000  -0.000  -0.102   0.000
  0.000   0.000   0.000  -0.000   1.409   0.000   0.000  -0.101
  0.000   0.000  -0.101   0.000  -0.000   0.008   0.000  -0.000
  0.000   0.000  -0.000  -0.102  -0.000  -0.000   0.007   0.000
  0.000   0.000   0.000   0.000  -0.101  -0.000  -0.000   0.008
 total augmentation occupancy for first ion, spin component:           2
  0.000   0.000  -0.000  -0.094  -0.000  -0.000   0.003  -0.000
  0.000   0.000   0.000  -0.020   0.000   0.000   0.002  -0.000
  0.000  -0.000   0.000   0.000   0.000   0.000   0.000   0.000
 -0.094  -0.020   0.000   0.000   0.000   0.000   0.000   0.000
 -0.000   0.000   0.000   0.000   0.000   0.000   0.000   0.000
  0.000   0.000   0.000   0.000   0.000   0.000   0.000   0.000
  0.003   0.002   0.000   0.000   0.000   0.000   0.000   0.000
  0.000   0.000   0.000   0.000   0.000   0.000   0.000   0.000


------------------------ aborting loop because EDIFF is reached ----------------------------------------


 


 total charge     
 
# of ion       s       p       d       tot
------------------------------------------
    1        0.405   0.428   0.000   0.833
    2        0.405   0.428   0.000   0.833
    3        0.405   0.428   0.000   0.833
    4        0.405   0.428   0.000   0.833
    5        0.405   0.428   0.000   0.833
    6        0.405   0.428   0.000   0.833
    7        0.405   0.428   0.000   0.833
    8        0.405   0.428   0.000   0.833
    9        0.405   0.428   0.000   0.833
   10        0.405   0.428   0.000   0.833
   11        0.405   0.428   0.000   0.833
   12        0.405   0.428   0.000   0.833
   13        0.405   0.428   0.000   0.833
   14        0.405   0.428   0.000   0.833
   15        0.405   0.428   0.000   0.833
   16        0.405   0.428   0.000   0.833
   17        0.405   0.428   0.000   0.833
   18        0.405   0.428   0.000   0.833
   19        0.334   0.352   5.132   5.818
   20        0.334   0.352   5.132   5.818
   21        0.334   0.352   5.132   5.818
   22        0.334   0.352   5.132   5.818
   23        0.334   0.352   5.132   5.818
   24        0.334   0.352   5.132   5.818
   25        0.334   0.352   5.132   5.818
   26        0.334   0.352   5.132   5.818
   27        0.334   0.352   5.132   5.818
   28        0.334   0.352   5.132   5.818
   29        0.334   0.352   5.132   5.818
   30        0.334   0.352   5.132   5.818
   31        0.334   0.352   5.132   5.818
   32        0.334   0.352   5.132   5.818
   33        0.334   0.352   5.132   5.818
   34        0.334   0.352   5.132   5.818
   35        0.334   0.352   5.132   5.818
   36        0.334   0.352   5.132   5.818
--------------------------------------------------
tot         13.308  14.036  92.377 119.721
 


 magnetization (x)
 
# of ion       s       p       d       tot
------------------------------------------
    1       -0.000  -0.000   0.000  -0.000
    2        0.000  -0.000   0.000  -0.000
    3        0.000  -0.000   0.000  -0.000
    4       -0.000   0.000   0.000   0.000
    5        0.000   0.000   0.000   0.000
    6        0.000  -0.000   0.000  -0.000
    7       -0.000   0.000   0.000   0.000
    8       -0.000  -0.000   0.000  -0.000
    9        0.000  -0.000   0.000  -0.000
   10       -0.000   0.000   0.000   0.000
   11       -0.000   0.000   0.000   0.000
   12        0.000  -0.000   0.000  -0.000
   13        0.000   0.000   0.000   0.000
   14       -0.000   0.000   0.000   0.000
   15       -0.000  -0.000   0.000  -0.000
   16       -0.000  -0.000   0.000  -0.000
   17       -0.000   0.000   0.000   0.000
   18       -0.000  -0.000   0.000  -0.000
   19        0.015   0.020   2.340   2.375
   20       -0.015  -0.020  -2.340  -2.375
   21        0.015   0.020   2.340   2.375
   22       -0.015  -0.020  -2.340  -2.375
   23        0.015   0.020   2.340   2.375
   24       -0.015  -0.020  -2.340  -2.375
   25        0.015   0.020   2.340   2.375
   26       -0.015  -0.020  -2.340  -2.375
   27        0.015   0.020   2.340   2.375
   28       -0.015  -0.020  -2.340  -2.375
   29        0.015   0.020   2.340   2.375
   30       -0.015  -0.020  -2.340  -2.375
   31        0.015   0.020   2.340   2.375
   32       -0.015  -0.020  -2.340  -2.375
   33        0.015   0.020   2.340   2.375
   34       -0.015  -0.020  -2.340  -2.375
   35        0.015   0.020   2.340   2.375
   36       -0.015  -0.020  -2.340  -2.375
--------------------------------------------------
tot          0.000  -0.000   0.000   0.000
 
    FORLOC:  cpu time    0.0290: real time    0.0290
    FORNL :  cpu time    6.9426: real time    6.9694
    STRESS:  cpu time   11.3251: real time   11.5026
    FORCOR:  cpu time    0.2768: real time    0.2808
    OFIELD:  cpu time    0.0016: real time    0.0016

  FORCE on cell =-STRESS in cart. coord.  units (eV):
  Direction    XX          YY          ZZ          XY          YZ          ZX
  --------------------------------------------------------------------------------------
  Alpha Z   532.25743   532.25743   532.25743
  Ewald   -2702.40749 -2702.40749 -3196.26924    -0.00000    -0.00000    -0.00000
  Hartree   725.24458   725.24458   216.16213    -0.00000    -0.00000    -0.00000
  E(xc)    -761.72929  -761.72929  -758.91424    -0.00000    -0.00000    -0.00000
  Local     239.20704   239.20704  1282.27244     0.00000    -0.00000    -0.00000
  n-local  -115.19015  -112.75199  -115.01705     1.11595    -0.22258    -0.85289
  augment   525.49972   525.49972   507.56520     0.00000     0.00001     0.00001
  Kinetic  1556.23245  1566.53270  1528.82849    -3.95741     2.02644     2.92867
  Fock        0.00000     0.00000     0.00000     0.00000     0.00000     0.00000
  -------------------------------------------------------------------------------------
  Total       5.48349     5.48349    -3.11485     0.00000    -0.00000     0.00000
  in kB      18.56328    18.56328   -10.54472     0.00000    -0.00000     0.00000
  external pressure =        8.86 kB  Pullay stress =        0.00 kB


 VOLUME and BASIS-vectors are now :
 -----------------------------------------------------------------------------
  energy-cutoff  :      404.80
  volume of cell :      473.27
      direct lattice vectors                 reciprocal lattice vectors
     8.250148166  0.000000000  0.000000000     0.121209944  0.000000000  0.000000000
     0.000000000  8.250148166  0.000000000     0.000000000  0.121209944  0.000000000
     0.000000000  0.000000000  6.953274261     0.000000000  0.000000000  0.143817137

  length of vectors
     8.250148166  8.250148166  6.953274261     0.121209944  0.121209944  0.143817137


 FORCES acting on ions:
    Electron-Ion                     Ewald-Force                    Non-Local-Force
 -----------------------------------------------------------------------------------------------
   -.255E-10 -.255E-10 -.191E-08   -.239E-08 -.239E-08 0.411E-08   -.132E-22 -.620E-23 0.331E-22
   -.255E-10 -.255E-10 -.191E-08   -.239E-08 -.239E-08 0.411E-08   -.662E-23 -.761E-22 -.397E-22
   -.255E-10 -.621E-09 -.191E-08   -.239E-08 -.802E-09 0.411E-08   0.119E-21 -.119E-21 0.159E-21
   -.255E-10 -.621E-09 -.191E-08   -.239E-08 -.802E-09 0.411E-08   -.199E-22 -.513E-22 0.132E-22
   -.255E-10 -.378E-08 -.191E-08   -.239E-08 0.631E-08 0.411E-08   -.529E-22 -.430E-22 -.116E-21
   -.255E-10 -.378E-08 -.191E-08   -.239E-08 0.631E-08 0.411E-08   -.463E-22 -.397E-22 0.135E-21
   -.621E-09 -.255E-10 -.191E-08   -.802E-09 -.239E-08 0.411E-08   0.165E-22 -.199E-22 -.119E-21
   -.621E-09 -.255E-10 -.191E-08   -.802E-09 -.239E-08 0.411E-08   0.199E-22 -.112E-21 -.179E-21
   -.621E-09 -.621E-09 -.191E-08   -.802E-09 -.802E-09 0.411E-08   -.103E-22 -.199E-22 0.662E-22
   -.621E-09 -.621E-09 -.191E-08   -.802E-09 -.802E-09 0.411E-08   0.744E-22 -.132E-22 0.261E-21
   -.621E-09 -.378E-08 -.191E-08   -.802E-09 0.631E-08 0.411E-08   0.265E-22 -.674E-22 0.529E-22
   -.621E-09 -.378E-08 -.191E-08   -.802E-09 0.631E-08 0.411E-08   0.265E-22 0.397E-22 -.132E-22
   -.378E-08 -.255E-10 -.191E-08   0.631E-08 -.239E-08 0.411E-08   0.529E-22 -.397E-22 0.993E-23
   -.378E-08 -.255E-10 -.191E-08   0.631E-08 -.239E-08 0.411E-08   0.132E-22 -.331E-22 0.248E-21
   -.378E-08 -.621E-09 -.191E-08   0.631E-08 -.802E-09 0.411E-08   0.000E+00 -.827E-23 0.397E-22
   -.378E-08 -.621E-09 -.191E-08   0.631E-08 -.802E-09 0.411E-08   -.761E-22 0.281E-22 -.926E-22
   -.378E-08 -.378E-08 -.191E-08   0.631E-08 0.631E-08 0.411E-08   -.993E-23 0.794E-22 -.116E-21
   -.378E-08 -.378E-08 -.191E-08   0.631E-08 0.631E-08 0.411E-08   -.662E-23 0.662E-22 -.662E-22
   0.525E-08 0.525E-08 -.239E-08   -.169E-07 -.169E-07 -.411E-08   0.397E-21 -.212E-21 0.256E-21
   0.525E-08 0.525E-08 -.239E-08   -.169E-07 -.169E-07 -.411E-08   -.185E-21 0.225E-21 0.228E-21
   0.525E-08 0.820E-11 -.239E-08   -.169E-07 0.802E-09 -.411E-08   -.106E-21 0.371E-21 0.199E-21
   0.525E-08 0.829E-11 -.239E-08   -.169E-07 0.802E-09 -.411E-08   -.265E-22 0.119E-21 -.132E-22
   0.525E-08 -.529E-08 -.239E-08   -.169E-07 0.130E-07 -.411E-08   -.926E-22 -.132E-22 -.165E-22
   0.525E-08 -.529E-08 -.239E-08   -.169E-07 0.130E-07 -.411E-08   -.179E-21 0.463E-22 0.314E-22
   0.868E-11 0.525E-08 -.239E-08   0.802E-09 -.169E-07 -.411E-08   0.529E-21 -.529E-22 0.265E-21
   0.867E-11 0.525E-08 -.239E-08   0.802E-09 -.169E-07 -.411E-08   0.273E-21 -.926E-22 -.185E-21
   0.868E-11 0.957E-11 -.239E-08   0.802E-09 0.802E-09 -.411E-08   -.159E-21 -.212E-21 0.205E-21
   0.869E-11 0.796E-11 -.239E-08   0.802E-09 0.802E-09 -.411E-08   0.529E-22 0.596E-22 0.106E-21
   0.868E-11 -.529E-08 -.239E-08   0.802E-09 0.130E-07 -.411E-08   0.529E-22 -.199E-22 0.122E-21
   0.868E-11 -.529E-08 -.239E-08   0.802E-09 0.130E-07 -.411E-08   0.119E-21 0.146E-21 -.529E-22
   -.529E-08 0.524E-08 -.238E-08   0.130E-07 -.169E-07 -.411E-08   -.397E-22 -.529E-22 0.132E-22
   -.529E-08 0.524E-08 -.239E-08   0.130E-07 -.169E-07 -.411E-08   -.265E-21 0.199E-22 -.199E-22
   -.529E-08 0.935E-11 -.238E-08   0.130E-07 0.802E-09 -.411E-08   0.212E-21 0.185E-21 -.662E-22
   -.529E-08 0.929E-11 -.238E-08   0.130E-07 0.802E-09 -.411E-08   -.794E-22 0.126E-21 -.106E-21
   -.529E-08 -.529E-08 -.238E-08   0.130E-07 0.130E-07 -.411E-08   -.185E-21 -.238E-21 0.794E-22
   -.529E-08 -.529E-08 -.239E-08   0.130E-07 0.130E-07 -.411E-08   -.119E-21 0.159E-21 -.132E-21
 -----------------------------------------------------------------------------------------------
   -.299E-07 -.299E-07 -.797E-07   -.197E-14 0.275E-13 0.265E-14   0.307E-21 0.127E-21 0.119E-20
 
 
 POSITION                                       TOTAL-FORCE (eV/Angst)
 -----------------------------------------------------------------------------------
      0.00000      0.00000      0.00000        -0.000000     -0.000000      0.000000
      0.00000      0.00000      3.47664         0.000000     -0.000000      0.000000
      0.00000      2.75005      0.00000        -0.000000      0.000000     -0.000000
      0.00000      2.75005      3.47664         0.000000      0.000000      0.000000
      0.00000      5.50010      0.00000        -0.000000     -0.000000     -0.000000
      0.00000      5.50010      3.47664         0.000000     -0.000000     -0.000000
      2.75005      0.00000      0.00000        -0.000000      0.000000      0.000000
      2.75005      0.00000      3.47664         0.000000     -0.000000     -0.000000
      2.75005      2.75005      0.00000        -0.000000     -0.000000     -0.000000
      2.75005      2.75005      3.47664        -0.000000      0.000000      0.000000
      2.75005      5.50010      0.00000        -0.000000     -0.000000     -0.000000
      2.75005      5.50010      3.47664         0.000000      0.000000     -0.000000
      5.50010      0.00000      0.00000         0.000000      0.000000     -0.000000
      5.50010      0.00000      3.47664        -0.000000     -0.000000      0.000000
      5.50010      2.75005      0.00000        -0.000000      0.000000      0.000000
      5.50010      2.75005      3.47664         0.000000      0.000000     -0.000000
      5.50010      5.50010      0.00000        -0.000000     -0.000000     -0.000000
      5.50010      5.50010      3.47664         0.000000      0.000000     -0.000000
      1.37502      1.37502      1.73832         0.000000     -0.000000     -0.000000
      1.37502      1.37502      5.21496         0.000000      0.000000      0.000000
      1.37502      4.12507      1.73832        -0.000000     -0.000000      0.000000
      1.37502      4.12507      5.21496        -0.000000     -0.000000     -0.000000
      1.37502      6.87512      1.73832         0.000000      0.000000      0.000000
      1.37502      6.87512      5.21496         0.000000      0.000000      0.000000
      4.12507      1.37502      1.73832        -0.000000      0.000000      0.000000
      4.12507      1.37502      5.21496         0.000000      0.000000      0.000000
      4.12507      4.12507      1.73832        -0.000000      0.000000      0.000000
      4.12507      4.12507      5.21496         0.000000      0.000000     -0.000000
      4.12507      6.87512      1.73832         0.000000      0.000000      0.000000
      4.12507      6.87512      5.21496        -0.000000     -0.000000      0.000000
      6.87512      1.37502      1.73832         0.000000     -0.000000     -0.000000
      6.87512      1.37502      5.21496        -0.000000      0.000000      0.000000
      6.87512      4.12507      1.73832        -0.000000      0.000000      0.000000
      6.87512      4.12507      5.21496         0.000000     -0.000000     -0.000000
      6.87512      6.87512      1.73832         0.000000     -0.000000      0.000000
      6.87512      6.87512      5.21496        -0.000000     -0.000000     -0.000000
 -----------------------------------------------------------------------------------
    total drift:                               -0.000000     -0.000000     -0.000000


--------------------------------------------------------------------------------------------------------



  FREE ENERGIE OF THE ION-ELECTRON SYSTEM (eV)
  ---------------------------------------------------
  free  energy   TOTEN  =      -238.40073873 eV

  energy  without entropy=     -238.46765229  energy(sigma->0) =     -238.42304325
 


--------------------------------------------------------------------------------------------------------


    POTLOK:  cpu time    1.4197: real time    1.4196


--------------------------------------------------------------------------------------------------------


     LOOP+:  cpu time  401.3744: real time  410.8741
    4ORBIT:  cpu time    0.0000: real time    0.0000
 


 total charge     
 
# of ion       s       p       d       tot
------------------------------------------
    1        0.405   0.428   0.000   0.833
    2        0.405   0.428   0.000   0.833
    3        0.405   0.428   0.000   0.833
    4        0.405   0.428   0.000   0.833
    5        0.405   0.428   0.000   0.833
    6        0.405   0.428   0.000   0.833
    7        0.405   0.428   0.000   0.833
    8        0.405   0.428   0.000   0.833
    9        0.405   0.428   0.000   0.833
   10        0.405   0.428   0.000   0.833
   11        0.405   0.428   0.000   0.833
   12        0.405   0.428   0.000   0.833
   13        0.405   0.428   0.000   0.833
   14        0.405   0.428   0.000   0.833
   15        0.405   0.428   0.000   0.833
   16        0.405   0.428   0.000   0.833
   17        0.405   0.428   0.000   0.833
   18        0.405   0.428   0.000   0.833
   19        0.334   0.352   5.132   5.818
   20        0.334   0.352   5.132   5.818
   21        0.334   0.352   5.132   5.818
   22        0.334   0.352   5.132   5.818
   23        0.334   0.352   5.132   5.818
   24        0.334   0.352   5.132   5.818
   25        0.334   0.352   5.132   5.818
   26        0.334   0.352   5.132   5.818
   27        0.334   0.352   5.132   5.818
   28        0.334   0.352   5.132   5.818
   29        0.334   0.352   5.132   5.818
   30        0.334   0.352   5.132   5.818
   31        0.334   0.352   5.132   5.818
   32        0.334   0.352   5.132   5.818
   33        0.334   0.352   5.132   5.818
   34        0.334   0.352   5.132   5.818
   35        0.334   0.352   5.132   5.818
   36        0.334   0.352   5.132   5.818
--------------------------------------------------
tot         13.308  14.036  92.377 119.721
 


 magnetization (x)
 
# of ion       s       p       d       tot
------------------------------------------
    1       -0.000  -0.000   0.000  -0.000
    2        0.000  -0.000   0.000  -0.000
    3        0.000  -0.000   0.000  -0.000
    4       -0.000   0.000   0.000   0.000
    5        0.000   0.000   0.000   0.000
    6        0.000  -0.000   0.000  -0.000
    7       -0.000   0.000   0.000   0.000
    8       -0.000  -0.000   0.000  -0.000
    9        0.000  -0.000   0.000  -0.000
   10       -0.000   0.000   0.000   0.000
   11       -0.000   0.000   0.000   0.000
   12        0.000  -0.000   0.000  -0.000
   13        0.000   0.000   0.000   0.000
   14       -0.000   0.000   0.000   0.000
   15       -0.000  -0.000   0.000  -0.000
   16       -0.000  -0.000   0.000  -0.000
   17       -0.000   0.000   0.000   0.000
   18       -0.000  -0.000   0.000  -0.000
   19        0.015   0.020   2.340   2.375
   20       -0.015  -0.020  -2.340  -2.375
   21        0.015   0.020   2.340   2.375
   22       -0.015  -0.020  -2.340  -2.375
   23        0.015   0.020   2.340   2.375
   24       -0.015  -0.020  -2.340  -2.375
   25        0.015   0.020   2.340   2.375
   26       -0.015  -0.020  -2.340  -2.375
   27        0.015   0.020   2.340   2.375
   28       -0.015  -0.020  -2.340  -2.375
   29        0.015   0.020   2.340   2.375
   30       -0.015  -0.020  -2.340  -2.375
   31        0.015   0.020   2.340   2.375
   32       -0.015  -0.020  -2.340  -2.375
   33        0.015   0.020   2.340   2.375
   34       -0.015  -0.020  -2.340  -2.375
   35        0.015   0.020   2.340   2.375
   36       -0.015  -0.020  -2.340  -2.375
--------------------------------------------------
tot          0.000  -0.000   0.000   0.000
 

 total amount of memory used by VASP MPI-rank0   378257. kBytes
=======================================================================

   base      :      30000. kBytes
   nonl-proj :      16518. kBytes
   fftplans  :      21726. kBytes
   grid      :      14732. kBytes
   one-center:        279. kBytes
   wavefun   :     295002. kBytes
 
  
  
 General timing and accounting informations for this job:
 ========================================================
  
                  Total CPU time used (sec):      414.662
                            User time (sec):      403.621
                          System time (sec):       11.041
                         Elapsed time (sec):      426.363
  
                   Maximum memory used (kb):      503020.
                   Average memory used (kb):           0.
  
                          Minor page faults:       243121
                          Major page faults:           16
                 Voluntary context switches:         2827
