   36   36    1    2
  0.1314651E+02  0.8250148E-09  0.8250148E-09  0.6953274E-09  0.2000000E-15
  1.000000000000000E-004
  CAR 
 AlMn_pv                                 
    180     52    104
 
  0.0000000E+00  0.0000000E+00  0.0000000E+00  0.6666667E-02
    1       -2.507885     -2.535659   1.000000   1.000000
    2       -0.344806     -0.372179   1.000000   1.000000
    3       -0.333312     -0.362443   1.000000   1.000000
    4       -0.321162     -0.343261   1.000000   1.000000
    5       -0.295940     -0.337295   1.000000   1.000000
    6       -0.131881     -0.125501   1.000000   1.000000
    7        1.386699      1.343720   1.000000   1.000000
    8        1.405786      1.351852   1.000000   1.000000
    9        1.417005      1.353698   1.000000   1.000000
   10        1.435626      1.372463   1.000000   1.000000
   11        1.443550      1.392832   1.000000   1.000000
   12        1.594112      1.545455   1.000000   1.000000
   13        1.606244      1.552886   1.000000   1.000000
   14        1.628442      1.573830   1.000000   1.000000
   15        1.636393      1.586456   1.000000   1.000000
   16        2.806696      2.703032   1.000000   1.000000
   17        2.813287      2.713970   1.000000   1.000000
   18        2.851140      2.737095   1.000000   1.000000
   19        2.859417      2.745278   1.000000   1.000000
   20        3.564268      3.468243   1.000000   1.000000
   21        3.577976      3.485725   1.000000   1.000000
   22        3.615605      3.535063   1.000000   1.000000
   23        3.660459      3.544334   1.000000   1.000000
   24        4.219680      4.053775   1.000000   1.000000
   25        4.322939      4.155195   1.000000   1.000000
   26        4.364838      4.186562   1.000000   1.000000
   27        4.593477      4.260234   1.000000   1.000000
   28        4.633130      4.498758   1.000000   1.000000
   29        4.655194      4.535784   1.000000   1.000000
   30        4.702704      4.583004   1.000000   1.000000
   31        4.734101      4.615980   1.000000   1.000000
   32        4.861777      4.636423   1.000000   1.000000
   33        4.883003      4.670436   1.000000   1.000000
   34        4.949327      4.679584   1.000000   1.000000
   35        4.955924      4.714379   1.000000   1.000000
   36        5.037782      4.737353   1.000000   1.000000
   37        5.073515      4.754585   1.000000   1.000000
   38        5.234404      4.851725   1.000000   1.000000
   39        5.275050      4.955883   1.000000   1.000000
   40        5.278611      5.078803   1.000000   1.000000
   41        5.303973      5.135448   1.000000   1.000000
   42        5.365387      5.161263   1.000000   1.000000
   43        5.376762      5.181403   1.000000   1.000000
   44        5.511936      5.255566   1.000000   1.000000
   45        5.518982      5.284150   1.000000   1.000000
   46        5.597730      5.337958   1.000000   1.000000
   47        5.624506      5.399565   1.000000   1.000000
   48        5.743180      5.404539   1.000000   1.000000
   49        5.855413      5.420493   1.000000   1.000000
   50        5.876817      5.451784   1.000000   1.000000
   51        5.935543      5.473969   1.000000   1.000000
   52        6.048084      5.565420   1.000000   1.000000
   53        6.119775      5.668407   1.000000   1.000000
   54        6.198347      5.715612   1.000000   1.000000
   55        6.269570      5.783148   1.000000   1.000000
   56        6.301362      5.804405   1.000000   1.000000
   57        6.349635      5.859647   1.000000   1.000000
   58        6.352335      5.867108   1.000000   1.000000
   59        6.356079      6.107109   1.000000   1.000000
   60        6.420182      6.116837   1.000000   1.000000
   61        6.450383      6.151643   1.000000   1.000000
   62        6.467176      6.218228   1.000000   1.000000
   63        6.476138      6.235033   1.000000   1.000000
   64        6.535513      6.345879   1.000000   1.000000
   65        6.565040      6.353740   1.000000   1.000000
   66        6.609214      6.371283   1.000000   1.000000
   67        6.612082      6.410175   1.000000   1.000000
   68        6.643907      6.412422   1.000000   1.000000
   69        6.700636      6.434324   1.000000   1.000000
   70        6.717693      6.437628   1.000000   1.000000
   71        6.737684      6.466607   1.000000   1.000000
   72        6.759968      6.479104   1.000000   1.000000
   73        6.831307      6.544300   1.000000   1.000000
   74        6.873177      6.548288   1.000000   1.000000
   75        6.955666      6.558502   1.000000   1.000000
   76        7.059873      6.571858   1.000010   1.000000
   77        7.111566      6.613137   1.000050   1.000000
   78        7.331264      6.637114   1.007740   1.000000
   79        7.343114      6.710027   1.009353   1.000000
   80        7.444968      6.722879   1.030146   1.000000
   81        7.548438      6.753264   1.015421   1.000000
   82        7.592867      6.796759   0.960581   1.000000
   83        7.627013      6.823582   0.887073   1.000000
   84        7.701370      6.943057   0.631215   1.000000
   85        7.768352      6.965536   0.353734   1.000000
   86        7.879107      7.048163   0.030369   1.000007
   87        7.955547      7.182632  -0.033144   1.000347
   88        7.997394      7.313102  -0.034221   1.005697
   89        8.067542      7.318164  -0.019827   1.006212
   90        8.092065      7.382293  -0.014642   1.016142
   91        8.179311      7.429629  -0.003553   1.026766
   92        8.209497      7.457138  -0.001935   1.032457
   93        8.212222      7.527954  -0.001832   1.027727
   94        8.256662      7.581244  -0.000678   0.979186
   95        8.350894      7.617231  -0.000057   0.910637
   96        8.472692      7.879744  -0.000001   0.029478
   97        8.552718      7.961164  -0.000000  -0.034255
   98        8.579265      8.014416  -0.000000  -0.031518
   99        8.598659      8.021568  -0.000000  -0.030042
  100        8.731336      8.090810  -0.000000  -0.014291
  101        8.769767      8.215853  -0.000000  -0.001689
  102        8.809194      8.298191  -0.000000  -0.000223
  103        8.830553      8.360360  -0.000000  -0.000016
  104        8.901282      8.488953  -0.000000  -0.000000
 
  0.2000000E+00  0.0000000E+00  0.0000000E+00  0.1333333E-01
    1       -2.417442     -2.445127   1.000000   1.000000
    2       -1.090536     -1.119254   1.000000   1.000000
    3       -0.249399     -0.281496   1.000000   1.000000
    4       -0.233068     -0.260940   1.000000   1.000000
    5       -0.065247     -0.060433   1.000000   1.000000
    6        0.582115      0.548519   1.000000   1.000000
    7        0.890274      0.866732   1.000000   1.000000
    8        0.946978      0.905967   1.000000   1.000000
    9        0.958709      0.918745   1.000000   1.000000
   10        1.466106      1.418424   1.000000   1.000000
   11        1.480495      1.437178   1.000000   1.000000
   12        1.540182      1.450926   1.000000   1.000000
   13        1.966712      1.879016   1.000000   1.000000
   14        2.348410      2.274450   1.000000   1.000000
   15        2.359069      2.282043   1.000000   1.000000
   16        2.360040      2.283049   1.000000   1.000000
   17        2.371696      2.287750   1.000000   1.000000
   18        2.884124      2.793563   1.000000   1.000000
   19        3.296663      3.149838   1.000000   1.000000
   20        3.335811      3.190242   1.000000   1.000000
   21        3.654721      3.550982   1.000000   1.000000
   22        3.683873      3.596909   1.000000   1.000000
   23        3.781224      3.705057   1.000000   1.000000
   24        4.191035      4.033769   1.000000   1.000000
   25        4.260337      4.117815   1.000000   1.000000
   26        4.325192      4.145465   1.000000   1.000000
   27        4.379188      4.225678   1.000000   1.000000
   28        4.549505      4.260410   1.000000   1.000000
   29        4.690216      4.464772   1.000000   1.000000
   30        4.691951      4.494076   1.000000   1.000000
   31        4.718317      4.500011   1.000000   1.000000
   32        4.743757      4.572114   1.000000   1.000000
   33        4.807953      4.637245   1.000000   1.000000
   34        4.949018      4.717677   1.000000   1.000000
   35        4.993920      4.764223   1.000000   1.000000
   36        5.070096      4.809857   1.000000   1.000000
   37        5.092743      4.881211   1.000000   1.000000
   38        5.169788      4.916422   1.000000   1.000000
   39        5.170153      4.922448   1.000000   1.000000
   40        5.207159      4.977077   1.000000   1.000000
   41        5.260694      5.041489   1.000000   1.000000
   42        5.335720      5.156298   1.000000   1.000000
   43        5.351565      5.162576   1.000000   1.000000
   44        5.487980      5.267134   1.000000   1.000000
   45        5.593168      5.273800   1.000000   1.000000
   46        5.638444      5.319367   1.000000   1.000000
   47        5.713299      5.400674   1.000000   1.000000
   48        5.723609      5.401064   1.000000   1.000000
   49        5.845822      5.456129   1.000000   1.000000
   50        5.916204      5.511692   1.000000   1.000000
   51        5.924043      5.559849   1.000000   1.000000
   52        5.962214      5.584417   1.000000   1.000000
   53        6.094512      5.685487   1.000000   1.000000
   54        6.152359      5.716201   1.000000   1.000000
   55        6.208130      5.751578   1.000000   1.000000
   56        6.298995      5.831825   1.000000   1.000000
   57        6.358493      5.883756   1.000000   1.000000
   58        6.364166      5.925804   1.000000   1.000000
   59        6.381881      5.994892   1.000000   1.000000
   60        6.410046      6.107491   1.000000   1.000000
   61        6.438905      6.135381   1.000000   1.000000
   62        6.459898      6.218965   1.000000   1.000000
   63        6.491695      6.222006   1.000000   1.000000
   64        6.544189      6.265144   1.000000   1.000000
   65        6.557751      6.301402   1.000000   1.000000
   66        6.601027      6.339651   1.000000   1.000000
   67        6.650685      6.363296   1.000000   1.000000
   68        6.655485      6.371250   1.000000   1.000000
   69        6.708815      6.413044   1.000000   1.000000
   70        6.728732      6.450829   1.000000   1.000000
   71        6.729879      6.468501   1.000000   1.000000
   72        6.808636      6.474469   1.000000   1.000000
   73        6.844204      6.505106   1.000000   1.000000
   74        6.917109      6.547475   1.000000   1.000000
   75        6.931991      6.576604   1.000000   1.000000
   76        7.106739      6.579778   1.000043   1.000000
   77        7.206084      6.610464   1.000617   1.000000
   78        7.222712      6.664729   1.000910   1.000000
   79        7.333364      6.682512   1.008007   1.000000
   80        7.381312      6.720420   1.016020   1.000000
   81        7.474124      6.759434   1.034749   1.000000
   82        7.479463      6.768788   1.035170   1.000000
   83        7.645738      6.873087   0.833885   1.000000
   84        7.703630      6.902765   0.622090   1.000000
   85        7.804862      6.935949   0.217425   1.000000
   86        7.898001      6.982278   0.004171   1.000001
   87        7.927661      7.139908  -0.021983   1.000113
   88        8.049457      7.232956  -0.023939   1.001150
   89        8.079749      7.243764  -0.017177   1.001456
   90        8.110739      7.389038  -0.011320   1.017557
   91        8.151392      7.451416  -0.005900   1.031382
   92        8.218550      7.513520  -0.001609   1.032583
   93        8.239074      7.571706  -0.001015   0.992160
   94        8.303126      7.590012  -0.000212   0.965201
   95        8.344707      7.679595  -0.000068   0.718399
   96        8.389218      7.885089  -0.000018   0.021485
   97        8.552518      7.935594  -0.000000  -0.026277
   98        8.571263      7.978510  -0.000000  -0.035457
   99        8.582409      8.057371  -0.000000  -0.022134
  100        8.631345      8.161107  -0.000000  -0.004953
  101        8.653300      8.189980  -0.000000  -0.002834
  102        8.878240      8.255668  -0.000000  -0.000690
  103        8.940389      8.323860  -0.000000  -0.000121
  104        8.970651      8.485133  -0.000000  -0.000001
 
  0.4000000E+00  0.0000000E+00  0.0000000E+00  0.1333333E-01
    1       -2.148150     -2.175298   1.000000   1.000000
    2       -1.701166     -1.729959   1.000000   1.000000
    3       -0.003750     -0.035782   1.000000   1.000000
    4        0.012393     -0.016834   1.000000   1.000000
    5        0.132436      0.131927   1.000000   1.000000
    6        0.402021      0.365641   1.000000   1.000000
    7        0.416568      0.383045   1.000000   1.000000
    8        0.456011      0.448205   1.000000   1.000000
    9        1.601200      1.556088   1.000000   1.000000
   10        1.653877      1.600568   1.000000   1.000000
   11        1.664393      1.617807   1.000000   1.000000
   12        1.817859      1.730646   1.000000   1.000000
   13        1.959127      1.897441   1.000000   1.000000
   14        1.976854      1.908211   1.000000   1.000000
   15        2.281029      2.190132   1.000000   1.000000
   16        2.401771      2.265397   1.000000   1.000000
   17        2.701413      2.658548   1.000000   1.000000
   18        3.002924      2.896497   1.000000   1.000000
   19        3.064409      2.929814   1.000000   1.000000
   20        3.661849      3.477666   1.000000   1.000000
   21        3.766262      3.561585   1.000000   1.000000
   22        3.841153      3.733984   1.000000   1.000000
   23        3.859184      3.760301   1.000000   1.000000
   24        4.074874      3.948623   1.000000   1.000000
   25        4.094479      3.969967   1.000000   1.000000
   26        4.183367      4.020631   1.000000   1.000000
   27        4.218988      4.097706   1.000000   1.000000
   28        4.442617      4.215544   1.000000   1.000000
   29        4.517350      4.252508   1.000000   1.000000
   30        4.542497      4.302219   1.000000   1.000000
   31        4.567554      4.461145   1.000000   1.000000
   32        4.711912      4.515421   1.000000   1.000000
   33        4.806223      4.652255   1.000000   1.000000
   34        4.833067      4.710563   1.000000   1.000000
   35        4.975995      4.776112   1.000000   1.000000
   36        5.049501      4.814070   1.000000   1.000000
   37        5.070387      4.875463   1.000000   1.000000
   38        5.132003      4.937714   1.000000   1.000000
   39        5.167612      4.972883   1.000000   1.000000
   40        5.288211      5.056316   1.000000   1.000000
   41        5.297840      5.067573   1.000000   1.000000
   42        5.344598      5.091686   1.000000   1.000000
   43        5.378018      5.185191   1.000000   1.000000
   44        5.524128      5.212204   1.000000   1.000000
   45        5.578825      5.269253   1.000000   1.000000
   46        5.666613      5.284573   1.000000   1.000000
   47        5.722740      5.395151   1.000000   1.000000
   48        5.727005      5.459801   1.000000   1.000000
   49        5.823088      5.514024   1.000000   1.000000
   50        5.842052      5.590149   1.000000   1.000000
   51        5.966587      5.618990   1.000000   1.000000
   52        5.971068      5.624660   1.000000   1.000000
   53        6.075321      5.677721   1.000000   1.000000
   54        6.119980      5.677756   1.000000   1.000000
   55        6.165597      5.748645   1.000000   1.000000
   56        6.233124      5.801312   1.000000   1.000000
   57        6.259089      5.894070   1.000000   1.000000
   58        6.300595      5.919328   1.000000   1.000000
   59        6.352007      6.037165   1.000000   1.000000
   60        6.397873      6.040994   1.000000   1.000000
   61        6.403086      6.086907   1.000000   1.000000
   62        6.440264      6.171949   1.000000   1.000000
   63        6.498088      6.195738   1.000000   1.000000
   64        6.564401      6.224572   1.000000   1.000000
   65        6.574592      6.226503   1.000000   1.000000
   66        6.634977      6.279884   1.000000   1.000000
   67        6.641148      6.280323   1.000000   1.000000
   68        6.685156      6.290288   1.000000   1.000000
   69        6.707329      6.347845   1.000000   1.000000
   70        6.736429      6.370780   1.000000   1.000000
   71        6.749878      6.413498   1.000000   1.000000
   72        6.796809      6.460304   1.000000   1.000000
   73        6.860936      6.503055   1.000000   1.000000
   74        6.941971      6.530341   1.000000   1.000000
   75        7.025874      6.587190   1.000003   1.000000
   76        7.105424      6.633877   1.000042   1.000000
   77        7.144015      6.640268   1.000126   1.000000
   78        7.259849      6.684108   1.002056   1.000000
   79        7.324104      6.689753   1.006858   1.000000
   80        7.398311      6.727534   1.019659   1.000000
   81        7.484712      6.778866   1.035408   1.000000
   82        7.554500      6.815871   1.010335   1.000000
   83        7.694014      6.869472   0.662307   1.000000
   84        7.695237      6.884823   0.656717   1.000000
   85        7.785436      6.922313   0.287301   1.000000
   86        7.864220      6.948246   0.056793   1.000000
   87        7.916780      7.037177  -0.014286   1.000005
   88        7.946028      7.147393  -0.030561   1.000138
   89        8.072371      7.183197  -0.018741   1.000354
   90        8.111842      7.404193  -0.011128   1.020914
   91        8.155774      7.504428  -0.005467   1.034344
   92        8.182444      7.572310  -0.003341   0.991382
   93        8.231184      7.585690  -0.001216   0.972431
   94        8.290533      7.626769  -0.000293   0.887546
   95        8.336037      7.765627  -0.000087   0.365241
   96        8.393612      7.786208  -0.000016   0.284869
   97        8.439487      7.882819  -0.000003   0.024722
   98        8.452358      8.015092  -0.000002  -0.031483
   99        8.562501      8.048653  -0.000000  -0.024149
  100        8.629503      8.118286  -0.000000  -0.010154
  101        8.658520      8.174924  -0.000000  -0.003857
  102        8.695669      8.249445  -0.000000  -0.000796
  103        8.715953      8.268279  -0.000000  -0.000488
  104        9.034398      8.340935  -0.000000  -0.000075
 
  0.0000000E+00  0.2000000E+00  0.0000000E+00  0.1333333E-01
    1       -2.417356     -2.445129   1.000000   1.000000
    2       -1.091141     -1.119250   1.000000   1.000000
    3       -0.257396     -0.285251   1.000000   1.000000
    4       -0.223677     -0.256972   1.000000   1.000000
    5       -0.065295     -0.060264   1.000000   1.000000
    6        0.581464      0.548088   1.000000   1.000000
    7        0.889252      0.867471   1.000000   1.000000
    8        0.942577      0.903665   1.000000   1.000000
    9        0.962801      0.921285   1.000000   1.000000
   10        1.454313      1.406607   1.000000   1.000000
   11        1.497894      1.445697   1.000000   1.000000
   12        1.540588      1.451007   1.000000   1.000000
   13        1.961146      1.881962   1.000000   1.000000
   14        2.339184      2.264426   1.000000   1.000000
   15        2.355421      2.273506   1.000000   1.000000
   16        2.368048      2.293357   1.000000   1.000000
   17        2.377007      2.294664   1.000000   1.000000
   18        2.881420      2.792973   1.000000   1.000000
   19        3.283719      3.152143   1.000000   1.000000
   20        3.348296      3.191784   1.000000   1.000000
   21        3.638619      3.543763   1.000000   1.000000
   22        3.709023      3.605095   1.000000   1.000000
   23        3.779696      3.706642   1.000000   1.000000
   24        4.193954      4.033124   1.000000   1.000000
   25        4.281420      4.120795   1.000000   1.000000
   26        4.299237      4.143946   1.000000   1.000000
   27        4.375245      4.220386   1.000000   1.000000
   28        4.538591      4.260814   1.000000   1.000000
   29        4.681362      4.461971   1.000000   1.000000
   30        4.686797      4.496088   1.000000   1.000000
   31        4.734945      4.514865   1.000000   1.000000
   32        4.762261      4.538571   1.000000   1.000000
   33        4.804713      4.651140   1.000000   1.000000
   34        4.955170      4.722815   1.000000   1.000000
   35        5.017199      4.779930   1.000000   1.000000
   36        5.084709      4.818569   1.000000   1.000000
   37        5.130918      4.875659   1.000000   1.000000
   38        5.140989      4.911260   1.000000   1.000000
   39        5.145817      4.921315   1.000000   1.000000
   40        5.186350      4.962898   1.000000   1.000000
   41        5.252014      5.054025   1.000000   1.000000
   42        5.334646      5.157223   1.000000   1.000000
   43        5.353106      5.159976   1.000000   1.000000
   44        5.508882      5.230386   1.000000   1.000000
   45        5.548874      5.280911   1.000000   1.000000
   46        5.616905      5.297663   1.000000   1.000000
   47        5.706087      5.397524   1.000000   1.000000
   48        5.750168      5.455088   1.000000   1.000000
   49        5.800460      5.465871   1.000000   1.000000
   50        5.853840      5.513951   1.000000   1.000000
   51        5.926895      5.544364   1.000000   1.000000
   52        6.045351      5.590360   1.000000   1.000000
   53        6.115383      5.686902   1.000000   1.000000
   54        6.154857      5.705799   1.000000   1.000000
   55        6.244576      5.747993   1.000000   1.000000
   56        6.312539      5.793077   1.000000   1.000000
   57        6.341828      5.862165   1.000000   1.000000
   58        6.353533      5.953384   1.000000   1.000000
   59        6.392584      6.016396   1.000000   1.000000
   60        6.432049      6.104600   1.000000   1.000000
   61        6.450358      6.122361   1.000000   1.000000
   62        6.457161      6.221211   1.000000   1.000000
   63        6.485395      6.238530   1.000000   1.000000
   64        6.533085      6.265451   1.000000   1.000000
   65        6.568620      6.321963   1.000000   1.000000
   66        6.587338      6.349898   1.000000   1.000000
   67        6.665334      6.363495   1.000000   1.000000
   68        6.674103      6.363639   1.000000   1.000000
   69        6.700043      6.385086   1.000000   1.000000
   70        6.717238      6.434238   1.000000   1.000000
   71        6.773849      6.467810   1.000000   1.000000
   72        6.830113      6.504228   1.000000   1.000000
   73        6.835641      6.520503   1.000000   1.000000
   74        6.915939      6.551685   1.000000   1.000000
   75        6.923285      6.558746   1.000000   1.000000
   76        7.050431      6.599348   1.000008   1.000000
   77        7.084267      6.601137   1.000022   1.000000
   78        7.218042      6.672285   1.000817   1.000000
   79        7.337055      6.716440   1.008496   1.000000
   80        7.387922      6.726195   1.017392   1.000000
   81        7.495966      6.750183   1.035217   1.000000
   82        7.583181      6.763423   0.976203   1.000000
   83        7.659726      6.838635   0.789199   1.000000
   84        7.700650      6.903562   0.634219   1.000000
   85        7.736463      6.940130   0.486680   1.000000
   86        7.893711      6.980554   0.009397   1.000001
   87        7.957922      7.129986  -0.033638   1.000085
   88        8.048610      7.232542  -0.024155   1.001137
   89        8.081685      7.247427  -0.016762   1.001579
   90        8.094715      7.418626  -0.014167   1.024227
   91        8.115756      7.445681  -0.010498   1.030259
   92        8.236365      7.482973  -0.001085   1.035351
   93        8.242576      7.540230  -0.000942   1.021110
   94        8.290596      7.559618  -0.000293   1.005493
   95        8.349494      7.700619  -0.000059   0.636465
   96        8.469221      7.895634  -0.000001   0.007244
   97        8.488149      7.955948  -0.000001  -0.033226
   98        8.531497      7.978888  -0.000000  -0.035457
   99        8.590995      8.045157  -0.000000  -0.024771
  100        8.638139      8.161578  -0.000000  -0.004905
  101        8.680849      8.198279  -0.000000  -0.002441
  102        8.786936      8.297211  -0.000000  -0.000244
  103        8.929998      8.373192  -0.000000  -0.000029
  104        9.024055      8.457964  -0.000000  -0.000002
 
  0.2000000E+00  0.2000000E+00  0.0000000E+00  0.1333333E-01
    1       -2.327169     -2.354869   1.000000   1.000000
    2       -1.015046     -1.038376   1.000000   1.000000
    3       -0.994681     -1.028675   1.000000   1.000000
    4        0.001235      0.004713   1.000000   1.000000
    5        0.242359      0.208831   1.000000   1.000000
    6        0.652267      0.621616   1.000000   1.000000
    7        0.671242      0.632830   1.000000   1.000000
    8        0.948526      0.918469   1.000000   1.000000
    9        0.960504      0.942138   1.000000   1.000000
   10        1.632827      1.543491   1.000000   1.000000
   11        1.753860      1.710732   1.000000   1.000000
   12        1.792402      1.732147   1.000000   1.000000
   13        1.871332      1.816137   1.000000   1.000000
   14        2.019871      1.937327   1.000000   1.000000
   15        2.034891      1.946684   1.000000   1.000000
   16        2.866481      2.755976   1.000000   1.000000
   17        2.907106      2.775488   1.000000   1.000000
   18        2.931761      2.812058   1.000000   1.000000
   19        2.943933      2.865386   1.000000   1.000000
   20        2.982035      2.879928   1.000000   1.000000
   21        3.737111      3.562322   1.000000   1.000000
   22        3.822304      3.745888   1.000000   1.000000
   23        3.837078      3.751936   1.000000   1.000000
   24        3.936151      3.809896   1.000000   1.000000
   25        4.237646      4.072203   1.000000   1.000000
   26        4.317822      4.140209   1.000000   1.000000
   27        4.418317      4.264027   1.000000   1.000000
   28        4.446788      4.311811   1.000000   1.000000
   29        4.573067      4.325393   1.000000   1.000000
   30        4.581921      4.346987   1.000000   1.000000
   31        4.654635      4.399381   1.000000   1.000000
   32        4.747079      4.579816   1.000000   1.000000
   33        4.818595      4.612061   1.000000   1.000000
   34        4.887511      4.627208   1.000000   1.000000
   35        4.940048      4.752873   1.000000   1.000000
   36        5.004955      4.796358   1.000000   1.000000
   37        5.010992      4.825506   1.000000   1.000000
   38        5.082681      4.834509   1.000000   1.000000
   39        5.181013      5.031351   1.000000   1.000000
   40        5.250714      5.059815   1.000000   1.000000
   41        5.360777      5.087678   1.000000   1.000000
   42        5.383759      5.151832   1.000000   1.000000
   43        5.412515      5.180473   1.000000   1.000000
   44        5.533304      5.281960   1.000000   1.000000
   45        5.651184      5.289051   1.000000   1.000000
   46        5.684938      5.335502   1.000000   1.000000
   47        5.745452      5.374007   1.000000   1.000000
   48        5.750836      5.513567   1.000000   1.000000
   49        5.809242      5.530495   1.000000   1.000000
   50        5.851277      5.562687   1.000000   1.000000
   51        5.934623      5.573911   1.000000   1.000000
   52        5.937529      5.595741   1.000000   1.000000
   53        6.066937      5.669603   1.000000   1.000000
   54        6.131101      5.675000   1.000000   1.000000
   55        6.156695      5.747232   1.000000   1.000000
   56        6.274544      5.792870   1.000000   1.000000
   57        6.315688      5.863655   1.000000   1.000000
   58        6.370141      5.979095   1.000000   1.000000
   59        6.425324      5.979254   1.000000   1.000000
   60        6.434046      6.053096   1.000000   1.000000
   61        6.473875      6.141157   1.000000   1.000000
   62        6.478180      6.193672   1.000000   1.000000
   63        6.543413      6.215447   1.000000   1.000000
   64        6.575367      6.252537   1.000000   1.000000
   65        6.587006      6.286047   1.000000   1.000000
   66        6.616290      6.328614   1.000000   1.000000
   67        6.626068      6.341816   1.000000   1.000000
   68        6.643398      6.356155   1.000000   1.000000
   69        6.673040      6.396976   1.000000   1.000000
   70        6.723731      6.442762   1.000000   1.000000
   71        6.799730      6.474744   1.000000   1.000000
   72        6.808843      6.491077   1.000000   1.000000
   73        6.901957      6.519232   1.000000   1.000000
   74        6.924213      6.533610   1.000000   1.000000
   75        6.994673      6.568726   1.000001   1.000000
   76        7.006700      6.594884   1.000002   1.000000
   77        7.157215      6.606430   1.000179   1.000000
   78        7.180148      6.665383   1.000326   1.000000
   79        7.243661      6.704661   1.001453   1.000000
   80        7.417160      6.713657   1.023956   1.000000
   81        7.451483      6.767307   1.031442   1.000000
   82        7.512779      6.789524   1.032749   1.000000
   83        7.530690      6.848867   1.026390   1.000000
   84        7.709585      6.922297   0.597686   1.000000
   85        7.747059      6.935097   0.441709   1.000000
   86        7.919353      6.956207  -0.016304   1.000000
   87        8.002675      7.024555  -0.033522   1.000003
   88        8.044695      7.117658  -0.025054   1.000060
   89        8.048502      7.234214  -0.024187   1.001178
   90        8.106019      7.309594  -0.012108   1.005350
   91        8.181218      7.370520  -0.003416   1.013869
   92        8.229085      7.475122  -0.001276   1.034838