       N       E                     dE             d eps       ncg     rms          ort
DAV:   1     0.137052144210E+04    0.13705E+04   -0.57696E+04  5408   0.151E+03
DAV:   2    -0.351793979437E+02   -0.14057E+04   -0.13860E+04  5408   0.470E+02
DAV:   3    -0.232044863090E+03   -0.19687E+03   -0.18322E+03  5408   0.187E+02
DAV:   4    -0.264639187980E+03   -0.32594E+02   -0.29930E+02  5408   0.805E+01
DAV:   5    -0.268950527979E+03   -0.43113E+01   -0.41000E+01  5408   0.240E+01
DAV:   6    -0.269487948344E+03   -0.53742E+00   -0.51241E+00  5408   0.650E+00
DAV:   7    -0.269585247538E+03   -0.97299E-01   -0.93236E-01  5408   0.224E+00
DAV:   8    -0.269607059984E+03   -0.21812E-01   -0.21041E-01  5408   0.751E-01
SDA:   9    -0.638856712947E+02    0.20572E+03   -0.21041E-01  5408   0.233E+04 0.000E+00
CGA:  10    -0.208466974401E+03   -0.14458E+03   -0.14542E+03  5408   0.129E+03 0.391E+03
CGA:  11    -0.218453976959E+03   -0.99870E+01   -0.10047E+02  5408   0.536E+02 0.145E+01
CGA:  12    -0.227610255862E+03   -0.91563E+01   -0.91630E+01  5408   0.950E+02 0.127E+00
CGA:  13    -0.233357522542E+03   -0.57473E+01   -0.58686E+01  5408   0.137E+02-0.347E+00
CGA:  14    -0.234373362615E+03   -0.10158E+01   -0.10261E+01  5408   0.542E+01-0.625E-01
CGA:  15    -0.235187607082E+03   -0.81424E+00   -0.81483E+00  5408   0.667E+01 0.116E-01
CGA:  16    -0.235744095339E+03   -0.55649E+00   -0.55451E+00  5408   0.186E+01 0.203E-01
CGA:  17    -0.235938113705E+03   -0.19402E+00   -0.19373E+00  5408   0.154E+01 0.799E-03
CGA:  18    -0.236150241014E+03   -0.21213E+00   -0.21235E+00  5408   0.159E+01 0.141E-02
CGA:  19    -0.236285182030E+03   -0.13494E+00   -0.13589E+00  5408   0.516E+00-0.632E-02
CGA:  20    -0.236350791991E+03   -0.65610E-01   -0.65684E-01  5408   0.565E+00 0.302E-03
CGA:  21    -0.236447184762E+03   -0.96393E-01   -0.96355E-01  5408   0.603E+00 0.136E-02
CGA:  22    -0.236498817028E+03   -0.51632E-01   -0.51606E-01  5408   0.245E+00-0.529E-03
CGA:  23    -0.236529858568E+03   -0.31042E-01   -0.31032E-01  5408   0.245E+00-0.470E-03
CGA:  24    -0.236567137124E+03   -0.37279E-01   -0.37277E-01  5408   0.246E+00-0.996E-03
CGA:  25    -0.236593499269E+03   -0.26362E-01   -0.26381E-01  5408   0.180E+00-0.569E-03
CGA:  26    -0.236622673285E+03   -0.29174E-01   -0.29190E-01  5408   0.199E+00-0.922E-03
CGA:  27    -0.236644947933E+03   -0.22275E-01   -0.22251E-01  5408   0.990E-01 0.151E-03
CGA:  28    -0.236656061275E+03   -0.11113E-01   -0.11104E-01  5408   0.747E-01 0.385E-03
CGA:  29    -0.236666699836E+03   -0.10639E-01   -0.10641E-01  5408   0.794E-01 0.505E-03
CGA:  30    -0.236675953716E+03   -0.92539E-02   -0.92575E-02  5408   0.514E-01 0.601E-03
CGA:  31    -0.236683361987E+03   -0.74083E-02   -0.74097E-02  5408   0.524E-01 0.477E-03
CGA:  32    -0.236691337189E+03   -0.79752E-02   -0.79735E-02  5408   0.424E-01 0.618E-03
CGA:  33    -0.236695974684E+03   -0.46375E-02   -0.46550E-02  5408   0.269E-01 0.470E-03
CGA:  34    -0.236699379614E+03   -0.34049E-02   -0.34118E-02  5408   0.213E-01 0.393E-03
CGA:  35    -0.236702181621E+03   -0.28020E-02   -0.28079E-02  5408   0.167E-01 0.308E-03
CGA:  36    -0.236704257915E+03   -0.20763E-02   -0.20800E-02  5408   0.154E-01 0.152E-03
CGA:  37    -0.236707207085E+03   -0.29492E-02   -0.29395E-02  5408   0.150E-01 0.143E-03
CGA:  38    -0.236708875567E+03   -0.16685E-02   -0.16699E-02  5408   0.848E-02 0.593E-04
CGA:  39    -0.236709761010E+03   -0.88544E-03   -0.88689E-03  5408   0.621E-02 0.257E-04
SDA:  40    -0.236710934189E+03   -0.11732E-02   -0.11729E-02  5408   0.782E-02 0.101E-04
CGA:  41    -0.236711494674E+03   -0.56048E-03   -0.55936E-03  5408   0.455E-02-0.119E-04
CGA:  42    -0.236712068733E+03   -0.57406E-03   -0.57371E-03  5408   0.314E-02-0.265E-04
CGA:  43    -0.236712675304E+03   -0.60657E-03   -0.60765E-03  5408   0.506E-02-0.196E-04
CGA:  44    -0.236713259723E+03   -0.58442E-03   -0.58417E-03  5408   0.193E-02-0.100E-04
CGA:  45    -0.236713575047E+03   -0.31532E-03   -0.31540E-03  5408   0.326E-02-0.368E-05
CGA:  46    -0.236714063110E+03   -0.48806E-03   -0.48817E-03  5408   0.151E-02-0.119E-04
CGA:  47    -0.236714285524E+03   -0.22241E-03   -0.22240E-03  5408   0.223E-02 0.271E-05
CGA:  48    -0.236714753031E+03   -0.46751E-03   -0.46694E-03  5408   0.185E-02 0.752E-05
CGA:  49    -0.236714903737E+03   -0.15071E-03   -0.15078E-03  5408   0.104E-02 0.416E-05
CGA:  50    -0.236715120147E+03   -0.21641E-03   -0.21612E-03  5408   0.190E-02 0.545E-05
CGA:  51    -0.236715290381E+03   -0.17023E-03   -0.17030E-03  5408   0.411E-03 0.629E-05
CGA:  52    -0.236715383390E+03   -0.93009E-04   -0.92737E-04  5408   0.105E-02 0.285E-05
CGA:  53    -0.236715543277E+03   -0.15989E-03   -0.15985E-03  5408   0.294E-03 0.692E-05
CGA:  54    -0.236715587992E+03   -0.44714E-04   -0.44718E-04  5408   0.450E-03 0.583E-06
CGA:  55    -0.236715666852E+03   -0.78860E-04   -0.78997E-04  5408   0.216E-03-0.271E-05
CGA:  56    -0.236715686335E+03   -0.19483E-04   -0.19309E-04  5408   0.174E-03-0.285E-06
CGA:  57    -0.236715710141E+03   -0.23807E-04   -0.23663E-04  5408   0.152E-03-0.713E-05
CGA:  58    -0.236715725154E+03   -0.15013E-04   -0.14944E-04  5408   0.198E-03-0.566E-06
CGA:  59    -0.236715842542E+03   -0.11739E-03   -0.12311E-03  5408   0.332E-02-0.113E-04
CGA:  60    -0.236715504848E+03    0.33769E-03   -0.10083E-03  5408   0.562E-02-0.994E-03
CGA:  61    -0.236714291070E+03    0.12138E-02   -0.27335E-04  5408   0.918E-02-0.984E-02
CGA:  62    -0.236715123591E+03   -0.83252E-03   -0.81243E-03  5408   0.302E-02-0.123E-04
CGA:  63    -0.236715403019E+03   -0.27943E-03   -0.27693E-03  5408   0.110E-02 0.247E-05
CGA:  64    -0.236715484555E+03   -0.81536E-04   -0.81388E-04  5408   0.434E-03 0.520E-06
CGA:  65    -0.236715681475E+03   -0.19692E-03   -0.18545E-03  5408   0.189E-02 0.453E-04
CGA:  66    -0.236715948509E+03   -0.26703E-03   -0.26828E-03  5408  -0.633E-03 0.624E-04
CGA:  67    -0.236715666909E+03    0.28160E-03   -0.13325E-03  5408   0.271E-02-0.117E-02
CGA:  68    -0.236715789665E+03   -0.12276E-03   -0.12277E-03  5408   0.661E-04 0.545E-06
CGA:  69    -0.236715794538E+03   -0.48732E-05   -0.49923E-05  5408   0.337E-04 0.707E-06
CGA:  70    -0.236715799423E+03   -0.48847E-05   -0.49013E-05  5408   0.347E-04 0.427E-05
CGA:  71    -0.236297396944E+03    0.41840E+00    0.16828E+00  5408   0.141E+01-0.374E+00
CGA:  72    -0.236666100996E+03   -0.36870E+00   -0.36927E+00  5408   0.114E+00 0.588E-01
CGA:  73    -0.236673353574E+03   -0.72526E-02   -0.69944E-02  5408   0.416E-01 0.182E-02
CGA:  74    -0.236676821649E+03   -0.34681E-02   -0.64899E-02  5408   0.186E-01-0.125E-01
CGA:  75    -0.236687655355E+03   -0.10834E-01    0.24727E-02  5408   0.208E+00 0.266E-02
CGA:  76    -0.236694729566E+03   -0.70742E-02   -0.32159E-02  5408   0.418E+00-0.438E+00
CGA:  77    -0.236715642999E+03   -0.20913E-01   -0.20453E-01  5408   0.107E-01 0.821E-02
CGA:  78    -0.236716171426E+03   -0.52843E-03   -0.54201E-03  5408   0.295E-03-0.230E-03
CGA:  79    -0.236716176415E+03   -0.49893E-05   -0.90216E-05  5408  -0.157E-03-0.116E-03
CGA:  80    -0.236716086211E+03    0.90204E-04   -0.81574E-05  5408   0.598E-04-0.300E-03
CGA:  81    -0.236716086487E+03   -0.27604E-06   -0.30688E-06  5408  -0.573E-04-0.610E-05
CGA:  82    -0.236716062402E+03    0.24086E-04   -0.31609E-04  5408   0.372E-03-0.684E-04
CGA:  83    -0.236716069042E+03   -0.66407E-05   -0.69537E-05  5408  -0.210E-03-0.155E-04
CGA:  84    -0.236715989858E+03    0.79184E-04   -0.79409E-03  5408   0.802E-04-0.205E-03
CGA:  85    -0.236715990412E+03   -0.55379E-06   -0.56001E-06  5408  -0.683E-04-0.998E-06
CGA:  86    -0.236715833895E+03    0.15652E-03    0.13280E-02  5408   0.172E-02-0.641E-04
CGA:  87    -0.236715891264E+03   -0.57369E-04   -0.57141E-04  5408  -0.135E-03 0.679E-05
CGA:  88    -0.236715841959E+03    0.49305E-04    0.47678E-04  5408   0.244E-04-0.292E-04
CGA:  89    -0.236715842851E+03   -0.89246E-06   -0.86955E-06  5408  -0.120E-04 0.360E-06
CGA:  90    -0.236715833151E+03    0.97001E-05   -0.61372E-05  5408   0.148E-03-0.203E-04
CGA:  91    -0.236715838931E+03   -0.57802E-05   -0.57375E-05  5408  -0.211E-05 0.288E-06
CGA:  92    -0.236715836419E+03    0.25126E-05   -0.29771E-06  5408   0.471E-04-0.720E-05
CGA:  93    -0.236715838210E+03   -0.17910E-05   -0.17970E-05  5408   0.106E-05 0.554E-07
CGA:  94    -0.236715838283E+03   -0.72951E-07   -0.71404E-07  5408   0.100E-05 0.382E-07
CGA:  95    -0.236715838950E+03   -0.66699E-06    0.70664E-06  5408   0.413E-05 0.113E-05
CGA:  96    -0.236715839146E+03   -0.19580E-06   -0.19369E-06  5408   0.102E-05-0.113E-07
CGA:  97    -0.236715839447E+03   -0.30180E-06   -0.30397E-06  5408   0.587E-05-0.357E-07
CGA:  98    -0.236715840246E+03   -0.79851E-06   -0.79626E-06  5408   0.147E-05-0.668E-07
CGA:  99    -0.236715840317E+03   -0.71172E-07   -0.70587E-07  5408  -0.162E-07-0.346E-08
   1 F= -.23671584E+03 E0= -.23672066E+03  d E =0.144511E-01  mag=   -10.1449
