 vasp.5.4.4.18Apr17-6-g9f103f2a35 (build Dec 20 2018 12:05:58) complex          
  
 executed on             LinuxIFC date 2019.06.20  14:12:31
 running on   32 total cores
 distrk:  each k-point on    8 cores,    4 groups
 distr:  one band on NCORES_PER_BAND=   4 cores,    2 groups


--------------------------------------------------------------------------------------------------------


 INCAR:
 POTCAR:    PAW_PBE Al 04Jan2001                  
 POTCAR:    PAW_PBE Mn 06Sep2000                  

 ----------------------------------------------------------------------------- 
|                                                                             |
|           W    W    AA    RRRRR   N    N  II  N    N   GGGG   !!!           |
|           W    W   A  A   R    R  NN   N  II  NN   N  G    G  !!!           |
|           W    W  A    A  R    R  N N  N  II  N N  N  G       !!!           |
|           W WW W  AAAAAA  RRRRR   N  N N  II  N  N N  G  GGG   !            |
|           WW  WW  A    A  R   R   N   NN  II  N   NN  G    G                |
|           W    W  A    A  R    R  N    N  II  N    N   GGGG   !!!           |
|                                                                             |
|      You have enabled k-point parallelism (KPAR>1).                         |
|      This developmental code was originally  written by Paul Kent at ORNL,  |
|      and carefully double checked in Vienna.                                |
|      GW as well as linear response parallelism added by Martijn Marsman     |
|      and Georg Kresse.                                                      |
|      Carefully verify results versus KPAR=1.                                |
|      Report problems to Paul Kent and Vienna.                               |
|                                                                             |
 ----------------------------------------------------------------------------- 

 POTCAR:    PAW_PBE Al 04Jan2001                  
   VRHFIN =Al: s2p1                                                             
   LEXCH  = PE                                                                  
   EATOM  =    53.5387 eV,    3.9350 Ry                                         
                                                                                
   TITEL  = PAW_PBE Al 04Jan2001                                                
   LULTRA =        F    use ultrasoft PP ?                                      
   IUNSCR =        1    unscreen: 0-lin 1-nonlin 2-no                           
   RPACOR =    1.500    partial core radius                                     
   POMASS =   26.981; ZVAL   =    3.000    mass and valenz                      
   RCORE  =    1.900    outmost cutoff radius                                   
   RWIGS  =    2.650; RWIGS  =    1.402    wigner-seitz radius (au A)           
   ENMAX  =  240.300; ENMIN  =  180.225 eV                                      
   ICORE  =        2    local potential                                         
   LCOR   =        T    correct aug charges                                     
   LPAW   =        T    paw PP                                                  
   EAUG   =  291.052                                                            
   DEXC   =    0.000                                                            
   RMAX   =    1.939    core radius for proj-oper                               
   RAUG   =    1.300    factor for augmentation sphere                          
   RDEP   =    1.966    radius for radial grids                                 
   RDEPT  =    1.856    core radius for aug-charge                              
                                                                                
   Atomic configuration                                                         
    6 entries                                                                   
     n  l   j            E        occ.                                          
     1  0  0.50     -1511.1048   2.0000                                         
     2  0  0.50      -108.1629   2.0000                                         
     2  1  1.50       -69.6402   6.0000                                         
     3  0  0.50        -7.7528   2.0000                                         
     3  1  1.50        -2.7121   1.0000                                         
     3  2  2.50        -2.7212   0.0000                                         
   Description                                                                  
     l       E           TYP  RCUT    TYP  RCUT                                 
     0     -7.7528455     23  1.900                                             
     0     -3.3096929     23  1.900                                             
     1     -2.7120682     23  1.900                                             
     1     13.6058260     23  1.900                                             
     2     -2.7211652      7  1.900                                             
  local pseudopotential read in
  partial core-charges read in
  partial kinetic energy density read in
  atomic valenz-charges read in
  non local Contribution for L=           0  read in
    real space projection operators read in
  non local Contribution for L=           0  read in
    real space projection operators read in
  non local Contribution for L=           1  read in
    real space projection operators read in
  non local Contribution for L=           1  read in
    real space projection operators read in
    PAW grid and wavefunctions read in
 
   number of l-projection  operators is LMAX  =           4
   number of lm-projection operators is LMMAX =           8
 
 POTCAR:    PAW_PBE Mn 06Sep2000                  
   VRHFIN =Mn: d6 s1                                                            
   LEXCH  = PE                                                                  
   EATOM  =   416.7541 eV,   30.6306 Ry                                         
                                                                                
   TITEL  = PAW_PBE Mn 06Sep2000                                                
   LULTRA =        F    use ultrasoft PP ?                                      
   IUNSCR =        1    unscreen: 0-lin 1-nonlin 2-no                           
   RPACOR =    2.000    partial core radius                                     
   POMASS =   54.938; ZVAL   =    7.000    mass and valenz                      
   RCORE  =    2.300    outmost cutoff radius                                   
   RWIGS  =    2.500; RWIGS  =    1.323    wigner-seitz radius (au A)           
   ENMAX  =  269.864; ENMIN  =  202.398 eV                                      
   RCLOC  =    1.725    cutoff for local pot                                    
   LCOR   =        T    correct aug charges                                     
   LPAW   =        T    paw PP                                                  
   EAUG   =  500.711                                                            
   DEXC   =    0.000                                                            
   RMAX   =    2.343    core radius for proj-oper                               
   RAUG   =    1.300    factor for augmentation sphere                          
   RDEP   =    2.338    radius for radial grids                                 
   RDEPT  =    1.911    core radius for aug-charge                              
                                                                                
   Atomic configuration                                                         
    9 entries                                                                   
     n  l   j            E        occ.                                          
     1  0  0.50     -6424.8288   2.0000                                         
     2  0  0.50      -739.1154   2.0000                                         
     2  1  1.50      -625.3949   6.0000                                         
     3  0  0.50       -81.6100   2.0000                                         
     3  1  1.50       -50.4667   6.0000                                         
     3  2  2.50        -3.3745   6.0000                                         
     4  0  0.50        -4.1331   1.0000                                         
     4  1  0.50        -4.0817   0.0000                                         
     4  3  2.50        -1.3606   0.0000                                         
   Description                                                                  
     l       E           TYP  RCUT    TYP  RCUT                                 
     2     -3.3744664     23  2.300                                             
     2     -4.7350490     23  2.300                                             
     0     -4.1331408     23  2.300                                             
     0      7.6656614     23  2.300                                             
     1     -2.7211652     23  2.300                                             
     1     20.4087390     23  2.300                                             
  local pseudopotential read in
  partial core-charges read in
  partial kinetic energy density read in
  atomic valenz-charges read in
  non local Contribution for L=           2  read in
    real space projection operators read in
  non local Contribution for L=           2  read in
    real space projection operators read in
  non local Contribution for L=           0  read in
    real space projection operators read in
  non local Contribution for L=           0  read in
    real space projection operators read in
  non local Contribution for L=           1  read in
    real space projection operators read in
  non local Contribution for L=           1  read in
    real space projection operators read in
    PAW grid and wavefunctions read in
 
   number of l-projection  operators is LMAX  =           6
   number of lm-projection operators is LMMAX =          18
 

 ----------------------------------------------------------------------------- 
|                                                                             |
|  ADVICE TO THIS USER RUNNING 'VASP/VAMP'   (HEAR YOUR MASTER'S VOICE ...):  |
|                                                                             |
|      You have a (more or less) 'large supercell' and for larger cells       |
|      it might be more efficient to use real space projection opertators     |
|      So try LREAL= Auto  in the INCAR   file.                               |
|      Mind:          For very  accurate calculation you might also keep the  |
|      reciprocal projection scheme          (i.e. LREAL=.FALSE.)             |
|                                                                             |
 ----------------------------------------------------------------------------- 

  PAW_PBE Al 04Jan2001                  :
 energy of atom  1       EATOM=  -53.5387
 kinetic energy error for atom=    0.0005 (will be added to EATOM!!)
  PAW_PBE Mn 06Sep2000                  :
 energy of atom  2       EATOM= -416.7541
 kinetic energy error for atom=    0.0080 (will be added to EATOM!!)
 
 
 POSCAR: NewRef: 18, @ ['Mn', array([1.37502469, 
  positions in cartesian coordinates
  velocities in cartesian coordinates
  No initial velocities read in
 exchange correlation table for  LEXCH =        8
   RHO(1)=    0.500       N(1)  =     2000
   RHO(2)=  100.500       N(2)  =     4000
 


--------------------------------------------------------------------------------------------------------


 ion  position               nearest neighbor table
   1  0.000  0.000  0.000-  20 2.61  24 2.61  32 2.61  36 2.61  31 2.61  23 2.61  35 2.61  19 2.61
                             3 2.75   7 2.75   5 2.75  13 2.75
   2  0.000  0.000  0.500-  19 2.61  23 2.61  31 2.61  35 2.61  20 2.61  32 2.61  24 2.61  36 2.61
                             4 2.75   8 2.75   6 2.75  14 2.75
   3  0.000  0.333  0.000-  20 2.61  32 2.61  22 2.61  34 2.61  19 2.61  31 2.61  33 2.61  21 2.61
                             9 2.75   1 2.75   5 2.75  15 2.75
   4  0.000  0.333  0.500-  19 2.61  31 2.61  21 2.61  33 2.61  32 2.61  20 2.61  22 2.61  34 2.61
                            10 2.75   2 2.75   6 2.75  16 2.75
   5  0.000  0.667  0.000-  22 2.61  34 2.61  24 2.61  36 2.61  21 2.61  33 2.61  35 2.61  23 2.61
                             3 2.75  11 2.75   1 2.75  17 2.75
   6  0.000  0.667  0.500-  21 2.61  33 2.61  23 2.61  35 2.61  34 2.61  22 2.61  24 2.61  36 2.61
                             4 2.75  12 2.75   2 2.75  18 2.75
   7  0.333  0.000  0.000-  20 2.61  24 2.61  26 2.61  30 2.61  23 2.61  19 2.61  29 2.61  25 2.61
                            13 2.75   1 2.75   9 2.75  11 2.75
   8  0.333  0.000  0.500-  19 2.61  23 2.61  25 2.61  29 2.61  20 2.61  24 2.61  26 2.61  30 2.61
                            14 2.75   2 2.75  10 2.75  12 2.75
   9  0.333  0.333  0.000-  20 2.61  22 2.61  26 2.61  19 2.61  28 2.61  21 2.61  25 2.61  27 2.61
                             3 2.75   7 2.75  11 2.75  15 2.75
  10  0.333  0.333  0.500-  19 2.61  21 2.61  25 2.61  20 2.61  27 2.61  26 2.61  22 2.61  28 2.61
                             4 2.75   8 2.75  12 2.75  16 2.75
  11  0.333  0.667  0.000-  22 2.61  24 2.61  28 2.61  21 2.61  30 2.61  23 2.61  27 2.61  29 2.61
                            17 2.75   5 2.75   9 2.75   7 2.75
  12  0.333  0.667  0.500-  21 2.61  23 2.61  27 2.61  22 2.61  29 2.61  28 2.61  24 2.61  30 2.61
                            18 2.75   6 2.75  10 2.75   8 2.75
  13  0.667  0.000  0.000-  26 2.61  30 2.61  32 2.61  36 2.61  29 2.61  25 2.61  35 2.61  31 2.61
                             7 2.75  15 2.75   1 2.75  17 2.75
  14  0.667  0.000  0.500-  25 2.61  29 2.61  31 2.61  35 2.61  26 2.61  30 2.61  32 2.61  36 2.61
                             8 2.75  16 2.75   2 2.75  18 2.75
  15  0.667  0.333  0.000-  26 2.61  28 2.61  32 2.61  25 2.61  34 2.61  27 2.61  31 2.61  33 2.61
                            17 2.75   9 2.75  13 2.75   3 2.75
  16  0.667  0.333  0.500-  25 2.61  27 2.61  31 2.61  26 2.61  33 2.61  32 2.61  28 2.61  34 2.61
                            18 2.75  10 2.75  14 2.75   4 2.75
  17  0.667  0.667  0.000-  28 2.61  30 2.61  34 2.61  27 2.61  36 2.61  29 2.61  33 2.61  35 2.61
                            11 2.75  15 2.75  13 2.75   5 2.75
  18  0.667  0.667  0.500-  27 2.61  29 2.61  33 2.61  28 2.61  35 2.61  34 2.61  30 2.61  36 2.61
                            12 2.75  16 2.75  14 2.75   6 2.75
  19  0.167  0.167  0.250-  10 2.61   8 2.61   4 2.61   9 2.61   2 2.61   7 2.61   3 2.61   1 2.61
                            21 2.75  25 2.75  23 2.75  31 2.75
  20  0.167  0.167  0.750-   9 2.61   7 2.61   3 2.61  10 2.61   1 2.61   4 2.61   8 2.61   2 2.61
                            22 2.75  26 2.75  24 2.75  32 2.75
  21  0.167  0.500  0.250-  12 2.61  10 2.61   6 2.61  11 2.61   4 2.61   9 2.61   5 2.61   3 2.61
                            19 2.75  23 2.75  27 2.75  33 2.75
  22  0.167  0.500  0.750-  11 2.61   9 2.61   5 2.61  12 2.61   3 2.61   6 2.61  10 2.61   4 2.61
                            20 2.75  24 2.75  28 2.75  34 2.75
  23  0.167  0.833  0.250-   8 2.61  12 2.61   2 2.61   6 2.61  11 2.61   7 2.61   5 2.61   1 2.61
                            21 2.75  29 2.75  19 2.75  35 2.75
  24  0.167  0.833  0.750-   7 2.61  11 2.61   1 2.61   5 2.61   8 2.61  12 2.61   2 2.61   6 2.61
                            22 2.75  30 2.75  20 2.75  36 2.75
  25  0.500  0.167  0.250-  16 2.61  14 2.61  10 2.61  15 2.61   8 2.61  13 2.61   9 2.61   7 2.61
                            19 2.75  27 2.75  31 2.75  29 2.75
  26  0.500  0.167  0.750-  15 2.61  13 2.61   9 2.61  16 2.61   7 2.61  10 2.61  14 2.61   8 2.61
                            20 2.75  28 2.75  32 2.75  30 2.75
  27  0.500  0.500  0.250-  18 2.61  16 2.61  12 2.61  17 2.61  10 2.61  15 2.61  11 2.61   9 2.61
                            21 2.75  25 2.75  29 2.75  33 2.75
  28  0.500  0.500  0.750-  17 2.61  15 2.61  11 2.61  18 2.61   9 2.61  12 2.61  16 2.61  10 2.61
                            22 2.75  26 2.75  30 2.75  34 2.75
  29  0.500  0.833  0.250-  14 2.61  18 2.61   8 2.61  12 2.61  17 2.61  13 2.61  11 2.61   7 2.61
                            23 2.75  27 2.75  35 2.75  25 2.75
  30  0.500  0.833  0.750-  13 2.61  17 2.61   7 2.61  11 2.61  14 2.61  18 2.61   8 2.61  12 2.61
                            24 2.75  28 2.75  36 2.75  26 2.75
  31  0.833  0.167  0.250-   4 2.61  16 2.61  14 2.61   2 2.61  15 2.61   3 2.61  13 2.61   1 2.61
                            25 2.75  33 2.75  19 2.75  35 2.75
  32  0.833  0.167  0.750-   3 2.61  15 2.61  13 2.61   1 2.61   4 2.61  16 2.61   2 2.61  14 2.61
                            26 2.75  34 2.75  20 2.75  36 2.75
  33  0.833  0.500  0.250-   6 2.61  18 2.61  16 2.61   4 2.61  17 2.61   5 2.61  15 2.61   3 2.61
                            27 2.75  31 2.75  35 2.75  21 2.75
  34  0.833  0.500  0.750-   5 2.61  17 2.61  15 2.61   3 2.61   6 2.61  18 2.61   4 2.61  16 2.61
                            28 2.75  32 2.75  36 2.75  22 2.75
  35  0.833  0.833  0.250-   2 2.61   6 2.61  14 2.61  18 2.61  13 2.61   5 2.61  17 2.61   1 2.61
                            29 2.75  33 2.75  31 2.75  23 2.75
  36  0.833  0.833  0.750-   1 2.61   5 2.61  13 2.61  17 2.61   2 2.61  14 2.61   6 2.61  18 2.61
                            30 2.75  34 2.75  32 2.75  24 2.75
 
  LATTYP: Found a simple tetragonal cell.
 ALAT       =     8.2501481662
 C/A-ratio  =     0.8428059861
  
  Lattice vectors:
  
 A1 = (   8.2501481662,   0.0000000000,   0.0000000000)
 A2 = (   0.0000000000,   8.2501481662,   0.0000000000)
 A3 = (   0.0000000000,   0.0000000000,   6.9532742610)


Analysis of symmetry for initial positions (statically):
=====================================================================
 Subroutine PRICEL returns following result:
 
  LATTYP: Found a simple tetragonal cell.
 ALAT       =     2.7500493888
 C/A-ratio  =     1.2642089792
  
  Lattice vectors:
  
 A1 = (   2.7500493888,   0.0000000000,   0.0000000000)
 A2 = (   0.0000000000,   2.7500493888,   0.0000000000)
 A3 = (   0.0000000000,   0.0000000000,   3.4766371305)
 
  18 primitive cells build up your supercell.
 

 Routine SETGRP: Setting up the symmetry group for a 
 simple tetragonal supercell.


 Subroutine GETGRP returns: Found 16 space group operations
 (whereof 16 operations were pure point group operations)
 out of a pool of 16 trial point group operations.


The static configuration has the point symmetry D_4h.


Analysis of symmetry for dynamics (positions and initial velocities):
=====================================================================
 Subroutine PRICEL returns following result:
 
  LATTYP: Found a simple tetragonal cell.
 ALAT       =     2.7500493888
 C/A-ratio  =     1.2642089792
  
  Lattice vectors:
  
 A1 = (   2.7500493888,   0.0000000000,   0.0000000000)
 A2 = (   0.0000000000,   2.7500493888,   0.0000000000)
 A3 = (   0.0000000000,   0.0000000000,   3.4766371305)
 
  18 primitive cells build up your supercell.
 

 Routine SETGRP: Setting up the symmetry group for a 
 simple tetragonal supercell.


 Subroutine GETGRP returns: Found 16 space group operations
 (whereof 16 operations were pure point group operations)
 out of a pool of 16 trial point group operations.


The dynamic configuration has the point symmetry D_4h.


Analysis of structural, dynamic, and magnetic symmetry:
=====================================================================
 Subroutine PRICEL returns:
 Original cell was already a primitive cell.
 

 Routine SETGRP: Setting up the symmetry group for a 
 simple tetragonal supercell.


 Subroutine GETGRP returns: Found  2 space group operations
 (whereof  1 operations were pure point group operations)
 out of a pool of 16 trial point group operations.


The magnetic configuration has the point symmetry C_1 .
 The point group associated with its full space group is C_1h.


 Subroutine INISYM returns: Found  2 space group operations
 (whereof  1 operations are pure point group operations),
 and found     1 'primitive' translations

 
 
 KPOINTS: automatic KPOINTS                       

Automatic generation of k-mesh.
 generate k-points for:    5    5    6
Space group operators:
 irot       det(A)        alpha          n_x          n_y          n_z        tau_x        tau_y        tau_z
    1     1.000000     0.000001     1.000000     0.000000     0.000000     0.000000     0.000000     0.000000
    2    -1.000000   179.999999     0.000000     0.000000     1.000000     0.000000     0.000000     0.500000
 
 Subroutine IBZKPT returns following result:
 ===========================================
 
 Found     52 irreducible k-points:
 
 Following reciprocal coordinates:
            Coordinates               Weight
  0.000000  0.000000  0.000000      1.000000
  0.200000  0.000000  0.000000      2.000000
  0.400000  0.000000  0.000000      2.000000
  0.000000  0.200000  0.000000      2.000000
  0.200000  0.200000  0.000000      2.000000
  0.400000  0.200000  0.000000      2.000000
 -0.400000  0.200000  0.000000      2.000000
 -0.200000  0.200000  0.000000      2.000000
  0.000000  0.400000  0.000000      2.000000
  0.200000  0.400000  0.000000      2.000000
  0.400000  0.400000  0.000000      2.000000
 -0.400000  0.400000  0.000000      2.000000
 -0.200000  0.400000  0.000000      2.000000
  0.000000  0.000000  0.166667      2.000000
  0.200000  0.000000  0.166667      4.000000
  0.400000  0.000000  0.166667      4.000000
  0.000000  0.200000  0.166667      4.000000
  0.200000  0.200000  0.166667      4.000000
  0.400000  0.200000  0.166667      4.000000
 -0.400000  0.200000  0.166667      4.000000
 -0.200000  0.200000  0.166667      4.000000
  0.000000  0.400000  0.166667      4.000000
  0.200000  0.400000  0.166667      4.000000
  0.400000  0.400000  0.166667      4.000000
 -0.400000  0.400000  0.166667      4.000000
 -0.200000  0.400000  0.166667      4.000000
  0.000000  0.000000  0.333333      2.000000
  0.200000  0.000000  0.333333      4.000000
  0.400000  0.000000  0.333333      4.000000
  0.000000  0.200000  0.333333      4.000000
  0.200000  0.200000  0.333333      4.000000
  0.400000  0.200000  0.333333      4.000000
 -0.400000  0.200000  0.333333      4.000000
 -0.200000  0.200000  0.333333      4.000000
  0.000000  0.400000  0.333333      4.000000
  0.200000  0.400000  0.333333      4.000000
  0.400000  0.400000  0.333333      4.000000
 -0.400000  0.400000  0.333333      4.000000
 -0.200000  0.400000  0.333333      4.000000
  0.000000  0.000000  0.500000      1.000000
  0.200000  0.000000  0.500000      2.000000
  0.400000  0.000000  0.500000      2.000000
  0.000000  0.200000  0.500000      2.000000
  0.200000  0.200000  0.500000      2.000000
  0.400000  0.200000  0.500000      2.000000
 -0.400000  0.200000  0.500000      2.000000
 -0.200000  0.200000  0.500000      2.000000
  0.000000  0.400000  0.500000      2.000000
  0.200000  0.400000  0.500000      2.000000
  0.400000  0.400000  0.500000      2.000000
 -0.400000  0.400000  0.500000      2.000000
 -0.200000  0.400000  0.500000      2.000000
 
 Following cartesian coordinates:
            Coordinates               Weight
  0.000000  0.000000  0.000000      1.000000
  0.024242  0.000000  0.000000      2.000000
  0.048484  0.000000  0.000000      2.000000
  0.000000  0.024242  0.000000      2.000000
  0.024242  0.024242  0.000000      2.000000
  0.048484  0.024242  0.000000      2.000000
 -0.048484  0.024242  0.000000      2.000000
 -0.024242  0.024242  0.000000      2.000000
  0.000000  0.048484  0.000000      2.000000
  0.024242  0.048484  0.000000      2.000000
  0.048484  0.048484  0.000000      2.000000
 -0.048484  0.048484  0.000000      2.000000
 -0.024242  0.048484  0.000000      2.000000
  0.000000  0.000000  0.023970      2.000000
  0.024242  0.000000  0.023970      4.000000
  0.048484  0.000000  0.023970      4.000000
  0.000000  0.024242  0.023970      4.000000
  0.024242  0.024242  0.023970      4.000000
  0.048484  0.024242  0.023970      4.000000
 -0.048484  0.024242  0.023970      4.000000
 -0.024242  0.024242  0.023970      4.000000
  0.000000  0.048484  0.023970      4.000000
  0.024242  0.048484  0.023970      4.000000
  0.048484  0.048484  0.023970      4.000000
 -0.048484  0.048484  0.023970      4.000000
 -0.024242  0.048484  0.023970      4.000000
  0.000000  0.000000  0.047939      2.000000
  0.024242  0.000000  0.047939      4.000000
  0.048484  0.000000  0.047939      4.000000
  0.000000  0.024242  0.047939      4.000000
  0.024242  0.024242  0.047939      4.000000
  0.048484  0.024242  0.047939      4.000000
 -0.048484  0.024242  0.047939      4.000000
 -0.024242  0.024242  0.047939      4.000000
  0.000000  0.048484  0.047939      4.000000
  0.024242  0.048484  0.047939      4.000000
  0.048484  0.048484  0.047939      4.000000
 -0.048484  0.048484  0.047939      4.000000
 -0.024242  0.048484  0.047939      4.000000
  0.000000  0.000000  0.071909      1.000000
  0.024242  0.000000  0.071909      2.000000
  0.048484  0.000000  0.071909      2.000000
  0.000000  0.024242  0.071909      2.000000
  0.024242  0.024242  0.071909      2.000000
  0.048484  0.024242  0.071909      2.000000
 -0.048484  0.024242  0.071909      2.000000
 -0.024242  0.024242  0.071909      2.000000
  0.000000  0.048484  0.071909      2.000000
  0.024242  0.048484  0.071909      2.000000
  0.048484  0.048484  0.071909      2.000000
 -0.048484  0.048484  0.071909      2.000000
 -0.024242  0.048484  0.071909      2.000000
 


--------------------------------------------------------------------------------------------------------




 Dimension of arrays:
   k-points           NKPTS =     52   k-points in BZ     NKDIM =     52   number of bands    NBANDS=    104
   number of dos      NEDOS =    301   number of ions     NIONS =     36
   non local maximal  LDIM  =      6   non local SUM 2l+1 LMDIM =     18
   total plane-waves  NPLWV = 139968
   max r-space proj   IRMAX =      1   max aug-charges    IRDMAX=  92271
   dimension x,y,z NGX =    54 NGY =   54 NGZ =   48
   dimension x,y,z NGXF=   108 NGYF=  108 NGZF=   96
   support grid    NGXF=   216 NGYF=  216 NGZF=  192
   ions per type =              18  18
   NGX,Y,Z   is equivalent  to a cutoff of  10.88, 10.88, 11.48 a.u.
   NGXF,Y,Z  is equivalent  to a cutoff of  21.76, 21.76, 22.95 a.u.

 SYSTEM =  AlMn_pv                                 
 POSCAR =  NewRef: 18, @ ['Mn', array([1.37502469, 

 Startparameter for this run:
   NWRITE =      2    write-flag & timer
   PREC   = accura    normal or accurate (medium, high low for compatibility)
   ISTART =      0    job   : 0-new  1-cont  2-samecut
   ICHARG =      2    charge: 1-file 2-atom 10-const
   ISPIN  =      2    spin polarized calculation?
   LNONCOLLINEAR =      F non collinear calculations
   LSORBIT =      F    spin-orbit coupling
   INIWAV =      1    electr: 0-lowe 1-rand  2-diag
   LASPH  =      F    aspherical Exc in radial PAW
   METAGGA=      F    non-selfconsistent MetaGGA calc.

 Electronic Relaxation 1
   ENCUT  =  404.8 eV  29.75 Ry    5.45 a.u.  13.53 13.53 11.41*2*pi/ulx,y,z
   ENINI  =  404.8     initial cutoff
   ENAUG  =  500.7 eV  augmentation charge cutoff
   NELM   =    100;   NELMIN=  4; NELMDL= -8     # of ELM steps 
   EDIFF  = 0.1E-06   stopping-criterion for ELM
   LREAL  =      F    real-space projection
   NLSPLINE    = F    spline interpolate recip. space projectors
   LCOMPAT=      F    compatible to vasp.4.4
   GGA_COMPAT  = T    GGA compatible to vasp.4.4-vasp.4.6
   LMAXPAW     = -100 max onsite density
   LMAXMIX     =    2 max onsite mixed and CHGCAR
   VOSKOWN=      0    Vosko Wilk Nusair interpolation
   ROPT   =    0.00000   0.00000
 Ionic relaxation
   EDIFFG = 0.1E-05   stopping-criterion for IOM
   NSW    =      0    number of steps for IOM
   NBLOCK =      1;   KBLOCK =      1    inner block; outer block 
   IBRION =     -1    ionic relax: 0-MD 1-quasi-New 2-CG
   NFREE  =      0    steps in history (QN), initial steepest desc. (CG)
   ISIF   =      2    stress and relaxation
   IWAVPR =     10    prediction:  0-non 1-charg 2-wave 3-comb
   ISYM   =      2    0-nonsym 1-usesym 2-fastsym
   LCORR  =      T    Harris-Foulkes like correction to forces

   POTIM  = 0.2000    time-step for ionic-motion
   TEIN   =    0.0    initial temperature
   TEBEG  =    0.0;   TEEND  =   0.0 temperature during run
   SMASS  =  -3.00    Nose mass-parameter (am)
   estimated Nose-frequenzy (Omega)   =  0.10E-29 period in steps =****** mass=  -0.156E-26a.u.
   SCALEE = 1.0000    scale energy and forces
   NPACO  =    256;   APACO  = 16.0  distance and # of slots for P.C.
   PSTRESS=    0.0 pullay stress

  Mass of Ions in am
   POMASS =  26.98 54.94
  Ionic Valenz
   ZVAL   =   3.00  7.00
  Atomic Wigner-Seitz radii
   RWIGS  =  -1.00 -1.00
  virtual crystal weights 
   VCA    =   1.00  1.00
   NELECT =     180.0000    total number of electrons
   NUPDOWN=      -1.0000    fix difference up-down

 DOS related values:
   EMIN   =  10.00;   EMAX   =-10.00  energy-range for DOS
   EFERMI =   0.00
   ISMEAR =     1;   SIGMA  =   0.20  broadening in eV -4-tet -1-fermi 0-gaus

 Electronic relaxation 2 (details)
   IALGO  =     58    algorithm
   LDIAG  =      T    sub-space diagonalisation (order eigenvalues)
   LSUBROT=      F    optimize rotation matrix (better conditioning)
   TURBO    =      0    0=normal 1=particle mesh
   IRESTART =      0    0=no restart 2=restart with 2 vectors
   NREBOOT  =      0    no. of reboots
   NMIN     =      0    reboot dimension
   EREF     =   0.00    reference energy to select bands
   IMIX   =      4    mixing-type and parameters
     AMIX     =   0.40;   BMIX     =  1.00
     AMIX_MAG =   1.60;   BMIX_MAG =  1.00
     AMIN     =   0.10
     WC   =   100.;   INIMIX=   1;  MIXPRE=   1;  MAXMIX= -45

 Intra band minimization:
   WEIMIN = 0.0000     energy-eigenvalue tresh-hold
   EBREAK =  0.24E-09  absolut break condition
   DEPER  =   0.30     relativ break condition  

   TIME   =   0.40     timestep for ELM

  volume/ion in A,a.u.               =      13.15        88.72
  Fermi-wavevector in a.u.,A,eV,Ry     =   1.186118  2.241439 19.141722  1.406877
  Thomas-Fermi vector in A             =   2.322298
 
 Write flags
   LWAVE        =      F    write WAVECAR
   LDOWNSAMPLE  =      F    k-point downsampling of WAVECAR
   LCHARG       =      F    write CHGCAR
   LVTOT        =      F    write LOCPOT, total local potential
   LVHAR        =      F    write LOCPOT, Hartree potential only
   LELF         =      F    write electronic localiz. function (ELF)
   LORBIT       =     10    0 simple, 1 ext, 2 COOP (PROOUT), +10 PAW based schemes


 Dipole corrections
   LMONO  =      F    monopole corrections only (constant potential shift)
   LDIPOL =      F    correct potential (dipole corrections)
   IDIPOL =      0    1-x, 2-y, 3-z, 4-all directions 
   EPSILON=  1.0000000 bulk dielectric constant

 Exchange correlation treatment:
   GGA     =    --    GGA type
   LEXCH   =     8    internal setting for exchange type
   VOSKOWN=      0    Vosko Wilk Nusair interpolation
   LHFCALC =     F    Hartree Fock is set to
   LHFONE  =     F    Hartree Fock one center treatment
   AEXX    =    0.0000 exact exchange contribution

 Linear response parameters
   LEPSILON=     F    determine dielectric tensor
   LRPA    =     F    only Hartree local field effects (RPA)
   LNABLA  =     F    use nabla operator in PAW spheres
   LVEL    =     F    velocity operator in full k-point grid
   LINTERFAST=   F  fast interpolation
   KINTER  =     0    interpolate to denser k-point grid
   CSHIFT  =0.1000    complex shift for real part using Kramers Kronig
   OMEGAMAX=  -1.0    maximum frequency
   DEG_THRESHOLD= 0.2000000E-02 threshold for treating states as degnerate
   RTIME   =   -0.100 relaxation time in fs
  (WPLASMAI=    0.000 imaginary part of plasma frequency in eV, 0.658/RTIME)
   DFIELD  = 0.0000000 0.0000000 0.0000000 field for delta impulse in time
 
 Orbital magnetization related:
   ORBITALMAG=     F  switch on orbital magnetization
   LCHIMAG   =     F  perturbation theory with respect to B field
   DQ        =  0.001000  dq finite difference perturbation B field
   LLRAUG    =     F  two centre corrections for induced B field



--------------------------------------------------------------------------------------------------------


 Static calculation
 charge density and potential will be updated during run
 spin polarized calculation
 Conjugate gradient for all bands (Freysoldt, et al. PRB 79, 241103 (2009))
 preconditioned conjugated gradient                                        
 perform sub-space diagonalisation
    before iterative eigenvector-optimisation
 modified Broyden-mixing scheme, WC =      100.0
 initial mixing is a Kerker type mixing with AMIX =  0.4000 and BMIX =      1.0000
 Hartree-type preconditioning will be used
 using additional bands           14
 reciprocal scheme for non local part
 use partial core corrections
 no Harris-corrections to forces 
 use gradient corrections 
 use of overlap-Matrix (Vanderbilt PP)
 Methfessel and Paxton  Order N= 1 SIGMA  =   0.20


--------------------------------------------------------------------------------------------------------


  energy-cutoff  :      404.80
  volume of cell :      473.27
      direct lattice vectors                 reciprocal lattice vectors
     8.250148166  0.000000000  0.000000000     0.121209944  0.000000000  0.000000000
     0.000000000  8.250148166  0.000000000     0.000000000  0.121209944  0.000000000
     0.000000000  0.000000000  6.953274261     0.000000000  0.000000000  0.143817137

  length of vectors
     8.250148166  8.250148166  6.953274261     0.121209944  0.121209944  0.143817137


 
 k-points in units of 2pi/SCALE and weight: automatic KPOINTS                       
   0.00000000  0.00000000  0.00000000       0.007
   0.02424199  0.00000000  0.00000000       0.013
   0.04848398  0.00000000  0.00000000       0.013
   0.00000000  0.02424199  0.00000000       0.013
   0.02424199  0.02424199  0.00000000       0.013
   0.04848398  0.02424199  0.00000000       0.013
  -0.04848398  0.02424199  0.00000000       0.013
  -0.02424199  0.02424199  0.00000000       0.013
   0.00000000  0.04848398  0.00000000       0.013
   0.02424199  0.04848398  0.00000000       0.013
   0.04848398  0.04848398  0.00000000       0.013
  -0.04848398  0.04848398  0.00000000       0.013
  -0.02424199  0.04848398  0.00000000       0.013
   0.00000000  0.00000000  0.02396952       0.013
   0.02424199  0.00000000  0.02396952       0.027
   0.04848398  0.00000000  0.02396952       0.027
   0.00000000  0.02424199  0.02396952       0.027
   0.02424199  0.02424199  0.02396952       0.027
   0.04848398  0.02424199  0.02396952       0.027
  -0.04848398  0.02424199  0.02396952       0.027
  -0.02424199  0.02424199  0.02396952       0.027
   0.00000000  0.04848398  0.02396952       0.027
   0.02424199  0.04848398  0.02396952       0.027
   0.04848398  0.04848398  0.02396952       0.027
  -0.04848398  0.04848398  0.02396952       0.027
  -0.02424199  0.04848398  0.02396952       0.027
   0.00000000  0.00000000  0.04793905       0.013
   0.02424199  0.00000000  0.04793905       0.027
   0.04848398  0.00000000  0.04793905       0.027
   0.00000000  0.02424199  0.04793905       0.027
   0.02424199  0.02424199  0.04793905       0.027
   0.04848398  0.02424199  0.04793905       0.027
  -0.04848398  0.02424199  0.04793905       0.027
  -0.02424199  0.02424199  0.04793905       0.027
   0.00000000  0.04848398  0.04793905       0.027
   0.02424199  0.04848398  0.04793905       0.027
   0.04848398  0.04848398  0.04793905       0.027
  -0.04848398  0.04848398  0.04793905       0.027
  -0.02424199  0.04848398  0.04793905       0.027
   0.00000000  0.00000000  0.07190857       0.007
   0.02424199  0.00000000  0.07190857       0.013
   0.04848398  0.00000000  0.07190857       0.013
   0.00000000  0.02424199  0.07190857       0.013
   0.02424199  0.02424199  0.07190857       0.013
   0.04848398  0.02424199  0.07190857       0.013
  -0.04848398  0.02424199  0.07190857       0.013
  -0.02424199  0.02424199  0.07190857       0.013
   0.00000000  0.04848398  0.07190857       0.013
   0.02424199  0.04848398  0.07190857       0.013
   0.04848398  0.04848398  0.07190857       0.013
  -0.04848398  0.04848398  0.07190857       0.013
  -0.02424199  0.04848398  0.07190857       0.013
 
 k-points in reciprocal lattice and weights: automatic KPOINTS                       
   0.00000000  0.00000000  0.00000000       0.007
   0.20000000  0.00000000  0.00000000       0.013
   0.40000000  0.00000000  0.00000000       0.013
   0.00000000  0.20000000  0.00000000       0.013
   0.20000000  0.20000000  0.00000000       0.013
   0.40000000  0.20000000  0.00000000       0.013
  -0.40000000  0.20000000  0.00000000       0.013
  -0.20000000  0.20000000  0.00000000       0.013
   0.00000000  0.40000000  0.00000000       0.013
   0.20000000  0.40000000  0.00000000       0.013
   0.40000000  0.40000000  0.00000000       0.013
  -0.40000000  0.40000000  0.00000000       0.013
  -0.20000000  0.40000000  0.00000000       0.013
   0.00000000  0.00000000  0.16666667       0.013
   0.20000000  0.00000000  0.16666667       0.027
   0.40000000  0.00000000  0.16666667       0.027
   0.00000000  0.20000000  0.16666667       0.027
   0.20000000  0.20000000  0.16666667       0.027
   0.40000000  0.20000000  0.16666667       0.027
  -0.40000000  0.20000000  0.16666667       0.027
  -0.20000000  0.20000000  0.16666667       0.027
   0.00000000  0.40000000  0.16666667       0.027
   0.20000000  0.40000000  0.16666667       0.027
   0.40000000  0.40000000  0.16666667       0.027
  -0.40000000  0.40000000  0.16666667       0.027
  -0.20000000  0.40000000  0.16666667       0.027
   0.00000000  0.00000000  0.33333333       0.013
   0.20000000  0.00000000  0.33333333       0.027
   0.40000000  0.00000000  0.33333333       0.027
   0.00000000  0.20000000  0.33333333       0.027
   0.20000000  0.20000000  0.33333333       0.027
   0.40000000  0.20000000  0.33333333       0.027
  -0.40000000  0.20000000  0.33333333       0.027
  -0.20000000  0.20000000  0.33333333       0.027
   0.00000000  0.40000000  0.33333333       0.027
   0.20000000  0.40000000  0.33333333       0.027
   0.40000000  0.40000000  0.33333333       0.027
  -0.40000000  0.40000000  0.33333333       0.027
  -0.20000000  0.40000000  0.33333333       0.027
   0.00000000  0.00000000  0.50000000       0.007
   0.20000000  0.00000000  0.50000000       0.013
   0.40000000  0.00000000  0.50000000       0.013
   0.00000000  0.20000000  0.50000000       0.013
   0.20000000  0.20000000  0.50000000       0.013
   0.40000000  0.20000000  0.50000000       0.013
  -0.40000000  0.20000000  0.50000000       0.013
  -0.20000000  0.20000000  0.50000000       0.013
   0.00000000  0.40000000  0.50000000       0.013
   0.20000000  0.40000000  0.50000000       0.013
   0.40000000  0.40000000  0.50000000       0.013
  -0.40000000  0.40000000  0.50000000       0.013
  -0.20000000  0.40000000  0.50000000       0.013
 
 position of ions in fractional coordinates (direct lattice) 
   0.00000000  0.00000000  0.00000000
   0.00000000  0.00000000  0.50000000
   0.00000000  0.33333333  0.00000000
   0.00000000  0.33333333  0.50000000
   0.00000000  0.66666667  0.00000000
   0.00000000  0.66666667  0.50000000
   0.33333333  0.00000000  0.00000000
   0.33333333  0.00000000  0.50000000
   0.33333333  0.33333333  0.00000000
   0.33333333  0.33333333  0.50000000
   0.33333333  0.66666667  0.00000000
   0.33333333  0.66666667  0.50000000
   0.66666667  0.00000000  0.00000000
   0.66666667  0.00000000  0.50000000
   0.66666667  0.33333333  0.00000000
   0.66666667  0.33333333  0.50000000
   0.66666667  0.66666667  0.00000000
   0.66666667  0.66666667  0.50000000
   0.16666667  0.16666667  0.25000000
   0.16666667  0.16666667  0.75000000
   0.16666667  0.50000000  0.25000000
   0.16666667  0.50000000  0.75000000
   0.16666667  0.83333333  0.25000000
   0.16666667  0.83333333  0.75000000
   0.50000000  0.16666667  0.25000000
   0.50000000  0.16666667  0.75000000
   0.50000000  0.50000000  0.25000000
   0.50000000  0.50000000  0.75000000
   0.50000000  0.83333333  0.25000000
   0.50000000  0.83333333  0.75000000
   0.83333333  0.16666667  0.25000000
   0.83333333  0.16666667  0.75000000
   0.83333333  0.50000000  0.25000000
   0.83333333  0.50000000  0.75000000
   0.83333333  0.83333333  0.25000000
   0.83333333  0.83333333  0.75000000
 
 position of ions in cartesian coordinates  (Angst):
   0.00000000  0.00000000  0.00000000
   0.00000000  0.00000000  3.47663713
   0.00000000  2.75004939  0.00000000
   0.00000000  2.75004939  3.47663713
   0.00000000  5.50009878  0.00000000
   0.00000000  5.50009878  3.47663713
   2.75004939  0.00000000  0.00000000
   2.75004939  0.00000000  3.47663713
   2.75004939  2.75004939  0.00000000
   2.75004939  2.75004939  3.47663713
   2.75004939  5.50009878  0.00000000
   2.75004939  5.50009878  3.47663713
   5.50009878  0.00000000  0.00000000
   5.50009878  0.00000000  3.47663713
   5.50009878  2.75004939  0.00000000
   5.50009878  2.75004939  3.47663713
   5.50009878  5.50009878  0.00000000
   5.50009878  5.50009878  3.47663713
   1.37502469  1.37502469  1.73831857
   1.37502469  1.37502469  5.21495570
   1.37502469  4.12507408  1.73831857
   1.37502469  4.12507408  5.21495570
   1.37502469  6.87512347  1.73831857
   1.37502469  6.87512347  5.21495570
   4.12507408  1.37502469  1.73831857
   4.12507408  1.37502469  5.21495570
   4.12507408  4.12507408  1.73831857
   4.12507408  4.12507408  5.21495570
   4.12507408  6.87512347  1.73831857
   4.12507408  6.87512347  5.21495570
   6.87512347  1.37502469  1.73831857
   6.87512347  1.37502469  5.21495570
   6.87512347  4.12507408  1.73831857
   6.87512347  4.12507408  5.21495570
   6.87512347  6.87512347  1.73831857
   6.87512347  6.87512347  5.21495570
 


--------------------------------------------------------------------------------------------------------


 k-point  1 :   0.0000 0.0000 0.0000  plane waves:    8799
 k-point  2 :   0.2000 0.0000 0.0000  plane waves:    8753
 k-point  3 :   0.4000 0.0000 0.0000  plane waves:    8757
 k-point  4 :   0.0000 0.2000 0.0000  plane waves:    8753
 k-point  5 :   0.2000 0.2000 0.0000  plane waves:    8767
 k-point  6 :   0.4000 0.2000 0.0000  plane waves:    8761
 k-point  7 :  -0.4000 0.2000 0.0000  plane waves:    8761
 k-point  8 :  -0.2000 0.2000 0.0000  plane waves:    8767
 k-point  9 :   0.0000 0.4000 0.0000  plane waves:    8757
 k-point 10 :   0.2000 0.4000 0.0000  plane waves:    8761
 k-point 11 :   0.4000 0.4000 0.0000  plane waves:    8731
 k-point 12 :  -0.4000 0.4000 0.0000  plane waves:    8731
 k-point 13 :  -0.2000 0.4000 0.0000  plane waves:    8761
 k-point 14 :   0.0000 0.0000 0.1667  plane waves:    8763
 k-point 15 :   0.2000 0.0000 0.1667  plane waves:    8771
 k-point 16 :   0.4000 0.0000 0.1667  plane waves:    8747
 k-point 17 :   0.0000 0.2000 0.1667  plane waves:    8771
 k-point 18 :   0.2000 0.2000 0.1667  plane waves:    8764
 k-point 19 :   0.4000 0.2000 0.1667  plane waves:    8768
 k-point 20 :  -0.4000 0.2000 0.1667  plane waves:    8768
 k-point 21 :  -0.2000 0.2000 0.1667  plane waves:    8764
 k-point 22 :   0.0000 0.4000 0.1667  plane waves:    8747
 k-point 23 :   0.2000 0.4000 0.1667  plane waves:    8768
 k-point 24 :   0.4000 0.4000 0.1667  plane waves:    8740
 k-point 25 :  -0.4000 0.4000 0.1667  plane waves:    8740
 k-point 26 :  -0.2000 0.4000 0.1667  plane waves:    8768
 k-point 27 :   0.0000 0.0000 0.3333  plane waves:    8743
 k-point 28 :   0.2000 0.0000 0.3333  plane waves:    8736
 k-point 29 :   0.4000 0.0000 0.3333  plane waves:    8753
 k-point 30 :   0.0000 0.2000 0.3333  plane waves:    8736
 k-point 31 :   0.2000 0.2000 0.3333  plane waves:    8753
 k-point 32 :   0.4000 0.2000 0.3333  plane waves:    8743
 k-point 33 :  -0.4000 0.2000 0.3333  plane waves:    8743
 k-point 34 :  -0.2000 0.2000 0.3333  plane waves:    8753
 k-point 35 :   0.0000 0.4000 0.3333  plane waves:    8753
 k-point 36 :   0.2000 0.4000 0.3333  plane waves:    8743
 k-point 37 :   0.4000 0.4000 0.3333  plane waves:    8755
 k-point 38 :  -0.4000 0.4000 0.3333  plane waves:    8755
 k-point 39 :  -0.2000 0.4000 0.3333  plane waves:    8743
 k-point 40 :   0.0000 0.0000 0.5000  plane waves:    8742
 k-point 41 :   0.2000 0.0000 0.5000  plane waves:    8756
 k-point 42 :   0.4000 0.0000 0.5000  plane waves:    8744
 k-point 43 :   0.0000 0.2000 0.5000  plane waves:    8756
 k-point 44 :   0.2000 0.2000 0.5000  plane waves:    8762
 k-point 45 :   0.4000 0.2000 0.5000  plane waves:    8732
 k-point 46 :  -0.4000 0.2000 0.5000  plane waves:    8732
 k-point 47 :  -0.2000 0.2000 0.5000  plane waves:    8762
 k-point 48 :   0.0000 0.4000 0.5000  plane waves:    8744
 k-point 49 :   0.2000 0.4000 0.5000  plane waves:    8732
 k-point 50 :   0.4000 0.4000 0.5000  plane waves:    8736
 k-point 51 :  -0.4000 0.4000 0.5000  plane waves:    8736
 k-point 52 :  -0.2000 0.4000 0.5000  plane waves:    8732

 maximum and minimum number of plane-waves per node :      2210     2164

 maximum number of plane-waves:      8799
 maximum index in each direction: 
   IXMAX=   13   IYMAX=   13   IZMAX=   11
   IXMIN=  -13   IYMIN=  -13   IZMIN=  -11


 parallel 3D FFT for wavefunctions:
    minimum data exchange during FFTs selected (reduces bandwidth)
 parallel 3D FFT for charge:
    minimum data exchange during FFTs selected (reduces bandwidth)


 total amount of memory used by VASP MPI-rank0   705355. kBytes
=======================================================================

   base      :      30000. kBytes
   nonl-proj :      34307. kBytes
   fftplans  :      21726. kBytes
   grid      :      14732. kBytes
   one-center:        279. kBytes
   wavefun   :     604311. kBytes
 
     INWAV:  cpu time    0.0001: real time    0.0003
 Broyden mixing: mesh for mixing (old mesh)
   NGX = 27   NGY = 27   NGZ = 23
  (NGX  =108   NGY  =108   NGZ  = 96)
  gives a total of  16767 points

 initial charge density was supplied:
 charge density of overlapping atoms calculated
 number of electron     180.0000000 magnetization     -12.0000000
 keeping initial charge density in first step


--------------------------------------------------------------------------------------------------------


 Maximum index for augmentation-charges        11261 (set IRDMAX)


--------------------------------------------------------------------------------------------------------


 First call to EWALD:  gamma=   0.227
 Maximum number of real-space cells 3x 3x 3
 Maximum number of reciprocal cells 3x 3x 3

    FEWALD:  cpu time    0.0022: real time    0.0022


--------------------------------------- Iteration      1(   1)  ---------------------------------------


    POTLOK:  cpu time    0.2517: real time    0.2525
    SETDIJ:  cpu time    0.3337: real time    0.3346
    TRIAL :  cpu time   16.8056: real time   16.9753
    CORREC:  cpu time    0.0061: real time    0.0062
    --------------------------------------------
      LOOP:  cpu time   17.6003: real time   17.7796

 eigenvalue-minimisations  : 21632
 total energy-change (2. order) : 0.1370521E+04  (-0.5769646E+04)
 number of electron     180.0000000 magnetization     -12.0000000
 augmentation part      180.0000000 magnetization     -12.0000000

 Free energy of the ion-electron system (eV)
  ---------------------------------------------------
  alpha Z        PSCENC =       532.25742704
  Ewald energy   TEWEN  =     -8601.05107233
  -Hartree energ DENC   =     -1903.73857242
  -exchange      EXHF   =         0.00000000
  -V(xc)+E(xc)   XCENC  =      -664.41312909
  PAW double counting   =      8494.55058411    -7650.81563588
  entropy T*S    EENTRO =         0.00196259
  eigenvalues    EBANDS =      2698.61386961
  atomic energy  EATOM  =      8465.11600846
  ---------------------------------------------------
  free energy    TOTEN  =      1370.52144210 eV

  energy without entropy =     1370.51947951  energy(sigma->0) =     1370.52078790


--------------------------------------------------------------------------------------------------------




--------------------------------------- Iteration      1(   2)  ---------------------------------------


    TRIAL :  cpu time   16.9255: real time   17.0424
    CORREC:  cpu time    0.0076: real time    0.0085
    --------------------------------------------
      LOOP:  cpu time   16.9342: real time   17.0540

 eigenvalue-minimisations  : 21632
 total energy-change (2. order) :-0.1405701E+04  (-0.1386023E+04)
 number of electron     180.0000000 magnetization     -12.0000000
 augmentation part      180.0000000 magnetization     -12.0000000

 Free energy of the ion-electron system (eV)
  ---------------------------------------------------
  alpha Z        PSCENC =       532.25742704
  Ewald energy   TEWEN  =     -8601.05107233
  -Hartree energ DENC   =     -1903.73857242
  -exchange      EXHF   =         0.00000000
  -V(xc)+E(xc)   XCENC  =      -664.41312909
  PAW double counting   =      8494.55058411    -7650.81563588
  entropy T*S    EENTRO =        -0.00340535
  eigenvalues    EBANDS =      1292.91839751
  atomic energy  EATOM  =      8465.11600846
  ---------------------------------------------------
  free energy    TOTEN  =       -35.17939794 eV

  energy without entropy =      -35.17599259  energy(sigma->0) =      -35.17826283


--------------------------------------------------------------------------------------------------------




--------------------------------------- Iteration      1(   3)  ---------------------------------------


    TRIAL :  cpu time   24.5796: real time   24.8072
    CORREC:  cpu time    0.0083: real time    0.0084
    --------------------------------------------
      LOOP:  cpu time   24.5888: real time   24.8189

 eigenvalue-minimisations  : 33696
 total energy-change (2. order) :-0.1968655E+03  (-0.1832230E+03)
 number of electron     180.0000000 magnetization     -12.0000000
 augmentation part      180.0000000 magnetization     -12.0000000

 Free energy of the ion-electron system (eV)
  ---------------------------------------------------
  alpha Z        PSCENC =       532.25742704
  Ewald energy   TEWEN  =     -8601.05107233
  -Hartree energ DENC   =     -1903.73857242
  -exchange      EXHF   =         0.00000000
  -V(xc)+E(xc)   XCENC  =      -664.41312909
  PAW double counting   =      8494.55058411    -7650.81563588
  entropy T*S    EENTRO =         0.00174426
  eigenvalues    EBANDS =      1096.04778276
  atomic energy  EATOM  =      8465.11600846
  ---------------------------------------------------
  free energy    TOTEN  =      -232.04486309 eV

  energy without entropy =     -232.04660735  energy(sigma->0) =     -232.04544451


--------------------------------------------------------------------------------------------------------




--------------------------------------- Iteration      1(   4)  ---------------------------------------


    TRIAL :  cpu time   24.8719: real time   25.0437
    CORREC:  cpu time    0.0093: real time    0.0102
    --------------------------------------------
      LOOP:  cpu time   24.8821: real time   25.0570

 eigenvalue-minimisations  : 35608
 total energy-change (2. order) :-0.3259432E+02  (-0.2992993E+02)
 number of electron     180.0000000 magnetization     -12.0000000
 augmentation part      180.0000000 magnetization     -12.0000000

 Free energy of the ion-electron system (eV)
  ---------------------------------------------------
  alpha Z        PSCENC =       532.25742704
  Ewald energy   TEWEN  =     -8601.05107233
  -Hartree energ DENC   =     -1903.73857242
  -exchange      EXHF   =         0.00000000
  -V(xc)+E(xc)   XCENC  =      -664.41312909
  PAW double counting   =      8494.55058411    -7650.81563588
  entropy T*S    EENTRO =        -0.00321829
  eigenvalues    EBANDS =      1063.45842042
  atomic energy  EATOM  =      8465.11600846
  ---------------------------------------------------
  free energy    TOTEN  =      -264.63918798 eV

  energy without entropy =     -264.63596969  energy(sigma->0) =     -264.63811522


--------------------------------------------------------------------------------------------------------




--------------------------------------- Iteration      1(   5)  ---------------------------------------


    TRIAL :  cpu time   26.5581: real time   26.7651
    CORREC:  cpu time    0.0109: real time    0.0110
    --------------------------------------------
      LOOP:  cpu time   26.5700: real time   26.7795

 eigenvalue-minimisations  : 36888
 total energy-change (2. order) :-0.4311340E+01  (-0.4100011E+01)
 number of electron     180.0000000 magnetization     -12.0000000
 augmentation part      180.0000000 magnetization     -12.0000000

 Free energy of the ion-electron system (eV)
  ---------------------------------------------------
  alpha Z        PSCENC =       532.25742704
  Ewald energy   TEWEN  =     -8601.05107233
  -Hartree energ DENC   =     -1903.73857242
  -exchange      EXHF   =         0.00000000
  -V(xc)+E(xc)   XCENC  =      -664.41312909
  PAW double counting   =      8494.55058411    -7650.81563588
  entropy T*S    EENTRO =        -0.00434168
  eigenvalues    EBANDS =      1059.14820380
  atomic energy  EATOM  =      8465.11600846
  ---------------------------------------------------
  free energy    TOTEN  =      -268.95052798 eV

  energy without entropy =     -268.94618630  energy(sigma->0) =     -268.94908075


--------------------------------------------------------------------------------------------------------




--------------------------------------- Iteration      1(   6)  ---------------------------------------


    TRIAL :  cpu time   25.4086: real time   25.5458
    CORREC:  cpu time    0.0097: real time    0.0098
    --------------------------------------------
      LOOP:  cpu time   25.4610: real time   25.6001

 eigenvalue-minimisations  : 36536
 total energy-change (2. order) :-0.5374204E+00  (-0.5124120E+00)
 number of electron     180.0000000 magnetization     -12.0000000
 augmentation part      180.0000000 magnetization     -12.0000000

 Free energy of the ion-electron system (eV)
  ---------------------------------------------------
  alpha Z        PSCENC =       532.25742704
  Ewald energy   TEWEN  =     -8601.05107233
  -Hartree energ DENC   =     -1903.73857242
  -exchange      EXHF   =         0.00000000
  -V(xc)+E(xc)   XCENC  =      -664.41312909
  PAW double counting   =      8494.55058411    -7650.81563588
  entropy T*S    EENTRO =        -0.00253410
  eigenvalues    EBANDS =      1058.60897586
  atomic energy  EATOM  =      8465.11600846
  ---------------------------------------------------
  free energy    TOTEN  =      -269.48794834 eV

  energy without entropy =     -269.48541425  energy(sigma->0) =     -269.48710365


--------------------------------------------------------------------------------------------------------




--------------------------------------- Iteration      1(   7)  ---------------------------------------


    TRIAL :  cpu time   27.1357: real time   27.3831
    CORREC:  cpu time    0.0093: real time    0.0102
    --------------------------------------------
      LOOP:  cpu time   27.1458: real time   27.3970

 eigenvalue-minimisations  : 37400
 total energy-change (2. order) :-0.9729919E-01  (-0.9323609E-01)
 number of electron     180.0000000 magnetization     -12.0000000
 augmentation part      180.0000000 magnetization     -12.0000000

 Free energy of the ion-electron system (eV)
  ---------------------------------------------------
  alpha Z        PSCENC =       532.25742704
  Ewald energy   TEWEN  =     -8601.05107233
  -Hartree energ DENC   =     -1903.73857242
  -exchange      EXHF   =         0.00000000
  -V(xc)+E(xc)   XCENC  =      -664.41312909
  PAW double counting   =      8494.55058411    -7650.81563588
  entropy T*S    EENTRO =        -0.00083057
  eigenvalues    EBANDS =      1058.50997313
  atomic energy  EATOM  =      8465.11600846
  ---------------------------------------------------
  free energy    TOTEN  =      -269.58524754 eV

  energy without entropy =     -269.58441697  energy(sigma->0) =     -269.58497068


--------------------------------------------------------------------------------------------------------




--------------------------------------- Iteration      1(   8)  ---------------------------------------


    TRIAL :  cpu time   25.1834: real time   25.2895
    CORREC:  cpu time    0.0099: real time    0.0100
    CHARGE:  cpu time    1.0279: real time    1.0291
    --------------------------------------------
      LOOP:  cpu time   26.2229: real time   26.3327

 eigenvalue-minimisations  : 35760
 total energy-change (2. order) :-0.2181245E-01  (-0.2104134E-01)
 number of electron     179.9999997 magnetization      -8.6840463
 augmentation part       42.6734329 magnetization      -5.0615901

 Free energy of the ion-electron system (eV)
  ---------------------------------------------------
  alpha Z        PSCENC =       532.25742704
  Ewald energy   TEWEN  =     -8601.05107233
  -Hartree energ DENC   =     -1903.73857242
  -exchange      EXHF   =         0.00000000
  -V(xc)+E(xc)   XCENC  =      -664.41312909
  PAW double counting   =      8494.55058411    -7650.81563588
  entropy T*S    EENTRO =         0.00011283
  eigenvalues    EBANDS =      1058.48721729
  atomic energy  EATOM  =      8465.11600846
  ---------------------------------------------------
  free energy    TOTEN  =      -269.60705998 eV

  energy without entropy =     -269.60717282  energy(sigma->0) =     -269.60709760


--------------------------------------------------------------------------------------------------------




--------------------------------------- Iteration      1(   9)  ---------------------------------------


    POTLOK:  cpu time    0.2566: real time    0.2993
    SETDIJ:  cpu time    0.3177: real time    0.3178
    TRIAL :  cpu time    8.2967: real time    8.3640
    CORREC:  cpu time    3.2889: real time    3.3092
    CHARGE:  cpu time    1.0434: real time    1.0439
    --------------------------------------------
      LOOP:  cpu time   13.2087: real time   13.3404

 eigenvalue-minimisations  :     0
 total energy-change (2. order) : 0.2057214E+03  (-0.1454190E+03)
 number of electron     179.9999997 magnetization      -9.0992719
 augmentation part       54.3476929 magnetization      -5.9178687

 Free energy of the ion-electron system (eV)
  ---------------------------------------------------
  alpha Z        PSCENC =       532.25742704
  Ewald energy   TEWEN  =     -8601.05107233
  -Hartree energ DENC   =      -846.49436120
  -exchange      EXHF   =         0.00000000
  -V(xc)+E(xc)   XCENC  =      -694.37640218
  PAW double counting   =     12766.72620747   -11820.21359596
  entropy T*S    EENTRO =        -0.00199779
  eigenvalues    EBANDS =       134.15000458
  atomic energy  EATOM  =      8465.11600846
  ---------------------------------------------------
  free energy    TOTEN  =       -63.88567129 eV

  energy without entropy =      -63.88367351  energy(sigma->0) =      -63.88500537


--------------------------------------------------------------------------------------------------------




--------------------------------------- Iteration      1(  10)  ---------------------------------------


    POTLOK:  cpu time    0.2483: real time    0.2483
    SETDIJ:  cpu time    0.3239: real time    0.3239
    TRIAL :  cpu time    8.2872: real time    8.3944
    CORREC:  cpu time    4.1270: real time    4.1808
    CHARGE:  cpu time    1.0362: real time    1.0567
    --------------------------------------------
      LOOP:  cpu time   14.0271: real time   14.2102

 eigenvalue-minimisations  :     0
 total energy-change (2. order) :-0.1445813E+03  (-0.1004694E+02)
 number of electron     179.9999996 magnetization      -9.2161763
 augmentation part       57.7639264 magnetization      -6.2209508

 Free energy of the ion-electron system (eV)
  ---------------------------------------------------
  alpha Z        PSCENC =       532.25742704
  Ewald energy   TEWEN  =     -8601.05107233
  -Hartree energ DENC   =     -1370.80648607
  -exchange      EXHF   =         0.00000000
  -V(xc)+E(xc)   XCENC  =      -676.45634628
  PAW double counting   =     13610.91392822   -12778.72884371
  entropy T*S    EENTRO =         0.00186614
  eigenvalues    EBANDS =       610.29040806
  atomic energy  EATOM  =      8465.11600846
  ---------------------------------------------------
  free energy    TOTEN  =      -208.46697440 eV

  energy without entropy =     -208.46884054  energy(sigma->0) =     -208.46759645


--------------------------------------------------------------------------------------------------------




--------------------------------------- Iteration      1(  11)  ---------------------------------------


    POTLOK:  cpu time    0.2478: real time    0.2478
    SETDIJ:  cpu time    0.3215: real time    0.3215
    TRIAL :  cpu time    8.9629: real time    9.0406
    CORREC:  cpu time    3.2050: real time    3.2158
    CHARGE:  cpu time    1.0580: real time    1.0890
    --------------------------------------------
      LOOP:  cpu time   13.7971: real time   13.9173

 eigenvalue-minimisations  :     0
 total energy-change (2. order) :-0.9987003E+01  (-0.9163036E+01)
 number of electron     179.9999996 magnetization      -9.4621524
 augmentation part       59.0998249 magnetization      -6.4926182

 Free energy of the ion-electron system (eV)
  ---------------------------------------------------
  alpha Z        PSCENC =       532.25742704
  Ewald energy   TEWEN  =     -8601.05107233
  -Hartree energ DENC   =     -1564.79836548
  -exchange      EXHF   =         0.00000000
  -V(xc)+E(xc)   XCENC  =      -669.52404524
  PAW double counting   =     14420.63504583   -13623.78198589
  entropy T*S    EENTRO =        -0.00363286
  eigenvalues    EBANDS =       822.69114451
  atomic energy  EATOM  =      8465.11600846
  ---------------------------------------------------
  free energy    TOTEN  =      -218.45397696 eV

  energy without entropy =     -218.45034409  energy(sigma->0) =     -218.45276600


--------------------------------------------------------------------------------------------------------




--------------------------------------- Iteration      1(  12)  ---------------------------------------


    POTLOK:  cpu time    0.2488: real time    0.2489
    SETDIJ:  cpu time    0.3198: real time    0.3197
    TRIAL :  cpu time    8.3557: real time    8.3605
    CORREC:  cpu time    3.1542: real time    3.1720
    CHARGE:  cpu time    1.0810: real time    1.0816
    --------------------------------------------
      LOOP:  cpu time   13.2259: real time   13.2496

 eigenvalue-minimisations  :     0
 total energy-change (2. order) :-0.9156279E+01  (-0.5868598E+01)
 number of electron     179.9999996 magnetization      -9.3957838
 augmentation part       58.2579959 magnetization      -6.4895579

 Free energy of the ion-electron system (eV)
  ---------------------------------------------------
  alpha Z        PSCENC =       532.25742704
  Ewald energy   TEWEN  =     -8601.05107233
  -Hartree energ DENC   =     -1700.01509330
  -exchange      EXHF   =         0.00000000
  -V(xc)+E(xc)   XCENC  =      -665.26412894
  PAW double counting   =     14456.80231619   -13659.74392754
  entropy T*S    EENTRO =        -0.00492981
  eigenvalues    EBANDS =       944.29184744
  atomic energy  EATOM  =      8465.11600846
  ---------------------------------------------------
  free energy    TOTEN  =      -227.61025586 eV

  energy without entropy =     -227.60532605  energy(sigma->0) =     -227.60861259


--------------------------------------------------------------------------------------------------------




--------------------------------------- Iteration      1(  13)  ---------------------------------------


    POTLOK:  cpu time    0.2483: real time    0.2483
    SETDIJ:  cpu time    0.3214: real time    0.3214
    TRIAL :  cpu time    8.2816: real time    8.3830
    CORREC:  cpu time    3.1474: real time    3.1618
    CHARGE:  cpu time    1.0283: real time    1.0287
    --------------------------------------------
      LOOP:  cpu time   13.0308: real time   13.1479

 eigenvalue-minimisations  :     0
 total energy-change (2. order) :-0.5747267E+01  (-0.1026067E+01)
 number of electron     179.9999996 magnetization      -9.4104690
 augmentation part       57.3757653 magnetization      -6.4322734

 Free energy of the ion-electron system (eV)
  ---------------------------------------------------
  alpha Z        PSCENC =       532.25742704
  Ewald energy   TEWEN  =     -8601.05107233
  -Hartree energ DENC   =     -1699.08957610
  -exchange      EXHF   =         0.00000000
  -V(xc)+E(xc)   XCENC  =      -665.71962462
  PAW double counting   =     14253.49689666   -13434.01450205
  entropy T*S    EENTRO =        -0.00543165
  eigenvalues    EBANDS =       915.65185021
  atomic energy  EATOM  =      8465.11600846
  ---------------------------------------------------
  free energy    TOTEN  =      -233.35752254 eV

  energy without entropy =     -233.35209089  energy(sigma->0) =     -233.35571199


--------------------------------------------------------------------------------------------------------




--------------------------------------- Iteration      1(  14)  ---------------------------------------


    POTLOK:  cpu time    0.2484: real time    0.2485
    SETDIJ:  cpu time    0.3248: real time    0.3251
    TRIAL :  cpu time    8.3776: real time    8.4339
    CORREC:  cpu time    3.1642: real time    3.1660
    CHARGE:  cpu time    1.0242: real time    1.0247
    --------------------------------------------
      LOOP:  cpu time   13.1530: real time   13.2136

 eigenvalue-minimisations  :     0
 total energy-change (2. order) :-0.1015840E+01  (-0.8148326E+00)
 number of electron     179.9999996 magnetization      -9.3130716
 augmentation part       57.2318430 magnetization      -6.2986011

 Free energy of the ion-electron system (eV)
  ---------------------------------------------------
  alpha Z        PSCENC =       532.25742704
  Ewald energy   TEWEN  =     -8601.05107233
  -Hartree energ DENC   =     -1655.14533747
  -exchange      EXHF   =         0.00000000
  -V(xc)+E(xc)   XCENC  =      -667.41118698
  PAW double counting   =     13947.36384614   -13114.61386559
  entropy T*S    EENTRO =        -0.00338168
  eigenvalues    EBANDS =       859.11624976
  atomic energy  EATOM  =      8465.11600846
  ---------------------------------------------------
  free energy    TOTEN  =      -234.37336261 eV

  energy without entropy =     -234.36998093  energy(sigma->0) =     -234.37223539


--------------------------------------------------------------------------------------------------------




--------------------------------------- Iteration      1(  15)  ---------------------------------------


    POTLOK:  cpu time    0.2482: real time    0.2483
    SETDIJ:  cpu time    0.2891: real time    0.3671
    TRIAL :  cpu time    9.2778: real time    9.3608
    CORREC:  cpu time    4.1156: real time    4.1654
    CHARGE:  cpu time    1.0252: real time    1.0252
    --------------------------------------------
      LOOP:  cpu time   14.9596: real time   15.1717

 eigenvalue-minimisations  :     0
 total energy-change (2. order) :-0.8142445E+00  (-0.5545089E+00)
 number of electron     179.9999996 magnetization      -9.3235991
 augmentation part       57.7304434 magnetization      -6.2860565

 Free energy of the ion-electron system (eV)
  ---------------------------------------------------
  alpha Z        PSCENC =       532.25742704
  Ewald energy   TEWEN  =     -8601.05107233
  -Hartree energ DENC   =     -1639.58044002
  -exchange      EXHF   =         0.00000000
  -V(xc)+E(xc)   XCENC  =      -668.06608572
  PAW double counting   =     13424.34962711   -12586.47621745
  entropy T*S    EENTRO =        -0.00287105
  eigenvalues    EBANDS =       838.26652751
  atomic energy  EATOM  =      8465.11600846
  ---------------------------------------------------
  free energy    TOTEN  =      -235.18760708 eV

  energy without entropy =     -235.18473603  energy(sigma->0) =     -235.18665007


--------------------------------------------------------------------------------------------------------




--------------------------------------- Iteration      1(  16)  ---------------------------------------


    POTLOK:  cpu time    0.2478: real time    0.2481
    SETDIJ:  cpu time    0.3246: real time    0.3246
    TRIAL :  cpu time    8.3444: real time    8.4164
    CORREC:  cpu time    3.2497: real time    3.2517
    CHARGE:  cpu time    1.0242: real time    1.0244
    --------------------------------------------
      LOOP:  cpu time   13.2054: real time   13.2813

 eigenvalue-minimisations  :     0
 total energy-change (2. order) :-0.5564883E+00  (-0.1937308E+00)
 number of electron     179.9999996 magnetization      -9.2564478
 augmentation part       58.1343998 magnetization      -6.2981188

 Free energy of the ion-electron system (eV)
  ---------------------------------------------------
  alpha Z        PSCENC =       532.25742704
  Ewald energy   TEWEN  =     -8601.05107233
  -Hartree energ DENC   =     -1657.42970731
  -exchange      EXHF   =         0.00000000
  -V(xc)+E(xc)   XCENC  =      -667.43890010
  PAW double counting   =     13107.24425860   -12272.68018252
  entropy T*S    EENTRO =        -0.00143512
  eigenvalues    EBANDS =       858.24094387
  atomic energy  EATOM  =      8465.11600846
  ---------------------------------------------------
  free energy    TOTEN  =      -235.74409534 eV

  energy without entropy =     -235.74266022  energy(sigma->0) =     -235.74361697


--------------------------------------------------------------------------------------------------------




--------------------------------------- Iteration      1(  17)  ---------------------------------------


    POTLOK:  cpu time    0.2477: real time    0.2476
    SETDIJ:  cpu time    0.3221: real time    0.3221
    TRIAL :  cpu time    8.3120: real time    8.3255
    CORREC:  cpu time    3.1307: real time    3.1864
    CHARGE:  cpu time    1.0269: real time    1.0274
    --------------------------------------------
      LOOP:  cpu time   13.0456: real time   13.1153

 eigenvalue-minimisations  :     0
 total energy-change (2. order) :-0.1940184E+00  (-0.2123511E+00)
 number of electron     179.9999996 magnetization      -9.3087996
 augmentation part       58.2611150 magnetization      -6.3815079

 Free energy of the ion-electron system (eV)
  ---------------------------------------------------
  alpha Z        PSCENC =       532.25742704
  Ewald energy   TEWEN  =     -8601.05107233
  -Hartree energ DENC   =     -1675.10467058
  -exchange      EXHF   =         0.00000000
  -V(xc)+E(xc)   XCENC  =      -666.72072357
  PAW double counting   =     13033.26279472   -12202.80703566
  entropy T*S    EENTRO =         0.00104957
  eigenvalues    EBANDS =       879.11059334
  atomic energy  EATOM  =      8465.11600846
  ---------------------------------------------------
  free energy    TOTEN  =      -235.93811371 eV

  energy without entropy =     -235.93916328  energy(sigma->0) =     -235.93846356


--------------------------------------------------------------------------------------------------------




--------------------------------------- Iteration      1(  18)  ---------------------------------------


    POTLOK:  cpu time    0.2483: real time    0.2483
    SETDIJ:  cpu time    0.3201: real time    0.3322
    TRIAL :  cpu time    8.3181: real time    8.3760
    CORREC:  cpu time    3.1854: real time    3.2237
    CHARGE:  cpu time    1.0260: real time    1.0263
    --------------------------------------------
      LOOP:  cpu time   13.1109: real time   13.2203

 eigenvalue-minimisations  :     0
 total energy-change (2. order) :-0.2121273E+00  (-0.1358883E+00)
 number of electron     179.9999996 magnetization      -9.2964111
 augmentation part       58.0473993 magnetization      -6.4080231

 Free energy of the ion-electron system (eV)
  ---------------------------------------------------
  alpha Z        PSCENC =       532.25742704
  Ewald energy   TEWEN  =     -8601.05107233
  -Hartree energ DENC   =     -1678.12156890
  -exchange      EXHF   =         0.00000000
  -V(xc)+E(xc)   XCENC  =      -666.42239055
  PAW double counting   =     12970.06187956   -12141.02674707
  entropy T*S    EENTRO =         0.00291273
  eigenvalues    EBANDS =       883.03517320
  atomic energy  EATOM  =      8465.11600846
  ---------------------------------------------------
  free energy    TOTEN  =      -236.15024101 eV

  energy without entropy =     -236.15315374  energy(sigma->0) =     -236.15121192


--------------------------------------------------------------------------------------------------------




--------------------------------------- Iteration      1(  19)  ---------------------------------------


    POTLOK:  cpu time    0.2483: real time    0.2483
    SETDIJ:  cpu time    0.3199: real time    0.3202
    TRIAL :  cpu time    8.6425: real time    9.0611
    CORREC:  cpu time    3.2117: real time    3.2308
    CHARGE:  cpu time    1.0785: real time    1.0935
    --------------------------------------------
      LOOP:  cpu time   13.5069: real time   13.9617

 eigenvalue-minimisations  :     0
 total energy-change (2. order) :-0.1349410E+00  (-0.6568362E-01)
 number of electron     179.9999996 magnetization      -9.2976290
 augmentation part       57.8373922 magnetization      -6.4224111

 Free energy of the ion-electron system (eV)
  ---------------------------------------------------
  alpha Z        PSCENC =       532.25742704
  Ewald energy   TEWEN  =     -8601.05107233
  -Hartree energ DENC   =     -1665.36750371
  -exchange      EXHF   =         0.00000000
  -V(xc)+E(xc)   XCENC  =      -666.73246465
  PAW double counting   =     12931.03839566   -12099.80033102
  entropy T*S    EENTRO =         0.00376641
  eigenvalues    EBANDS =       868.25144580
  atomic energy  EATOM  =      8465.11600846
  ---------------------------------------------------
  free energy    TOTEN  =      -236.28518203 eV

  energy without entropy =     -236.28894844  energy(sigma->0) =     -236.28643750


--------------------------------------------------------------------------------------------------------




--------------------------------------- Iteration      1(  20)  ---------------------------------------


    POTLOK:  cpu time    0.2479: real time    0.2484
    SETDIJ:  cpu time    0.3185: real time    0.3191
    TRIAL :  cpu time    8.9602: real time    9.0073
    CORREC:  cpu time    3.2290: real time    3.2986
    CHARGE:  cpu time    1.0495: real time    1.0506
    --------------------------------------------
      LOOP:  cpu time   13.8095: real time   13.9305

 eigenvalue-minimisations  :     0
 total energy-change (2. order) :-0.6560996E-01  (-0.9635495E-01)
 number of electron     179.9999996 magnetization      -9.3233674
 augmentation part       57.7727402 magnetization      -6.4627501

 Free energy of the ion-electron system (eV)
  ---------------------------------------------------
  alpha Z        PSCENC =       532.25742704
  Ewald energy   TEWEN  =     -8601.05107233
  -Hartree energ DENC   =     -1655.43513903
  -exchange      EXHF   =         0.00000000
  -V(xc)+E(xc)   XCENC  =      -667.02344364
  PAW double counting   =     12917.69659235   -12084.35898561
  entropy T*S    EENTRO =         0.00615320
  eigenvalues    EBANDS =       856.44405435
  atomic energy  EATOM  =      8465.11600846
  ---------------------------------------------------
  free energy    TOTEN  =      -236.35079199 eV

  energy without entropy =     -236.35694519  energy(sigma->0) =     -236.35284306


--------------------------------------------------------------------------------------------------------




--------------------------------------- Iteration      1(  21)  ---------------------------------------


    POTLOK:  cpu time    0.2485: real time    0.2485
    SETDIJ:  cpu time    0.3243: real time    0.3243
    TRIAL :  cpu time    8.3316: real time    8.3425
    CORREC:  cpu time    3.2028: real time    3.2043
    CHARGE:  cpu time    1.0264: real time    1.0268
    --------------------------------------------
      LOOP:  cpu time   13.1363: real time   13.1491

 eigenvalue-minimisations  :     0
 total energy-change (2. order) :-0.9639277E-01  (-0.5160621E-01)
 number of electron     179.9999996 magnetization      -9.3573346
 augmentation part       57.8958263 magnetization      -6.5029154

 Free energy of the ion-electron system (eV)
  ---------------------------------------------------
  alpha Z        PSCENC =       532.25742704
  Ewald energy   TEWEN  =     -8601.05107233
  -Hartree energ DENC   =     -1655.59967619
  -exchange      EXHF   =         0.00000000
  -V(xc)+E(xc)   XCENC  =      -666.92068348
  PAW double counting   =     12935.57499520   -12102.02980438
  entropy T*S    EENTRO =         0.00710481
  eigenvalues    EBANDS =       856.19946773
  atomic energy  EATOM  =      8465.11600846
  ---------------------------------------------------
  free energy    TOTEN  =      -236.44718476 eV

  energy without entropy =     -236.45428957  energy(sigma->0) =     -236.44955303


--------------------------------------------------------------------------------------------------------




--------------------------------------- Iteration      1(  22)  ---------------------------------------


    POTLOK:  cpu time    0.2477: real time    0.2481
    SETDIJ:  cpu time    0.3382: real time    0.3386
    TRIAL :  cpu time    8.2632: real time    8.3740
    CORREC:  cpu time    3.1347: real time    3.1580
    CHARGE:  cpu time    1.0932: real time    1.0933
    --------------------------------------------
      LOOP:  cpu time   13.0795: real time   13.2157

 eigenvalue-minimisations  :     0
 total energy-change (2. order) :-0.5163227E-01  (-0.3103245E-01)
 number of electron     179.9999996 magnetization      -9.3640605
 augmentation part       58.0080883 magnetization      -6.5269875

 Free energy of the ion-electron system (eV)
  ---------------------------------------------------
  alpha Z        PSCENC =       532.25742704
  Ewald energy   TEWEN  =     -8601.05107233
  -Hartree energ DENC   =     -1664.23048769
  -exchange      EXHF   =         0.00000000
  -V(xc)+E(xc)   XCENC  =      -666.57171203
  PAW double counting   =     12962.29515688   -12130.36796814
  entropy T*S    EENTRO =         0.00835645
  eigenvalues    EBANDS =       866.04672597
  atomic energy  EATOM  =      8465.11600846
  ---------------------------------------------------
  free energy    TOTEN  =      -236.49881703 eV

  energy without entropy =     -236.50717348  energy(sigma->0) =     -236.50160251


--------------------------------------------------------------------------------------------------------




--------------------------------------- Iteration      1(  23)  ---------------------------------------


    POTLOK:  cpu time    0.2491: real time    0.2491
    SETDIJ:  cpu time    0.3213: real time    0.3213
    TRIAL :  cpu time    8.3923: real time    8.4362
    CORREC:  cpu time    3.1130: real time    3.1913
    CHARGE:  cpu time    1.0130: real time    1.0272
    --------------------------------------------
[...]
  8.437  14.377   0.000   0.001   0.000   0.000   0.002  -0.000
 14.377  24.502   0.000   0.001   0.000   0.000   0.003  -0.000
  0.000   0.000   1.996   0.000   0.000   5.747   0.000   0.000
  0.001   0.001   0.000   1.995  -0.000   0.000   5.746  -0.000
  0.000   0.000   0.000  -0.000   1.996   0.000  -0.000   5.747
  0.000   0.000   5.747   0.000   0.000  16.470   0.000   0.000
  0.002   0.003   0.000   5.746  -0.000   0.000  16.465  -0.000
 -0.000  -0.000   0.000  -0.000   5.747   0.000  -0.000  16.470
 total augmentation occupancy for first ion, spin component:           1
  4.369  -1.247   0.000  -0.002  -0.001  -0.000   0.000   0.000
 -1.247   0.374  -0.001  -0.000   0.002   0.000  -0.000  -0.000
  0.000  -0.001   1.395  -0.004  -0.002  -0.100   0.000   0.000
 -0.002  -0.000  -0.004   1.506   0.001   0.000  -0.102  -0.000
 -0.001   0.002  -0.002   0.001   1.410   0.000  -0.000  -0.101
 -0.000   0.000  -0.100   0.000   0.000   0.007  -0.000  -0.000
  0.000  -0.000   0.000  -0.102  -0.000  -0.000   0.007   0.000
  0.000  -0.000   0.000  -0.000  -0.101  -0.000   0.000   0.008
 total augmentation occupancy for first ion, spin component:           2
 -0.003   0.001  -0.000  -0.098   0.000   0.000   0.003  -0.000
  0.001  -0.001   0.001  -0.018  -0.000  -0.000   0.002   0.000
 -0.000   0.001  -0.005   0.000   0.001   0.000   0.000  -0.000
 -0.098  -0.018   0.000  -0.006  -0.001   0.000   0.000  -0.000
  0.000  -0.000   0.001  -0.001   0.004  -0.000  -0.000  -0.000
  0.000  -0.000   0.000   0.000  -0.000  -0.000  -0.000   0.000
  0.003   0.002   0.000   0.000  -0.000  -0.000  -0.000   0.000
 -0.000   0.000  -0.000  -0.000  -0.000   0.000   0.000  -0.000


------------------------ aborting loop because EDIFF is reached ----------------------------------------


 


 total charge     
 
# of ion       s       p       d       tot
------------------------------------------
    1        0.405   0.425   0.000   0.830
    2        0.405   0.426   0.000   0.831
    3        0.405   0.429   0.000   0.835
    4        0.405   0.430   0.000   0.835
    5        0.405   0.430   0.000   0.835
    6        0.405   0.429   0.000   0.835
    7        0.405   0.428   0.000   0.833
    8        0.405   0.428   0.000   0.833
    9        0.405   0.427   0.000   0.832
   10        0.405   0.427   0.000   0.832
   11        0.405   0.428   0.000   0.832
   12        0.405   0.428   0.000   0.833
   13        0.405   0.428   0.000   0.832
   14        0.405   0.427   0.000   0.832
   15        0.406   0.426   0.000   0.832
   16        0.406   0.427   0.000   0.833
   17        0.405   0.430   0.000   0.835
   18        0.405   0.430   0.000   0.834
   19        0.333   0.354   5.130   5.817
   20        0.332   0.353   5.135   5.821
   21        0.328   0.355   5.144   5.827
   22        0.333   0.358   5.117   5.808
   23        0.330   0.355   5.138   5.823
   24        0.333   0.349   5.143   5.825
   25        0.336   0.354   5.131   5.821
   26        0.333   0.345   5.151   5.829
   27        0.335   0.352   5.129   5.816
   28        0.335   0.356   5.125   5.816
   29        0.331   0.352   5.144   5.827
   30        0.333   0.356   5.126   5.815
   31        0.336   0.355   5.120   5.811
   32        0.333   0.358   5.119   5.811
   33        0.331   0.354   5.137   5.822
   34        0.330   0.348   5.157   5.835
   35        0.333   0.356   5.125   5.814
   36        0.335   0.355   5.124   5.813
--------------------------------------------------
tot         13.284  14.066  92.394 119.744
 


 magnetization (x)
 
# of ion       s       p       d       tot
------------------------------------------
    1       -0.000  -0.001   0.000  -0.001
    2       -0.000  -0.001   0.000  -0.001
    3        0.002   0.002   0.000   0.005
    4        0.002   0.002   0.000   0.005
    5        0.000   0.000   0.000   0.001
    6        0.001   0.000   0.000   0.001
    7        0.005   0.009   0.000   0.014
    8        0.005   0.008   0.000   0.013
    9        0.009   0.018   0.000   0.027
   10        0.009   0.018   0.000   0.027
   11        0.005   0.008   0.000   0.013
   12        0.005   0.008   0.000   0.013
   13        0.005   0.009   0.000   0.014
   14        0.005   0.009   0.000   0.014
   15        0.010   0.020   0.000   0.030
   16        0.010   0.020   0.000   0.029
   17        0.006   0.009   0.000   0.015
   18        0.006   0.010   0.000   0.016
   19        0.016   0.012   2.389   2.417
   20       -0.011  -0.013  -2.271  -2.295
   21        0.020   0.028   2.034   2.082
   22       -0.020  -0.033  -2.401  -2.455
   23        0.005  -0.002   2.251   2.253
   24       -0.013  -0.003  -2.271  -2.288
   25       -0.026  -0.026  -2.241  -2.293
   26       -0.017  -0.006  -2.287  -2.310
   27       -0.021  -0.009  -2.480  -2.510
   28       -0.025  -0.028  -2.408  -2.461
   29        0.024   0.022   2.165   2.211
   30       -0.010  -0.023  -2.312  -2.344
   31        0.025   0.030   2.506   2.560
   32       -0.018  -0.033  -2.396  -2.447
   33       -0.019  -0.030  -2.144  -2.194
   34        0.021   0.029   1.869   1.919
   35        0.013   0.019   2.398   2.430
   36       -0.021  -0.025  -2.427  -2.473
--------------------------------------------------
tot          0.006   0.058 -10.028  -9.965
 
    FORLOC:  cpu time    0.0290: real time    0.0290
    FORNL :  cpu time   12.3011: real time   12.3811
    STRESS:  cpu time   17.3499: real time   17.4831
    FORCOR:  cpu time    0.2701: real time    0.2701
    OFIELD:  cpu time    0.0016: real time    0.0016

  FORCE on cell =-STRESS in cart. coord.  units (eV):
  Direction    XX          YY          ZZ          XY          YZ          ZX
  --------------------------------------------------------------------------------------
  Alpha Z   532.25743   532.25743   532.25743
  Ewald   -2702.40749 -2702.40749 -3196.26924    -0.00000    -0.00000    -0.00000
  Hartree   722.77914   722.89416   221.22617     0.11651    -0.00000    -0.00000
  E(xc)    -760.47449  -760.55010  -759.45471    -0.04567    -0.00000    -0.00000
  Local     245.40838   244.50822  1271.21444    -0.46122    -0.00000     0.00000
  n-local  -111.74932  -112.08033  -119.92047    -0.45520    -0.28257    -0.08325
  augment   522.35391   522.71983   511.88095     0.24799     0.00001     0.00001
  Kinetic  1558.05564  1558.89175  1537.01863     0.39985     1.09527     0.03839
  Fock        0.00000     0.00000     0.00000     0.00000     0.00000     0.00000
  -------------------------------------------------------------------------------------
  Total       6.22318     6.23347    -2.04681    -0.19774     0.00000     0.00000
  in kB      21.06737    21.10220    -6.92908    -0.66943     0.00000     0.00000
  external pressure =       11.75 kB  Pullay stress =        0.00 kB


 VOLUME and BASIS-vectors are now :
 -----------------------------------------------------------------------------
  energy-cutoff  :      404.80
  volume of cell :      473.27
      direct lattice vectors                 reciprocal lattice vectors
     8.250148166  0.000000000  0.000000000     0.121209944  0.000000000  0.000000000
     0.000000000  8.250148166  0.000000000     0.000000000  0.121209944  0.000000000
     0.000000000  0.000000000  6.953274261     0.000000000  0.000000000  0.143817137

  length of vectors
     8.250148166  8.250148166  6.953274261     0.121209944  0.121209944  0.143817137


 FORCES acting on ions:
    Electron-Ion                     Ewald-Force                    Non-Local-Force
 -----------------------------------------------------------------------------------------------
   0.962E-02 -.115E-01 -.322E-01   -.239E-08 -.239E-08 0.411E-08   -.117E-01 0.107E-01 0.505E-01
   0.962E-02 -.115E-01 0.322E-01   -.239E-08 -.239E-08 0.411E-08   -.117E-01 0.107E-01 -.505E-01
   0.257E+00 -.173E+00 -.726E-02   -.239E-08 -.802E-09 0.411E-08   -.109E+00 0.989E-01 -.104E-01
   0.257E+00 -.173E+00 0.726E-02   -.239E-08 -.802E-09 0.411E-08   -.109E+00 0.989E-01 0.104E-01
   0.252E+00 0.187E+00 0.727E-02   -.239E-08 0.631E-08 0.411E-08   -.129E+00 -.116E+00 0.243E-01
   0.252E+00 0.187E+00 -.727E-02   -.239E-08 0.631E-08 0.411E-08   -.129E+00 -.116E+00 -.243E-01
   -.986E-01 -.116E+00 -.377E-01   -.802E-09 -.239E-08 0.411E-08   0.781E-01 0.632E-01 -.102E-01
   -.986E-01 -.116E+00 0.377E-01   -.802E-09 -.239E-08 0.411E-08   0.781E-01 0.632E-01 0.102E-01
   -.132E+00 0.269E-01 0.418E-01   -.802E-09 -.802E-09 0.411E-08   0.153E+00 0.612E-02 -.670E-01
   -.132E+00 0.269E-01 -.418E-01   -.802E-09 -.802E-09 0.411E-08   0.153E+00 0.612E-02 0.670E-01
   -.154E+00 0.101E+00 -.952E-02   -.802E-09 0.631E-08 0.411E-08   0.817E-01 -.748E-01 0.447E-03
   -.154E+00 0.101E+00 0.952E-02   -.802E-09 0.631E-08 0.411E-08   0.817E-01 -.748E-01 -.447E-03
   0.800E-01 -.117E+00 -.444E-01   0.631E-08 -.239E-08 0.411E-08   -.602E-01 0.509E-01 -.268E-01
   0.800E-01 -.117E+00 0.444E-01   0.631E-08 -.239E-08 0.411E-08   -.602E-01 0.509E-01 0.268E-01
   -.137E+00 0.973E-01 0.190E-01   0.631E-08 -.802E-09 0.411E-08   -.327E-01 0.267E-01 -.154E-01
   -.137E+00 0.973E-01 -.190E-01   0.631E-08 -.802E-09 0.411E-08   -.327E-01 0.267E-01 0.154E-01
   -.864E-01 0.441E-01 0.520E-01   0.631E-08 0.631E-08 0.411E-08   0.354E-01 -.914E-01 -.408E-01
   -.864E-01 0.441E-01 -.520E-01   0.631E-08 0.631E-08 0.411E-08   0.354E-01 -.914E-01 0.408E-01
   -.366E+00 0.351E-01 -.302E-08   -.169E-07 -.169E-07 -.411E-08   0.272E+00 -.863E-01 0.000E+00
   -.134E+00 0.103E+00 -.252E-08   -.169E-07 -.169E-07 -.411E-08   0.138E+00 -.136E+00 0.000E+00
   0.231E+00 0.766E-01 -.353E-08   -.169E-07 0.802E-09 -.411E-08   -.226E+00 -.667E-01 0.000E+00
   0.479E+00 -.209E-01 0.479E-09   -.169E-07 0.802E-09 -.411E-08   -.323E+00 0.336E-01 0.000E+00
   0.101E+00 -.131E+00 -.261E-08   -.169E-07 0.130E-07 -.411E-08   -.154E+00 0.163E+00 0.000E+00
   -.362E-01 -.858E-01 -.172E-08   -.169E-07 0.130E-07 -.411E-08   0.101E+00 0.127E+00 0.000E+00
   -.539E-01 0.638E+00 -.240E-08   0.802E-09 -.169E-07 -.411E-08   0.646E-01 -.250E+00 0.000E+00
   0.624E-01 0.102E+00 -.333E-08   0.802E-09 -.169E-07 -.411E-08   -.636E-01 -.152E+00 0.000E+00
   0.505E+00 -.469E+00 -.302E-08   0.802E-09 0.802E-09 -.411E-08   -.235E+00 0.189E+00 0.000E+00
   -.429E+00 0.159E-01 -.268E-09   0.802E-09 0.802E-09 -.411E-08   0.214E+00 0.195E-01 0.000E+00
   -.452E-01 -.180E+00 -.212E-08   0.802E-09 0.130E-07 -.411E-08   0.696E-02 0.212E+00 0.000E+00
   0.908E-01 -.109E+00 -.272E-08   0.802E-09 0.130E-07 -.411E-08   -.111E+00 0.124E+00 0.000E+00
   0.531E+00 -.662E+00 -.208E-08   0.130E-07 -.169E-07 -.411E-08   -.314E+00 0.352E+00 0.000E+00
   0.690E-01 -.431E+00 -.309E-08   0.130E-07 -.169E-07 -.411E-08   -.115E-01 0.201E+00 0.000E+00
   -.653E+00 0.186E-01 -.260E-08   0.130E-07 0.802E-09 -.411E-08   0.294E+00 -.696E-01 0.000E+00
   -.179E+00 0.103E+00 0.749E-10   0.130E-07 0.802E-09 -.411E-08   0.132E+00 -.138E+00 0.000E+00
   -.147E-01 0.499E+00 -.167E-08   0.130E-07 0.130E-07 -.411E-08   0.482E-01 -.295E+00 0.000E+00
   -.737E-01 0.405E+00 -.230E-08   0.130E-07 0.130E-07 -.411E-08   0.893E-01 -.161E+00 0.000E+00
 -----------------------------------------------------------------------------------------------
   0.659E-01 -.138E-01 -.751E-07   -.197E-14 0.275E-13 0.265E-14   -.660E-01 0.138E-01 0.000E+00
 
 
 POSITION                                       TOTAL-FORCE (eV/Angst)
 -----------------------------------------------------------------------------------
      0.00000      0.00000      0.00000        -0.002135     -0.001312      0.013972
      0.00000      0.00000      3.47664        -0.002135     -0.001312     -0.013972
      0.00000      2.75005      0.00000         0.157326     -0.081926     -0.016714
      0.00000      2.75005      3.47664         0.157326     -0.081926      0.016714
      0.00000      5.50010      0.00000         0.133871      0.079551      0.029772
      0.00000      5.50010      3.47664         0.133871      0.079551     -0.029772
      2.75005      0.00000      0.00000        -0.027063     -0.058961     -0.045776
      2.75005      0.00000      3.47664        -0.027063     -0.058961      0.045776
      2.75005      2.75005      0.00000         0.006978      0.033365     -0.018116
      2.75005      2.75005      3.47664         0.006978      0.033365      0.018116
      2.75005      5.50010      0.00000        -0.079793      0.032536     -0.008453
      2.75005      5.50010      3.47664        -0.079793      0.032536      0.008453
      5.50010      0.00000      0.00000         0.025911     -0.070673     -0.067947
      5.50010      0.00000      3.47664         0.025911     -0.070673      0.067947
      5.50010      2.75005      0.00000        -0.166254      0.122547      0.005540
      5.50010      2.75005      3.47664        -0.166254      0.122547     -0.005540
      5.50010      5.50010      0.00000        -0.053181     -0.039868      0.015056
      5.50010      5.50010      3.47664        -0.053181     -0.039868     -0.015056
      1.37502      1.37502      1.73832        -0.097455     -0.052307      0.000000
      1.37502      1.37502      5.21496         0.001536     -0.029747      0.000000
      1.37502      4.12507      1.73832         0.009695      0.010895      0.000000
      1.37502      4.12507      5.21496         0.163393      0.011410      0.000000
      1.37502      6.87512      1.73832        -0.052813      0.031124      0.000000
      1.37502      6.87512      5.21496         0.063379      0.038981      0.000000
      4.12507      1.37502      1.73832         0.012331      0.403142      0.000000
      4.12507      1.37502      5.21496         0.001611     -0.044786      0.000000
      4.12507      4.12507      1.73832         0.281355     -0.292316      0.000000
      4.12507      4.12507      5.21496        -0.227263      0.031823      0.000000
      4.12507      6.87512      1.73832        -0.038491      0.028039      0.000000
      4.12507      6.87512      5.21496        -0.017620      0.014466      0.000000
      6.87512      1.37502      1.73832         0.224236     -0.322660      0.000000
      6.87512      1.37502      5.21496         0.057242     -0.237874      0.000000
      6.87512      4.12507      1.73832        -0.371814     -0.054568      0.000000
      6.87512      4.12507      5.21496        -0.049317     -0.033645      0.000000
      6.87512      6.87512      1.73832         0.035088      0.214145      0.000000
      6.87512      6.87512      5.21496         0.013587      0.253363      0.000000
 -----------------------------------------------------------------------------------
    total drift:                               -0.000018      0.000063     -0.000000


--------------------------------------------------------------------------------------------------------



  FREE ENERGIE OF THE ION-ELECTRON SYSTEM (eV)
  ---------------------------------------------------
  free  energy   TOTEN  =      -236.71584032 eV

  energy  without entropy=     -236.73029138  energy(sigma->0) =     -236.72065734
 


--------------------------------------------------------------------------------------------------------


    POTLOK:  cpu time    0.5513: real time    0.5686


--------------------------------------------------------------------------------------------------------


     LOOP+:  cpu time 1461.9031: real time 1474.2462
    4ORBIT:  cpu time    0.0000: real time    0.0000
 


 total charge     
 
# of ion       s       p       d       tot
------------------------------------------
    1        0.405   0.425   0.000   0.830
    2        0.405   0.426   0.000   0.831
    3        0.405   0.429   0.000   0.835
    4        0.405   0.430   0.000   0.835
    5        0.405   0.430   0.000   0.835
    6        0.405   0.429   0.000   0.835
    7        0.405   0.428   0.000   0.833
    8        0.405   0.428   0.000   0.833
    9        0.405   0.427   0.000   0.832
   10        0.405   0.427   0.000   0.832
   11        0.405   0.428   0.000   0.832
   12        0.405   0.428   0.000   0.833
   13        0.405   0.428   0.000   0.832
   14        0.405   0.427   0.000   0.832
   15        0.406   0.426   0.000   0.832
   16        0.406   0.427   0.000   0.833
   17        0.405   0.430   0.000   0.835
   18        0.405   0.430   0.000   0.834
   19        0.333   0.354   5.130   5.817
   20        0.332   0.353   5.135   5.821
   21        0.328   0.355   5.144   5.827
   22        0.333   0.358   5.117   5.808
   23        0.330   0.355   5.138   5.823
   24        0.333   0.349   5.143   5.825
   25        0.336   0.354   5.131   5.821
   26        0.333   0.345   5.151   5.829
   27        0.335   0.352   5.129   5.816
   28        0.335   0.356   5.125   5.816
   29        0.331   0.352   5.144   5.827
   30        0.333   0.356   5.126   5.815
   31        0.336   0.355   5.120   5.811
   32        0.333   0.358   5.119   5.811
   33        0.331   0.354   5.137   5.822
   34        0.330   0.348   5.157   5.835
   35        0.333   0.356   5.125   5.814
   36        0.335   0.355   5.124   5.813
--------------------------------------------------
tot         13.284  14.066  92.394 119.744
 


 magnetization (x)
 
# of ion       s       p       d       tot
------------------------------------------
    1       -0.000  -0.001   0.000  -0.001
    2       -0.000  -0.001   0.000  -0.001
    3        0.002   0.002   0.000   0.005
    4        0.002   0.002   0.000   0.005
    5        0.000   0.000   0.000   0.001
    6        0.001   0.000   0.000   0.001
    7        0.005   0.009   0.000   0.014
    8        0.005   0.008   0.000   0.013
    9        0.009   0.018   0.000   0.027
   10        0.009   0.018   0.000   0.027
   11        0.005   0.008   0.000   0.013
   12        0.005   0.008   0.000   0.013
   13        0.005   0.009   0.000   0.014
   14        0.005   0.009   0.000   0.014
   15        0.010   0.020   0.000   0.030
   16        0.010   0.020   0.000   0.029
   17        0.006   0.009   0.000   0.015
   18        0.006   0.010   0.000   0.016
   19        0.016   0.012   2.389   2.417
   20       -0.011  -0.013  -2.271  -2.295
   21        0.020   0.028   2.034   2.082
   22       -0.020  -0.033  -2.401  -2.455
   23        0.005  -0.002   2.251   2.253
   24       -0.013  -0.003  -2.271  -2.288
   25       -0.026  -0.026  -2.241  -2.293
   26       -0.017  -0.006  -2.287  -2.310
   27       -0.021  -0.009  -2.480  -2.510
   28       -0.025  -0.028  -2.408  -2.461
   29        0.024   0.022   2.165   2.211
   30       -0.010  -0.023  -2.312  -2.344
   31        0.025   0.030   2.506   2.560
   32       -0.018  -0.033  -2.396  -2.447
   33       -0.019  -0.030  -2.144  -2.194
   34        0.021   0.029   1.869   1.919
   35        0.013   0.019   2.398   2.430
   36       -0.021  -0.025  -2.427  -2.473
--------------------------------------------------
tot          0.006   0.058 -10.028  -9.965
 

 total amount of memory used by VASP MPI-rank0   705355. kBytes
=======================================================================

   base      :      30000. kBytes
   nonl-proj :      34307. kBytes
   fftplans  :      21726. kBytes
   grid      :      14732. kBytes
   one-center:        279. kBytes
   wavefun   :     604311. kBytes
 
  
  
 General timing and accounting informations for this job:
 ========================================================
  
                  Total CPU time used (sec):     1485.677
                            User time (sec):     1460.892
                          System time (sec):       24.785
                         Elapsed time (sec):     1500.207
  
                   Maximum memory used (kb):      840040.
                   Average memory used (kb):           0.
  
                          Minor page faults:       700122
                          Major page faults:           17
                 Voluntary context switches:         5792
