 vasp.5.4.4.18Apr17-6-g9f103f2a35 (build Dec 20 2018 12:05:58) complex          
  
 executed on             LinuxIFC date 2019.06.20  17:43:17
 running on   32 total cores
 distrk:  each k-point on    8 cores,    4 groups
 distr:  one band on NCORES_PER_BAND=   4 cores,    2 groups


--------------------------------------------------------------------------------------------------------


 INCAR:
 POTCAR:    PAW_PBE Al 04Jan2001                  
 POTCAR:    PAW_PBE Mn 06Sep2000                  

 ----------------------------------------------------------------------------- 
|                                                                             |
|           W    W    AA    RRRRR   N    N  II  N    N   GGGG   !!!           |
|           W    W   A  A   R    R  NN   N  II  NN   N  G    G  !!!           |
|           W    W  A    A  R    R  N N  N  II  N N  N  G       !!!           |
|           W WW W  AAAAAA  RRRRR   N  N N  II  N  N N  G  GGG   !            |
|           WW  WW  A    A  R   R   N   NN  II  N   NN  G    G                |
|           W    W  A    A  R    R  N    N  II  N    N   GGGG   !!!           |
|                                                                             |
|      You have enabled k-point parallelism (KPAR>1).                         |
|      This developmental code was originally  written by Paul Kent at ORNL,  |
|      and carefully double checked in Vienna.                                |
|      GW as well as linear response parallelism added by Martijn Marsman     |
|      and Georg Kresse.                                                      |
|      Carefully verify results versus KPAR=1.                                |
|      Report problems to Paul Kent and Vienna.                               |
|                                                                             |
 ----------------------------------------------------------------------------- 

 POTCAR:    PAW_PBE Al 04Jan2001                  
   VRHFIN =Al: s2p1                                                             
   LEXCH  = PE                                                                  
   EATOM  =    53.5387 eV,    3.9350 Ry                                         
                                                                                
   TITEL  = PAW_PBE Al 04Jan2001                                                
   LULTRA =        F    use ultrasoft PP ?                                      
   IUNSCR =        1    unscreen: 0-lin 1-nonlin 2-no                           
   RPACOR =    1.500    partial core radius                                     
   POMASS =   26.981; ZVAL   =    3.000    mass and valenz                      
   RCORE  =    1.900    outmost cutoff radius                                   
   RWIGS  =    2.650; RWIGS  =    1.402    wigner-seitz radius (au A)           
   ENMAX  =  240.300; ENMIN  =  180.225 eV                                      
   ICORE  =        2    local potential                                         
   LCOR   =        T    correct aug charges                                     
   LPAW   =        T    paw PP                                                  
   EAUG   =  291.052                                                            
   DEXC   =    0.000                                                            
   RMAX   =    1.939    core radius for proj-oper                               
   RAUG   =    1.300    factor for augmentation sphere                          
   RDEP   =    1.966    radius for radial grids                                 
   RDEPT  =    1.856    core radius for aug-charge                              
                                                                                
   Atomic configuration                                                         
    6 entries                                                                   
     n  l   j            E        occ.                                          
     1  0  0.50     -1511.1048   2.0000                                         
     2  0  0.50      -108.1629   2.0000                                         
     2  1  1.50       -69.6402   6.0000                                         
     3  0  0.50        -7.7528   2.0000                                         
     3  1  1.50        -2.7121   1.0000                                         
     3  2  2.50        -2.7212   0.0000                                         
   Description                                                                  
     l       E           TYP  RCUT    TYP  RCUT                                 
     0     -7.7528455     23  1.900                                             
     0     -3.3096929     23  1.900                                             
     1     -2.7120682     23  1.900                                             
     1     13.6058260     23  1.900                                             
     2     -2.7211652      7  1.900                                             
  local pseudopotential read in
  partial core-charges read in
  partial kinetic energy density read in
  atomic valenz-charges read in
  non local Contribution for L=           0  read in
    real space projection operators read in
  non local Contribution for L=           0  read in
    real space projection operators read in
  non local Contribution for L=           1  read in
    real space projection operators read in
  non local Contribution for L=           1  read in
    real space projection operators read in
    PAW grid and wavefunctions read in
 
   number of l-projection  operators is LMAX  =           4
   number of lm-projection operators is LMMAX =           8
 
 POTCAR:    PAW_PBE Mn 06Sep2000                  
   VRHFIN =Mn: d6 s1                                                            
   LEXCH  = PE                                                                  
   EATOM  =   416.7541 eV,   30.6306 Ry                                         
                                                                                
   TITEL  = PAW_PBE Mn 06Sep2000                                                
   LULTRA =        F    use ultrasoft PP ?                                      
   IUNSCR =        1    unscreen: 0-lin 1-nonlin 2-no                           
   RPACOR =    2.000    partial core radius                                     
   POMASS =   54.938; ZVAL   =    7.000    mass and valenz                      
   RCORE  =    2.300    outmost cutoff radius                                   
   RWIGS  =    2.500; RWIGS  =    1.323    wigner-seitz radius (au A)           
   ENMAX  =  269.864; ENMIN  =  202.398 eV                                      
   RCLOC  =    1.725    cutoff for local pot                                    
   LCOR   =        T    correct aug charges                                     
   LPAW   =        T    paw PP                                                  
   EAUG   =  500.711                                                            
   DEXC   =    0.000                                                            
   RMAX   =    2.343    core radius for proj-oper                               
   RAUG   =    1.300    factor for augmentation sphere                          
   RDEP   =    2.338    radius for radial grids                                 
   RDEPT  =    1.911    core radius for aug-charge                              
                                                                                
   Atomic configuration                                                         
    9 entries                                                                   
     n  l   j            E        occ.                                          
     1  0  0.50     -6424.8288   2.0000                                         
     2  0  0.50      -739.1154   2.0000                                         
     2  1  1.50      -625.3949   6.0000                                         
     3  0  0.50       -81.6100   2.0000                                         
     3  1  1.50       -50.4667   6.0000                                         
     3  2  2.50        -3.3745   6.0000                                         
     4  0  0.50        -4.1331   1.0000                                         
     4  1  0.50        -4.0817   0.0000                                         
     4  3  2.50        -1.3606   0.0000                                         
   Description                                                                  
     l       E           TYP  RCUT    TYP  RCUT                                 
     2     -3.3744664     23  2.300                                             
     2     -4.7350490     23  2.300                                             
     0     -4.1331408     23  2.300                                             
     0      7.6656614     23  2.300                                             
     1     -2.7211652     23  2.300                                             
     1     20.4087390     23  2.300                                             
  local pseudopotential read in
  partial core-charges read in
  partial kinetic energy density read in
  atomic valenz-charges read in
  non local Contribution for L=           2  read in
    real space projection operators read in
  non local Contribution for L=           2  read in
    real space projection operators read in
  non local Contribution for L=           0  read in
    real space projection operators read in
  non local Contribution for L=           0  read in
    real space projection operators read in
  non local Contribution for L=           1  read in
    real space projection operators read in
  non local Contribution for L=           1  read in
    real space projection operators read in
    PAW grid and wavefunctions read in
 
   number of l-projection  operators is LMAX  =           6
   number of lm-projection operators is LMMAX =          18
 

 ----------------------------------------------------------------------------- 
|                                                                             |
|  ADVICE TO THIS USER RUNNING 'VASP/VAMP'   (HEAR YOUR MASTER'S VOICE ...):  |
|                                                                             |
|      You have a (more or less) 'large supercell' and for larger cells       |
|      it might be more efficient to use real space projection opertators     |
|      So try LREAL= Auto  in the INCAR   file.                               |
|      Mind:          For very  accurate calculation you might also keep the  |
|      reciprocal projection scheme          (i.e. LREAL=.FALSE.)             |
|                                                                             |
 ----------------------------------------------------------------------------- 

  PAW_PBE Al 04Jan2001                  :
 energy of atom  1       EATOM=  -53.5387
 kinetic energy error for atom=    0.0005 (will be added to EATOM!!)
  PAW_PBE Mn 06Sep2000                  :
 energy of atom  2       EATOM= -416.7541
 kinetic energy error for atom=    0.0080 (will be added to EATOM!!)
 
 
 POSCAR: NewRef: 27, @ ['Mn', array([1.37502469, 
  positions in cartesian coordinates
  velocities in cartesian coordinates
  No initial velocities read in
 exchange correlation table for  LEXCH =        8
   RHO(1)=    0.500       N(1)  =     2000
   RHO(2)=  100.500       N(2)  =     4000
 


--------------------------------------------------------------------------------------------------------


 ion  position               nearest neighbor table
   1  0.000  0.000  0.000-  28 2.61  30 2.61  34 2.61  36 2.61  46 2.61  48 2.61  52 2.61  54 2.61
                             4 2.75  10 2.75   7 2.75  19 2.75
   2  0.000  0.000  0.333-  28 2.61  34 2.61  46 2.61  52 2.61  29 2.61  47 2.61  35 2.61  53 2.61
                             5 2.75  11 2.75   8 2.75  20 2.75
   3  0.000  0.000  0.667-  29 2.61  35 2.61  47 2.61  53 2.61  30 2.61  48 2.61  36 2.61  54 2.61
                             6 2.75  12 2.75   9 2.75  21 2.75
   4  0.000  0.333  0.000-  28 2.61  30 2.61  46 2.61  48 2.61  31 2.61  33 2.61  49 2.61  51 2.61
                            13 2.75   1 2.75   7 2.75  22 2.75
   5  0.000  0.333  0.333-  28 2.61  46 2.61  31 2.61  49 2.61  47 2.61  29 2.61  32 2.61  50 2.61
                            14 2.75   2 2.75   8 2.75  23 2.75
   6  0.000  0.333  0.667-  29 2.61  47 2.61  32 2.61  50 2.61  48 2.61  30 2.61  33 2.61  51 2.61
                            15 2.75   3 2.75   9 2.75  24 2.75
   7  0.000  0.667  0.000-  31 2.61  33 2.61  49 2.61  51 2.61  34 2.61  36 2.61  52 2.61  54 2.61
                             4 2.75  16 2.75   1 2.75  25 2.75
   8  0.000  0.667  0.333-  31 2.61  49 2.61  34 2.61  52 2.61  50 2.61  32 2.61  35 2.61  53 2.61
                             5 2.75  17 2.75   2 2.75  26 2.75
   9  0.000  0.667  0.667-  32 2.61  50 2.61  35 2.61  53 2.61  51 2.61  33 2.61  36 2.61  54 2.61
                             6 2.75  18 2.75   3 2.75  27 2.75
  10  0.333  0.000  0.000-  28 2.61  30 2.61  34 2.61  36 2.61  37 2.61  39 2.61  43 2.61  45 2.61
                            19 2.75   1 2.75  13 2.75  16 2.75
  11  0.333  0.000  0.333-  28 2.61  34 2.61  37 2.61  43 2.61  29 2.61  35 2.61  38 2.61  44 2.61
                            20 2.75   2 2.75  14 2.75  17 2.75
  12  0.333  0.000  0.667-  29 2.61  35 2.61  38 2.61  44 2.61  30 2.61  36 2.61  39 2.61  45 2.61
                            21 2.75   3 2.75  15 2.75  18 2.75
  13  0.333  0.333  0.000-  28 2.61  30 2.61  31 2.61  33 2.61  37 2.61  39 2.61  40 2.61  42 2.61
                             4 2.75  10 2.75  16 2.75  22 2.75
  14  0.333  0.333  0.333-  28 2.61  31 2.61  37 2.61  29 2.61  40 2.61  38 2.61  32 2.61  41 2.61
                             5 2.75  11 2.75  17 2.75  23 2.75
  15  0.333  0.333  0.667-  29 2.61  32 2.61  38 2.61  30 2.61  41 2.61  39 2.61  33 2.61  42 2.61
                             6 2.75  12 2.75  18 2.75  24 2.75
  16  0.333  0.667  0.000-  31 2.61  33 2.61  34 2.61  36 2.61  40 2.61  42 2.61  43 2.61  45 2.61
                            25 2.75   7 2.75  13 2.75  10 2.75
  17  0.333  0.667  0.333-  31 2.61  34 2.61  40 2.61  32 2.61  43 2.61  41 2.61  35 2.61  44 2.61
                            26 2.75   8 2.75  14 2.75  11 2.75
  18  0.333  0.667  0.667-  32 2.61  35 2.61  41 2.61  33 2.61  44 2.61  42 2.61  36 2.61  45 2.61
                            27 2.75   9 2.75  15 2.75  12 2.75
  19  0.667  0.000  0.000-  37 2.61  39 2.61  43 2.61  45 2.61  46 2.61  48 2.61  52 2.61  54 2.61
                            10 2.75  22 2.75   1 2.75  25 2.75
  20  0.667  0.000  0.333-  37 2.61  43 2.61  46 2.61  52 2.61  38 2.61  44 2.61  47 2.61  53 2.61
                            11 2.75  23 2.75   2 2.75  26 2.75
  21  0.667  0.000  0.667-  38 2.61  44 2.61  47 2.61  53 2.61  39 2.61  45 2.61  48 2.61  54 2.61
                            12 2.75  24 2.75   3 2.75  27 2.75
  22  0.667  0.333  0.000-  37 2.61  39 2.61  40 2.61  42 2.61  46 2.61  48 2.61  49 2.61  51 2.61
                            25 2.75  13 2.75  19 2.75   4 2.75
  23  0.667  0.333  0.333-  37 2.61  40 2.61  46 2.61  38 2.61  49 2.61  47 2.61  41 2.61  50 2.61
                            26 2.75  14 2.75  20 2.75   5 2.75
  24  0.667  0.333  0.667-  38 2.61  41 2.61  47 2.61  39 2.61  50 2.61  48 2.61  42 2.61  51 2.61
                            27 2.75  15 2.75  21 2.75   6 2.75
  25  0.667  0.667  0.000-  40 2.61  42 2.61  43 2.61  45 2.61  49 2.61  51 2.61  52 2.61  54 2.61
                            16 2.75  22 2.75  19 2.75   7 2.75
  26  0.667  0.667  0.333-  40 2.61  43 2.61  49 2.61  41 2.61  52 2.61  50 2.61  44 2.61  53 2.61
                            17 2.75  23 2.75  20 2.75   8 2.75
  27  0.667  0.667  0.667-  41 2.61  44 2.61  50 2.61  42 2.61  53 2.61  51 2.61  45 2.61  54 2.61
                            18 2.75  24 2.75  21 2.75   9 2.75
  28  0.167  0.167  0.167-  14 2.61  11 2.61   5 2.61  13 2.61   2 2.61  10 2.61   4 2.61   1 2.61
                            31 2.75  37 2.75  34 2.75  46 2.75
  29  0.167  0.167  0.500-  15 2.61  12 2.61   6 2.61  14 2.61   3 2.61  11 2.61   5 2.61   2 2.61
                            32 2.75  38 2.75  35 2.75  47 2.75
  30  0.167  0.167  0.833-  13 2.61  15 2.61  10 2.61  12 2.61   4 2.61   6 2.61   1 2.61   3 2.61
                            33 2.75  39 2.75  36 2.75  48 2.75
  31  0.167  0.500  0.167-  17 2.61  14 2.61   8 2.61  16 2.61   5 2.61  13 2.61   7 2.61   4 2.61
                            28 2.75  34 2.75  40 2.75  49 2.75
  32  0.167  0.500  0.500-  18 2.61  15 2.61   9 2.61  17 2.61   6 2.61  14 2.61   8 2.61   5 2.61
                            29 2.75  35 2.75  41 2.75  50 2.75
  33  0.167  0.500  0.833-  16 2.61  18 2.61  13 2.61  15 2.61   7 2.61   9 2.61   4 2.61   6 2.61
                            30 2.75  36 2.75  42 2.75  51 2.75
  34  0.167  0.833  0.167-  11 2.61  17 2.61   2 2.61   8 2.61  16 2.61  10 2.61   7 2.61   1 2.61
                            31 2.75  43 2.75  28 2.75  52 2.75
  35  0.167  0.833  0.500-  12 2.61  18 2.61   3 2.61   9 2.61  17 2.61  11 2.61   8 2.61   2 2.61
                            32 2.75  44 2.75  29 2.75  53 2.75
  36  0.167  0.833  0.833-  10 2.61  12 2.61  16 2.61  18 2.61   1 2.61   3 2.61   7 2.61   9 2.61
                            33 2.75  45 2.75  30 2.75  54 2.75
  37  0.500  0.167  0.167-  23 2.61  20 2.61  14 2.61  22 2.61  11 2.61  19 2.61  13 2.61  10 2.61
                            28 2.75  40 2.75  46 2.75  43 2.75
  38  0.500  0.167  0.500-  24 2.61  21 2.61  15 2.61  23 2.61  12 2.61  20 2.61  14 2.61  11 2.61
                            29 2.75  41 2.75  47 2.75  44 2.75
  39  0.500  0.167  0.833-  22 2.61  24 2.61  19 2.61  21 2.61  13 2.61  15 2.61  10 2.61  12 2.61
                            30 2.75  42 2.75  48 2.75  45 2.75
  40  0.500  0.500  0.167-  26 2.61  23 2.61  17 2.61  25 2.61  14 2.61  22 2.61  16 2.61  13 2.61
                            31 2.75  37 2.75  43 2.75  49 2.75
  41  0.500  0.500  0.500-  27 2.61  24 2.61  18 2.61  26 2.61  15 2.61  23 2.61  17 2.61  14 2.61
                            32 2.75  38 2.75  44 2.75  50 2.75
  42  0.500  0.500  0.833-  25 2.61  27 2.61  22 2.61  24 2.61  16 2.61  18 2.61  13 2.61  15 2.61
                            33 2.75  39 2.75  45 2.75  51 2.75
  43  0.500  0.833  0.167-  20 2.61  26 2.61  11 2.61  17 2.61  25 2.61  19 2.61  16 2.61  10 2.61
                            34 2.75  40 2.75  52 2.75  37 2.75
  44  0.500  0.833  0.500-  21 2.61  27 2.61  12 2.61  18 2.61  26 2.61  20 2.61  17 2.61  11 2.61
                            35 2.75  41 2.75  53 2.75  38 2.75
  45  0.500  0.833  0.833-  19 2.61  21 2.61  25 2.61  27 2.61  10 2.61  12 2.61  16 2.61  18 2.61
                            36 2.75  42 2.75  54 2.75  39 2.75
  46  0.833  0.167  0.167-   5 2.61  23 2.61  20 2.61   2 2.61  22 2.61   4 2.61  19 2.61   1 2.61
                            37 2.75  49 2.75  28 2.75  52 2.75
  47  0.833  0.167  0.500-   6 2.61  24 2.61  21 2.61   3 2.61  23 2.61   5 2.61  20 2.61   2 2.61
                            38 2.75  50 2.75  29 2.75  53 2.75
  48  0.833  0.167  0.833-   4 2.61   6 2.61  22 2.61  24 2.61  19 2.61  21 2.61   1 2.61   3 2.61
                            39 2.75  51 2.75  30 2.75  54 2.75
  49  0.833  0.500  0.167-   8 2.61  26 2.61  23 2.61   5 2.61  25 2.61   7 2.61  22 2.61   4 2.61
                            40 2.75  46 2.75  52 2.75  31 2.75
  50  0.833  0.500  0.500-   9 2.61  27 2.61  24 2.61   6 2.61  26 2.61   8 2.61  23 2.61   5 2.61
                            41 2.75  47 2.75  53 2.75  32 2.75
  51  0.833  0.500  0.833-   7 2.61   9 2.61  25 2.61  27 2.61  22 2.61  24 2.61   4 2.61   6 2.61
                            42 2.75  48 2.75  54 2.75  33 2.75
  52  0.833  0.833  0.167-   2 2.61   8 2.61  20 2.61  26 2.61  19 2.61   7 2.61  25 2.61   1 2.61
                            43 2.75  49 2.75  46 2.75  34 2.75
  53  0.833  0.833  0.500-   3 2.61   9 2.61  21 2.61  27 2.61  20 2.61   8 2.61  26 2.61   2 2.61
                            44 2.75  50 2.75  47 2.75  35 2.75
  54  0.833  0.833  0.833-   1 2.61   3 2.61   7 2.61   9 2.61  19 2.61  21 2.61  25 2.61  27 2.61
                            45 2.75  51 2.75  48 2.75  36 2.75
 
  LATTYP: Found a simple tetragonal cell.
 ALAT       =     8.2501481662
 C/A-ratio  =     1.2642089792
  
  Lattice vectors:
  
 A1 = (   8.2501481662,   0.0000000000,   0.0000000000)
 A2 = (   0.0000000000,   8.2501481662,   0.0000000000)
 A3 = (   0.0000000000,   0.0000000000,  10.4299113916)


Analysis of symmetry for initial positions (statically):
=====================================================================
 Subroutine PRICEL returns following result:
 
  LATTYP: Found a simple tetragonal cell.
 ALAT       =     2.7500493888
 C/A-ratio  =     1.2642089792
  
  Lattice vectors:
  
 A1 = (   2.7500493888,   0.0000000000,   0.0000000000)
 A2 = (   0.0000000000,   2.7500493888,   0.0000000000)
 A3 = (   0.0000000000,   0.0000000000,   3.4766371306)
 
  27 primitive cells build up your supercell.
 

 Routine SETGRP: Setting up the symmetry group for a 
 simple tetragonal supercell.


 Subroutine GETGRP returns: Found 16 space group operations
 (whereof 16 operations were pure point group operations)
 out of a pool of 16 trial point group operations.


The static configuration has the point symmetry D_4h.


Analysis of symmetry for dynamics (positions and initial velocities):
=====================================================================
 Subroutine PRICEL returns following result:
 
  LATTYP: Found a simple tetragonal cell.
 ALAT       =     2.7500493888
 C/A-ratio  =     1.2642089792
  
  Lattice vectors:
  
 A1 = (   2.7500493888,   0.0000000000,   0.0000000000)
 A2 = (   0.0000000000,   2.7500493888,   0.0000000000)
 A3 = (   0.0000000000,   0.0000000000,   3.4766371306)
 
  27 primitive cells build up your supercell.
 

 Routine SETGRP: Setting up the symmetry group for a 
 simple tetragonal supercell.


 Subroutine GETGRP returns: Found 16 space group operations
 (whereof 16 operations were pure point group operations)
 out of a pool of 16 trial point group operations.


The dynamic configuration has the point symmetry D_4h.


Analysis of structural, dynamic, and magnetic symmetry:
=====================================================================
 Subroutine PRICEL returns:
 Original cell was already a primitive cell.
 

 Routine SETGRP: Setting up the symmetry group for a 
 simple tetragonal supercell.


 Subroutine GETGRP returns: Found  8 space group operations
 (whereof  2 operations were pure point group operations)
 out of a pool of 16 trial point group operations.


The magnetic configuration has the point symmetry C_1h.
 The point group associated with its full space group is C_4v.


 Subroutine INISYM returns: Found  8 space group operations
 (whereof  2 operations are pure point group operations),
 and found     1 'primitive' translations

 
 
 KPOINTS: automatic KPOINTS                       

Automatic generation of k-mesh.
 generate k-points for:    5    5    4
Space group operators:
 irot       det(A)        alpha          n_x          n_y          n_z        tau_x        tau_y        tau_z
    1     1.000000     0.000001     1.000000     0.000000     0.000000     0.000000     0.000000     0.000000
    2    -1.000000   180.000000     1.000000     0.000000     0.000000     0.000000     0.000000     0.000000
    3     1.000000    90.000000     0.000000     0.000000    -1.000000     0.666667     0.666667     0.000000
    4     1.000000   180.000000     0.000000     0.000000     1.000000     0.000000     0.333333     0.000000
    5     1.000000    90.000000     0.000000     0.000000     1.000000     0.333333     0.666667     0.000000
    6    -1.000000   180.000000     0.000000     1.000000     0.000000     0.000000     0.333333     0.000000
    7    -1.000000   180.000000     0.707107     0.707107     0.000000     0.666667     0.666667     0.000000
    8    -1.000000   180.000000     0.707107    -0.707107     0.000000     0.333333     0.666667     0.000000
 
 Subroutine IBZKPT returns following result:
 ===========================================
 
 Found     18 irreducible k-points:
 
 Following reciprocal coordinates:
            Coordinates               Weight
  0.000000  0.000000  0.000000      1.000000
  0.200000  0.000000  0.000000      4.000000
  0.400000  0.000000  0.000000      4.000000
  0.200000  0.200000  0.000000      4.000000
  0.400000  0.200000  0.000000      8.000000
  0.400000  0.400000  0.000000      4.000000
  0.000000  0.000000  0.250000      2.000000
  0.200000  0.000000  0.250000      8.000000
  0.400000  0.000000  0.250000      8.000000
  0.200000  0.200000  0.250000      8.000000
  0.400000  0.200000  0.250000     16.000000
  0.400000  0.400000  0.250000      8.000000
  0.000000  0.000000  0.500000      1.000000
  0.200000  0.000000  0.500000      4.000000
  0.400000  0.000000  0.500000      4.000000
  0.200000  0.200000  0.500000      4.000000
  0.400000  0.200000  0.500000      8.000000
  0.400000  0.400000  0.500000      4.000000
 
 Following cartesian coordinates:
            Coordinates               Weight
  0.000000  0.000000  0.000000      1.000000
  0.024242  0.000000  0.000000      4.000000
  0.048484  0.000000  0.000000      4.000000
  0.024242  0.024242  0.000000      4.000000
  0.048484  0.024242  0.000000      8.000000
  0.048484  0.048484  0.000000      4.000000
  0.000000  0.000000  0.023970      2.000000
  0.024242  0.000000  0.023970      8.000000
  0.048484  0.000000  0.023970      8.000000
  0.024242  0.024242  0.023970      8.000000
  0.048484  0.024242  0.023970     16.000000
  0.048484  0.048484  0.023970      8.000000
  0.000000  0.000000  0.047939      1.000000
  0.024242  0.000000  0.047939      4.000000
  0.048484  0.000000  0.047939      4.000000
  0.024242  0.024242  0.047939      4.000000
  0.048484  0.024242  0.047939      8.000000
  0.048484  0.048484  0.047939      4.000000
 


--------------------------------------------------------------------------------------------------------




 Dimension of arrays:
   k-points           NKPTS =     18   k-points in BZ     NKDIM =     18   number of bands    NBANDS=    174
   number of dos      NEDOS =    301   number of ions     NIONS =     54
   non local maximal  LDIM  =      6   non local SUM 2l+1 LMDIM =     18
   total plane-waves  NPLWV = 204120
   max r-space proj   IRMAX =      1   max aug-charges    IRDMAX=  89713
   dimension x,y,z NGX =    54 NGY =   54 NGZ =   70
   dimension x,y,z NGXF=   108 NGYF=  108 NGZF=  140
   support grid    NGXF=   216 NGYF=  216 NGZF=  280
   ions per type =              27  27
   NGX,Y,Z   is equivalent  to a cutoff of  10.88, 10.88, 11.16 a.u.
   NGXF,Y,Z  is equivalent  to a cutoff of  21.76, 21.76, 22.32 a.u.

 SYSTEM =  AlMn_pv                                 
 POSCAR =  NewRef: 27, @ ['Mn', array([1.37502469, 

 Startparameter for this run:
   NWRITE =      2    write-flag & timer
   PREC   = accura    normal or accurate (medium, high low for compatibility)
   ISTART =      0    job   : 0-new  1-cont  2-samecut
   ICHARG =      2    charge: 1-file 2-atom 10-const
   ISPIN  =      2    spin polarized calculation?
   LNONCOLLINEAR =      F non collinear calculations
   LSORBIT =      F    spin-orbit coupling
   INIWAV =      1    electr: 0-lowe 1-rand  2-diag
   LASPH  =      F    aspherical Exc in radial PAW
   METAGGA=      F    non-selfconsistent MetaGGA calc.

 Electronic Relaxation 1
   ENCUT  =  404.8 eV  29.75 Ry    5.45 a.u.  13.53 13.53 17.11*2*pi/ulx,y,z
   ENINI  =  404.8     initial cutoff
   ENAUG  =  500.7 eV  augmentation charge cutoff
   NELM   =    100;   NELMIN=  4; NELMDL= -8     # of ELM steps 
   EDIFF  = 0.1E-06   stopping-criterion for ELM
   LREAL  =      F    real-space projection
   NLSPLINE    = F    spline interpolate recip. space projectors
   LCOMPAT=      F    compatible to vasp.4.4
   GGA_COMPAT  = T    GGA compatible to vasp.4.4-vasp.4.6
   LMAXPAW     = -100 max onsite density
   LMAXMIX     =    2 max onsite mixed and CHGCAR
   VOSKOWN=      0    Vosko Wilk Nusair interpolation
   ROPT   =    0.00000   0.00000
 Ionic relaxation
   EDIFFG = 0.1E-05   stopping-criterion for IOM
   NSW    =      0    number of steps for IOM
   NBLOCK =      1;   KBLOCK =      1    inner block; outer block 
   IBRION =     -1    ionic relax: 0-MD 1-quasi-New 2-CG
   NFREE  =      0    steps in history (QN), initial steepest desc. (CG)
   ISIF   =      2    stress and relaxation
   IWAVPR =     10    prediction:  0-non 1-charg 2-wave 3-comb
   ISYM   =      2    0-nonsym 1-usesym 2-fastsym
   LCORR  =      T    Harris-Foulkes like correction to forces

   POTIM  = 0.2000    time-step for ionic-motion
   TEIN   =    0.0    initial temperature
   TEBEG  =    0.0;   TEEND  =   0.0 temperature during run
   SMASS  =  -3.00    Nose mass-parameter (am)
   estimated Nose-frequenzy (Omega)   =  0.10E-29 period in steps =****** mass=  -0.156E-26a.u.
   SCALEE = 1.0000    scale energy and forces
   NPACO  =    256;   APACO  = 16.0  distance and # of slots for P.C.
   PSTRESS=    0.0 pullay stress

  Mass of Ions in am
   POMASS =  26.98 54.94
  Ionic Valenz
   ZVAL   =   3.00  7.00
  Atomic Wigner-Seitz radii
   RWIGS  =  -1.00 -1.00
  virtual crystal weights 
   VCA    =   1.00  1.00
   NELECT =     270.0000    total number of electrons
   NUPDOWN=      -1.0000    fix difference up-down

 DOS related values:
   EMIN   =  10.00;   EMAX   =-10.00  energy-range for DOS
   EFERMI =   0.00
   ISMEAR =     1;   SIGMA  =   0.20  broadening in eV -4-tet -1-fermi 0-gaus

 Electronic relaxation 2 (details)
   IALGO  =     58    algorithm
   LDIAG  =      T    sub-space diagonalisation (order eigenvalues)
   LSUBROT=      F    optimize rotation matrix (better conditioning)
   TURBO    =      0    0=normal 1=particle mesh
   IRESTART =      0    0=no restart 2=restart with 2 vectors
   NREBOOT  =      0    no. of reboots
   NMIN     =      0    reboot dimension
   EREF     =   0.00    reference energy to select bands
   IMIX   =      4    mixing-type and parameters
     AMIX     =   0.40;   BMIX     =  1.00
     AMIX_MAG =   1.60;   BMIX_MAG =  1.00
     AMIN     =   0.10
     WC   =   100.;   INIMIX=   1;  MIXPRE=   1;  MAXMIX= -45

 Intra band minimization:
   WEIMIN = 0.0000     energy-eigenvalue tresh-hold
   EBREAK =  0.14E-09  absolut break condition
   DEPER  =   0.30     relativ break condition  

   TIME   =   0.40     timestep for ELM

  volume/ion in A,a.u.               =      13.15        88.72
  Fermi-wavevector in a.u.,A,eV,Ry     =   1.186118  2.241439 19.141722  1.406877
  Thomas-Fermi vector in A             =   2.322298
 
 Write flags
   LWAVE        =      F    write WAVECAR
   LDOWNSAMPLE  =      F    k-point downsampling of WAVECAR
   LCHARG       =      F    write CHGCAR
   LVTOT        =      F    write LOCPOT, total local potential
   LVHAR        =      F    write LOCPOT, Hartree potential only
   LELF         =      F    write electronic localiz. function (ELF)
   LORBIT       =     10    0 simple, 1 ext, 2 COOP (PROOUT), +10 PAW based schemes


 Dipole corrections
   LMONO  =      F    monopole corrections only (constant potential shift)
   LDIPOL =      F    correct potential (dipole corrections)
   IDIPOL =      0    1-x, 2-y, 3-z, 4-all directions 
   EPSILON=  1.0000000 bulk dielectric constant

 Exchange correlation treatment:
   GGA     =    --    GGA type
   LEXCH   =     8    internal setting for exchange type
   VOSKOWN=      0    Vosko Wilk Nusair interpolation
   LHFCALC =     F    Hartree Fock is set to
   LHFONE  =     F    Hartree Fock one center treatment
   AEXX    =    0.0000 exact exchange contribution

 Linear response parameters
   LEPSILON=     F    determine dielectric tensor
   LRPA    =     F    only Hartree local field effects (RPA)
   LNABLA  =     F    use nabla operator in PAW spheres
   LVEL    =     F    velocity operator in full k-point grid
   LINTERFAST=   F  fast interpolation
   KINTER  =     0    interpolate to denser k-point grid
   CSHIFT  =0.1000    complex shift for real part using Kramers Kronig
   OMEGAMAX=  -1.0    maximum frequency
   DEG_THRESHOLD= 0.2000000E-02 threshold for treating states as degnerate
   RTIME   =   -0.100 relaxation time in fs
  (WPLASMAI=    0.000 imaginary part of plasma frequency in eV, 0.658/RTIME)
   DFIELD  = 0.0000000 0.0000000 0.0000000 field for delta impulse in time
 
 Orbital magnetization related:
   ORBITALMAG=     F  switch on orbital magnetization
   LCHIMAG   =     F  perturbation theory with respect to B field
   DQ        =  0.001000  dq finite difference perturbation B field
   LLRAUG    =     F  two centre corrections for induced B field



--------------------------------------------------------------------------------------------------------


 Static calculation
 charge density and potential will be updated during run
 spin polarized calculation
 Conjugate gradient for all bands (Freysoldt, et al. PRB 79, 241103 (2009))
 preconditioned conjugated gradient                                        
 perform sub-space diagonalisation
    before iterative eigenvector-optimisation
 modified Broyden-mixing scheme, WC =      100.0
 initial mixing is a Kerker type mixing with AMIX =  0.4000 and BMIX =      1.0000
 Hartree-type preconditioning will be used
 using additional bands           39
 reciprocal scheme for non local part
 use partial core corrections
 no Harris-corrections to forces 
 use gradient corrections 
 use of overlap-Matrix (Vanderbilt PP)
 Methfessel and Paxton  Order N= 1 SIGMA  =   0.20


--------------------------------------------------------------------------------------------------------


  energy-cutoff  :      404.80
  volume of cell :      709.91
      direct lattice vectors                 reciprocal lattice vectors
     8.250148166  0.000000000  0.000000000     0.121209944  0.000000000  0.000000000
     0.000000000  8.250148166  0.000000000     0.000000000  0.121209944  0.000000000
     0.000000000  0.000000000 10.429911392     0.000000000  0.000000000  0.095878092

  length of vectors
     8.250148166  8.250148166 10.429911392     0.121209944  0.121209944  0.095878092


 
 k-points in units of 2pi/SCALE and weight: automatic KPOINTS                       
   0.00000000  0.00000000  0.00000000       0.010
   0.02424199  0.00000000  0.00000000       0.040
   0.04848398  0.00000000  0.00000000       0.040
   0.02424199  0.02424199  0.00000000       0.040
   0.04848398  0.02424199  0.00000000       0.080
   0.04848398  0.04848398  0.00000000       0.040
   0.00000000  0.00000000  0.02396952       0.020
   0.02424199  0.00000000  0.02396952       0.080
   0.04848398  0.00000000  0.02396952       0.080
   0.02424199  0.02424199  0.02396952       0.080
   0.04848398  0.02424199  0.02396952       0.160
   0.04848398  0.04848398  0.02396952       0.080
   0.00000000  0.00000000  0.04793905       0.010
   0.02424199  0.00000000  0.04793905       0.040
   0.04848398  0.00000000  0.04793905       0.040
   0.02424199  0.02424199  0.04793905       0.040
   0.04848398  0.02424199  0.04793905       0.080
   0.04848398  0.04848398  0.04793905       0.040
 
 k-points in reciprocal lattice and weights: automatic KPOINTS                       
   0.00000000  0.00000000  0.00000000       0.010
   0.20000000  0.00000000  0.00000000       0.040
   0.40000000  0.00000000  0.00000000       0.040
   0.20000000  0.20000000  0.00000000       0.040
   0.40000000  0.20000000  0.00000000       0.080
   0.40000000  0.40000000  0.00000000       0.040
   0.00000000  0.00000000  0.25000000       0.020
   0.20000000  0.00000000  0.25000000       0.080
   0.40000000  0.00000000  0.25000000       0.080
   0.20000000  0.20000000  0.25000000       0.080
   0.40000000  0.20000000  0.25000000       0.160
   0.40000000  0.40000000  0.25000000       0.080
   0.00000000  0.00000000  0.50000000       0.010
   0.20000000  0.00000000  0.50000000       0.040
   0.40000000  0.00000000  0.50000000       0.040
   0.20000000  0.20000000  0.50000000       0.040
   0.40000000  0.20000000  0.50000000       0.080
   0.40000000  0.40000000  0.50000000       0.040
 
 position of ions in fractional coordinates (direct lattice) 
   0.00000000  0.00000000  0.00000000
   0.00000000  0.00000000  0.33333333
   0.00000000  0.00000000  0.66666667
   0.00000000  0.33333333  0.00000000
   0.00000000  0.33333333  0.33333333
   0.00000000  0.33333333  0.66666667
   0.00000000  0.66666667  0.00000000
   0.00000000  0.66666667  0.33333333
   0.00000000  0.66666667  0.66666667
   0.33333333  0.00000000  0.00000000
   0.33333333  0.00000000  0.33333333
   0.33333333  0.00000000  0.66666667
   0.33333333  0.33333333  0.00000000
   0.33333333  0.33333333  0.33333333
   0.33333333  0.33333333  0.66666667
   0.33333333  0.66666667  0.00000000
   0.33333333  0.66666667  0.33333333
   0.33333333  0.66666667  0.66666667
   0.66666667  0.00000000  0.00000000
   0.66666667  0.00000000  0.33333333
   0.66666667  0.00000000  0.66666667
   0.66666667  0.33333333  0.00000000
   0.66666667  0.33333333  0.33333333
   0.66666667  0.33333333  0.66666667
   0.66666667  0.66666667  0.00000000
   0.66666667  0.66666667  0.33333333
   0.66666667  0.66666667  0.66666667
   0.16666667  0.16666667  0.16666667
   0.16666667  0.16666667  0.50000000
   0.16666667  0.16666667  0.83333333
   0.16666667  0.50000000  0.16666667
   0.16666667  0.50000000  0.50000000
   0.16666667  0.50000000  0.83333333
   0.16666667  0.83333333  0.16666667
   0.16666667  0.83333333  0.50000000
   0.16666667  0.83333333  0.83333333
   0.50000000  0.16666667  0.16666667
   0.50000000  0.16666667  0.50000000
   0.50000000  0.16666667  0.83333333
   0.50000000  0.50000000  0.16666667
   0.50000000  0.50000000  0.50000000
   0.50000000  0.50000000  0.83333333
   0.50000000  0.83333333  0.16666667
   0.50000000  0.83333333  0.50000000
   0.50000000  0.83333333  0.83333333
   0.83333333  0.16666667  0.16666667
   0.83333333  0.16666667  0.50000000
   0.83333333  0.16666667  0.83333333
   0.83333333  0.50000000  0.16666667
   0.83333333  0.50000000  0.50000000
   0.83333333  0.50000000  0.83333333
   0.83333333  0.83333333  0.16666667
   0.83333333  0.83333333  0.50000000
   0.83333333  0.83333333  0.83333333
 
 position of ions in cartesian coordinates  (Angst):
   0.00000000  0.00000000  0.00000000
   0.00000000  0.00000000  3.47663713
   0.00000000  0.00000000  6.95327426
   0.00000000  2.75004939  0.00000000
   0.00000000  2.75004939  3.47663713
   0.00000000  2.75004939  6.95327426
   0.00000000  5.50009878  0.00000000
   0.00000000  5.50009878  3.47663713
   0.00000000  5.50009878  6.95327426
   2.75004939  0.00000000  0.00000000
   2.75004939  0.00000000  3.47663713
   2.75004939  0.00000000  6.95327426
   2.75004939  2.75004939  0.00000000
   2.75004939  2.75004939  3.47663713
   2.75004939  2.75004939  6.95327426
   2.75004939  5.50009878  0.00000000
   2.75004939  5.50009878  3.47663713
   2.75004939  5.50009878  6.95327426
   5.50009878  0.00000000  0.00000000
   5.50009878  0.00000000  3.47663713
   5.50009878  0.00000000  6.95327426
   5.50009878  2.75004939  0.00000000
   5.50009878  2.75004939  3.47663713
   5.50009878  2.75004939  6.95327426
   5.50009878  5.50009878  0.00000000
   5.50009878  5.50009878  3.47663713
   5.50009878  5.50009878  6.95327426
   1.37502469  1.37502469  1.73831857
   1.37502469  1.37502469  5.21495570
   1.37502469  1.37502469  8.69159283
   1.37502469  4.12507408  1.73831857
   1.37502469  4.12507408  5.21495570
   1.37502469  4.12507408  8.69159283
   1.37502469  6.87512347  1.73831857
   1.37502469  6.87512347  5.21495570
   1.37502469  6.87512347  8.69159283
   4.12507408  1.37502469  1.73831857
   4.12507408  1.37502469  5.21495570
   4.12507408  1.37502469  8.69159283
   4.12507408  4.12507408  1.73831857
   4.12507408  4.12507408  5.21495570
   4.12507408  4.12507408  8.69159283
   4.12507408  6.87512347  1.73831857
   4.12507408  6.87512347  5.21495570
   4.12507408  6.87512347  8.69159283
   6.87512347  1.37502469  1.73831857
   6.87512347  1.37502469  5.21495570
   6.87512347  1.37502469  8.69159283
   6.87512347  4.12507408  1.73831857
   6.87512347  4.12507408  5.21495570
   6.87512347  4.12507408  8.69159283
   6.87512347  6.87512347  1.73831857
   6.87512347  6.87512347  5.21495570
   6.87512347  6.87512347  8.69159283
 


--------------------------------------------------------------------------------------------------------


 k-point  1 :   0.0000 0.0000 0.0000  plane waves:   13099
 k-point  2 :   0.2000 0.0000 0.0000  plane waves:   13101
 k-point  3 :   0.4000 0.0000 0.0000  plane waves:   13111
 k-point  4 :   0.2000 0.2000 0.0000  plane waves:   13137
 k-point  5 :   0.4000 0.2000 0.0000  plane waves:   13119
 k-point  6 :   0.4000 0.4000 0.0000  plane waves:   13129
 k-point  7 :   0.0000 0.0000 0.2500  plane waves:   13134
 k-point  8 :   0.2000 0.0000 0.2500  plane waves:   13149
 k-point  9 :   0.4000 0.0000 0.2500  plane waves:   13119
 k-point 10 :   0.2000 0.2000 0.2500  plane waves:   13145
 k-point 11 :   0.4000 0.2000 0.2500  plane waves:   13134
 k-point 12 :   0.4000 0.4000 0.2500  plane waves:   13108
 k-point 13 :   0.0000 0.0000 0.5000  plane waves:   13186
 k-point 14 :   0.2000 0.0000 0.5000  plane waves:   13124
 k-point 15 :   0.4000 0.0000 0.5000  plane waves:   13152
 k-point 16 :   0.2000 0.2000 0.5000  plane waves:   13136
 k-point 17 :   0.4000 0.2000 0.5000  plane waves:   13128
 k-point 18 :   0.4000 0.4000 0.5000  plane waves:   13112

 maximum and minimum number of plane-waves per node :      3304     3246

 maximum number of plane-waves:     13186
 maximum index in each direction: 
   IXMAX=   13   IYMAX=   13   IZMAX=   17
   IXMIN=  -13   IYMIN=  -13   IZMIN=  -17


 parallel 3D FFT for wavefunctions:
    minimum data exchange during FFTs selected (reduces bandwidth)
 parallel 3D FFT for charge:
    minimum data exchange during FFTs selected (reduces bandwidth)


 total amount of memory used by VASP MPI-rank0   626513. kBytes
=======================================================================

   base      :      30000. kBytes
   nonl-proj :      19946. kBytes
   fftplans  :      31580. kBytes
   grid      :      21385. kBytes
   one-center:        435. kBytes
   wavefun   :     523167. kBytes
 
     INWAV:  cpu time    0.0001: real time    0.0000
 Broyden mixing: mesh for mixing (old mesh)
   NGX = 27   NGY = 27   NGZ = 35
  (NGX  =108   NGY  =108   NGZ  =140)
  gives a total of  25515 points

 initial charge density was supplied:
 charge density of overlapping atoms calculated
 number of electron     270.0000000 magnetization      21.0000000
 keeping initial charge density in first step


--------------------------------------------------------------------------------------------------------


 Maximum index for augmentation-charges        10967 (set IRDMAX)


--------------------------------------------------------------------------------------------------------


 First call to EWALD:  gamma=   0.199
 Maximum number of real-space cells 3x 3x 2
 Maximum number of reciprocal cells 3x 3x 3

    FEWALD:  cpu time    0.0024: real time    0.0024


--------------------------------------- Iteration      1(   1)  ---------------------------------------


    POTLOK:  cpu time    0.4050: real time    0.4057
    SETDIJ:  cpu time    0.4508: real time    0.4511
    TRIAL :  cpu time   21.6432: real time   22.4763
    CORREC:  cpu time    0.0038: real time    0.0040
    --------------------------------------------
      LOOP:  cpu time   22.6664: real time   23.5229

 eigenvalue-minimisations  : 12528
 total energy-change (2. order) : 0.2034352E+04  (-0.8848093E+04)
 number of electron     270.0000000 magnetization      21.0000000
 augmentation part      270.0000000 magnetization      21.0000000

 Free energy of the ion-electron system (eV)
  ---------------------------------------------------
  alpha Z        PSCENC =       798.38614055
  Ewald energy   TEWEN  =    -12901.57693327
  -Hartree energ DENC   =     -2855.60785864
  -exchange      EXHF   =         0.00000000
  -V(xc)+E(xc)   XCENC  =      -995.96582483
  PAW double counting   =     12741.82587617   -11476.22345381
  entropy T*S    EENTRO =         0.00266749
  eigenvalues    EBANDS =      4025.83769497
  atomic energy  EATOM  =     12697.67401269
  ---------------------------------------------------
  free energy    TOTEN  =      2034.35232131 eV

  energy without entropy =     2034.34965382  energy(sigma->0) =     2034.35143215


--------------------------------------------------------------------------------------------------------




--------------------------------------- Iteration      1(   2)  ---------------------------------------


    TRIAL :  cpu time   21.9975: real time   22.2115
    CORREC:  cpu time    0.0049: real time    0.0050
    --------------------------------------------
      LOOP:  cpu time   22.0033: real time   22.2196

 eigenvalue-minimisations  : 12528
 total energy-change (2. order) :-0.2131147E+04  (-0.2072901E+04)
 number of electron     270.0000000 magnetization      21.0000000
 augmentation part      270.0000000 magnetization      21.0000000

 Free energy of the ion-electron system (eV)
  ---------------------------------------------------
  alpha Z        PSCENC =       798.38614055
  Ewald energy   TEWEN  =    -12901.57693327
  -Hartree energ DENC   =     -2855.60785864
  -exchange      EXHF   =         0.00000000
  -V(xc)+E(xc)   XCENC  =      -995.96582483
  PAW double counting   =     12741.82587617   -11476.22345381
  entropy T*S    EENTRO =         0.00099935
  eigenvalues    EBANDS =      1894.69244848
  atomic energy  EATOM  =     12697.67401269
  ---------------------------------------------------
  free energy    TOTEN  =       -96.79459332 eV

  energy without entropy =      -96.79559267  energy(sigma->0) =      -96.79492644


--------------------------------------------------------------------------------------------------------




--------------------------------------- Iteration      1(   3)  ---------------------------------------


    TRIAL :  cpu time   30.5916: real time   31.4819
    CORREC:  cpu time    0.0570: real time    0.0572
    --------------------------------------------
      LOOP:  cpu time   30.6495: real time   31.5420

 eigenvalue-minimisations  : 18800
 total energy-change (2. order) :-0.2600432E+03  (-0.2290406E+03)
 number of electron     270.0000000 magnetization      21.0000000
 augmentation part      270.0000000 magnetization      21.0000000

 Free energy of the ion-electron system (eV)
  ---------------------------------------------------
  alpha Z        PSCENC =       798.38614055
  Ewald energy   TEWEN  =    -12901.57693327
  -Hartree energ DENC   =     -2855.60785864
  -exchange      EXHF   =         0.00000000
  -V(xc)+E(xc)   XCENC  =      -995.96582483
  PAW double counting   =     12741.82587617   -11476.22345381
  entropy T*S    EENTRO =         0.00813812
  eigenvalues    EBANDS =      1634.64209967
  atomic energy  EATOM  =     12697.67401269
  ---------------------------------------------------
  free energy    TOTEN  =      -356.83780336 eV

  energy without entropy =     -356.84594148  energy(sigma->0) =     -356.84051607


--------------------------------------------------------------------------------------------------------




--------------------------------------- Iteration      1(   4)  ---------------------------------------


    TRIAL :  cpu time   32.3658: real time   32.6265
    CORREC:  cpu time    0.0058: real time    0.0068
    --------------------------------------------
      LOOP:  cpu time   32.3730: real time   32.6367

 eigenvalue-minimisations  : 20344
 total energy-change (2. order) :-0.4274464E+02  (-0.3755585E+02)
 number of electron     270.0000000 magnetization      21.0000000
 augmentation part      270.0000000 magnetization      21.0000000

 Free energy of the ion-electron system (eV)
  ---------------------------------------------------
  alpha Z        PSCENC =       798.38614055
  Ewald energy   TEWEN  =    -12901.57693327
  -Hartree energ DENC   =     -2855.60785864
  -exchange      EXHF   =         0.00000000
  -V(xc)+E(xc)   XCENC  =      -995.96582483
  PAW double counting   =     12741.82587617   -11476.22345381
  entropy T*S    EENTRO =         0.01997104
  eigenvalues    EBANDS =      1591.88562816
  atomic energy  EATOM  =     12697.67401269
  ---------------------------------------------------
  free energy    TOTEN  =      -399.58244195 eV

  energy without entropy =     -399.60241299  energy(sigma->0) =     -399.58909896


--------------------------------------------------------------------------------------------------------




--------------------------------------- Iteration      1(   5)  ---------------------------------------


    TRIAL :  cpu time   32.7966: real time   33.6664
    CORREC:  cpu time    0.0060: real time    0.0061
    --------------------------------------------
      LOOP:  cpu time   32.8036: real time   33.6760

 eigenvalue-minimisations  : 20680
 total energy-change (2. order) :-0.4325316E+01  (-0.4141935E+01)
 number of electron     270.0000000 magnetization      21.0000000
 augmentation part      270.0000000 magnetization      21.0000000

 Free energy of the ion-electron system (eV)
  ---------------------------------------------------
  alpha Z        PSCENC =       798.38614055
  Ewald energy   TEWEN  =    -12901.57693327
  -Hartree energ DENC   =     -2855.60785864
  -exchange      EXHF   =         0.00000000
  -V(xc)+E(xc)   XCENC  =      -995.96582483
  PAW double counting   =     12741.82587617   -11476.22345381
  entropy T*S    EENTRO =         0.02720050
  eigenvalues    EBANDS =      1587.55308318
  atomic energy  EATOM  =     12697.67401269
  ---------------------------------------------------
  free energy    TOTEN  =      -403.90775746 eV

  energy without entropy =     -403.93495797  energy(sigma->0) =     -403.91682430


--------------------------------------------------------------------------------------------------------




--------------------------------------- Iteration      1(   6)  ---------------------------------------


    TRIAL :  cpu time   32.6953: real time   33.0057
    CORREC:  cpu time    0.0058: real time    0.0067
    --------------------------------------------
      LOOP:  cpu time   32.7020: real time   33.0154

 eigenvalue-minimisations  : 20600
 total energy-change (2. order) :-0.3556012E+00  (-0.3490456E+00)
 number of electron     270.0000000 magnetization      21.0000000
 augmentation part      270.0000000 magnetization      21.0000000

 Free energy of the ion-electron system (eV)
  ---------------------------------------------------
  alpha Z        PSCENC =       798.38614055
  Ewald energy   TEWEN  =    -12901.57693327
  -Hartree energ DENC   =     -2855.60785864
  -exchange      EXHF   =         0.00000000
  -V(xc)+E(xc)   XCENC  =      -995.96582483
  PAW double counting   =     12741.82587617   -11476.22345381
  entropy T*S    EENTRO =         0.02817626
  eigenvalues    EBANDS =      1587.19650625
  atomic energy  EATOM  =     12697.67401269
  ---------------------------------------------------
  free energy    TOTEN  =      -404.26335864 eV

  energy without entropy =     -404.29153490  energy(sigma->0) =     -404.27275073


--------------------------------------------------------------------------------------------------------




--------------------------------------- Iteration      1(   7)  ---------------------------------------


    TRIAL :  cpu time   33.1496: real time   33.9888
    CORREC:  cpu time    0.0059: real time    0.0069
    --------------------------------------------
      LOOP:  cpu time   33.1582: real time   33.9987

 eigenvalue-minimisations  : 20952
 total energy-change (2. order) :-0.3808998E-01  (-0.3775911E-01)
 number of electron     270.0000000 magnetization      21.0000000
 augmentation part      270.0000000 magnetization      21.0000000

 Free energy of the ion-electron system (eV)
  ---------------------------------------------------
  alpha Z        PSCENC =       798.38614055
  Ewald energy   TEWEN  =    -12901.57693327
  -Hartree energ DENC   =     -2855.60785864
  -exchange      EXHF   =         0.00000000
  -V(xc)+E(xc)   XCENC  =      -995.96582483
  PAW double counting   =     12741.82587617   -11476.22345381
  entropy T*S    EENTRO =         0.02840178
  eigenvalues    EBANDS =      1587.15819075
  atomic energy  EATOM  =     12697.67401269
  ---------------------------------------------------
  free energy    TOTEN  =      -404.30144862 eV

  energy without entropy =     -404.32985040  energy(sigma->0) =     -404.31091588


--------------------------------------------------------------------------------------------------------




--------------------------------------- Iteration      1(   8)  ---------------------------------------


    TRIAL :  cpu time   32.2975: real time   32.5581
    CORREC:  cpu time    0.0060: real time    0.0061
    CHARGE:  cpu time    1.2666: real time    1.2666
    --------------------------------------------
      LOOP:  cpu time   33.5713: real time   33.8343

 eigenvalue-minimisations  : 20352
 total energy-change (2. order) :-0.3198261E-02  (-0.3181487E-02)
 number of electron     269.9999995 magnetization      14.5119586
 augmentation part       64.2493844 magnetization       8.4043200

 Free energy of the ion-electron system (eV)
  ---------------------------------------------------
  alpha Z        PSCENC =       798.38614055
  Ewald energy   TEWEN  =    -12901.57693327
  -Hartree energ DENC   =     -2855.60785864
  -exchange      EXHF   =         0.00000000
  -V(xc)+E(xc)   XCENC  =      -995.96582483
  PAW double counting   =     12741.82587617   -11476.22345381
  entropy T*S    EENTRO =         0.02844037
  eigenvalues    EBANDS =      1587.15495389
  atomic energy  EATOM  =     12697.67401269
  ---------------------------------------------------
  free energy    TOTEN  =      -404.30464689 eV

  energy without entropy =     -404.33308725  energy(sigma->0) =     -404.31412701


--------------------------------------------------------------------------------------------------------




--------------------------------------- Iteration      1(   9)  ---------------------------------------


    POTLOK:  cpu time    0.3980: real time    0.3980
    SETDIJ:  cpu time    0.4570: real time    0.4570
    TRIAL :  cpu time   11.9355: real time   12.6691
    CORREC:  cpu time    4.0411: real time    4.0676
    CHARGE:  cpu time    1.2232: real time    1.2467
    --------------------------------------------
      LOOP:  cpu time   18.0584: real time   18.8429

 eigenvalue-minimisations  :     0
 total energy-change (2. order) : 0.2985150E+03  (-0.2173236E+03)
 number of electron     269.9999993 magnetization      15.4889803
 augmentation part       82.6675817 magnetization      10.2870156

 Free energy of the ion-electron system (eV)
  ---------------------------------------------------
  alpha Z        PSCENC =       798.38614055
  Ewald energy   TEWEN  =    -12901.57693327
  -Hartree energ DENC   =     -1274.59568991
  -exchange      EXHF   =         0.00000000
  -V(xc)+E(xc)   XCENC  =     -1041.52058294
  PAW double counting   =     19174.48928653   -17755.06144260
  entropy T*S    EENTRO =         0.01909942
  eigenvalues    EBANDS =       196.38716467
  atomic energy  EATOM  =     12697.67401269
  ---------------------------------------------------
  free energy    TOTEN  =      -105.78960391 eV

  energy without entropy =     -105.80870333  energy(sigma->0) =     -105.79597038


--------------------------------------------------------------------------------------------------------




--------------------------------------- Iteration      1(  10)  ---------------------------------------


    POTLOK:  cpu time    0.3941: real time    0.3941
    SETDIJ:  cpu time    0.4766: real time    0.4766
    TRIAL :  cpu time   11.1698: real time   11.2902
    CORREC:  cpu time    4.0079: real time    4.0767
    CHARGE:  cpu time    1.2690: real time    1.2690
    --------------------------------------------
      LOOP:  cpu time   17.3239: real time   17.5134

 eigenvalue-minimisations  :     0
 total energy-change (2. order) :-0.2131825E+03  (-0.1186036E+02)
 number of electron     269.9999993 magnetization      15.7440751
 augmentation part       86.3427323 magnetization      10.5797734

 Free energy of the ion-electron system (eV)
  ---------------------------------------------------
  alpha Z        PSCENC =       798.38614055
  Ewald energy   TEWEN  =    -12901.57693327
  -Hartree energ DENC   =     -2116.83086798
  -exchange      EXHF   =         0.00000000
  -V(xc)+E(xc)   XCENC  =     -1012.03422064
  PAW double counting   =     20688.15849229   -19451.38429330
  entropy T*S    EENTRO =         0.00806767
  eigenvalues    EBANDS =       978.61651625
  atomic energy  EATOM  =     12697.67401269
  ---------------------------------------------------
  free energy    TOTEN  =      -318.97205398 eV

  energy without entropy =     -318.98012165  energy(sigma->0) =     -318.97474320


--------------------------------------------------------------------------------------------------------




--------------------------------------- Iteration      1(  11)  ---------------------------------------


    POTLOK:  cpu time    0.3926: real time    0.3926
    SETDIJ:  cpu time    0.4659: real time    0.4658
    TRIAL :  cpu time   11.2636: real time   11.3572
    CORREC:  cpu time    4.0240: real time    4.0502
    CHARGE:  cpu time    1.2833: real time    1.2833
    --------------------------------------------
      LOOP:  cpu time   17.4321: real time   17.5527

 eigenvalue-minimisations  :     0
 total energy-change (2. order) :-0.1121504E+02  (-0.1112757E+02)
 number of electron     269.9999993 magnetization      15.9525815
 augmentation part       88.9971545 magnetization      11.0453458

 Free energy of the ion-electron system (eV)
  ---------------------------------------------------
  alpha Z        PSCENC =       798.38614055
  Ewald energy   TEWEN  =    -12901.57693327
  -Hartree energ DENC   =     -2335.86211577
  -exchange      EXHF   =         0.00000000
  -V(xc)+E(xc)   XCENC  =     -1003.91431172
  PAW double counting   =     21534.45645567   -20333.91215526
  entropy T*S    EENTRO =         0.00226683
  eigenvalues    EBANDS =      1214.55374418
  atomic energy  EATOM  =     12697.67401269
  ---------------------------------------------------
  free energy    TOTEN  =      -330.18709525 eV

  energy without entropy =     -330.18936208  energy(sigma->0) =     -330.18785086


--------------------------------------------------------------------------------------------------------




--------------------------------------- Iteration      1(  12)  ---------------------------------------


    POTLOK:  cpu time    0.3922: real time    0.3928
    SETDIJ:  cpu time    0.4810: real time    0.4817
    TRIAL :  cpu time   11.2214: real time   11.2623
    CORREC:  cpu time    4.0111: real time    4.6832
    CHARGE:  cpu time    1.2444: real time    1.2455
    --------------------------------------------
      LOOP:  cpu time   17.3562: real time   18.0733

 eigenvalue-minimisations  :     0
 total energy-change (2. order) :-0.1133206E+02  (-0.1199133E+02)
 number of electron     269.9999993 magnetization      16.3175324
 augmentation part       86.7882897 magnetization      11.3051096

 Free energy of the ion-electron system (eV)
  ---------------------------------------------------
  alpha Z        PSCENC =       798.38614055
  Ewald energy   TEWEN  =    -12901.57693327
  -Hartree energ DENC   =     -2546.54574036
  -exchange      EXHF   =         0.00000000
  -V(xc)+E(xc)   XCENC  =      -996.75704122
  PAW double counting   =     21848.03640069   -20661.40686139
  entropy T*S    EENTRO =        -0.02556857
  eigenvalues    EBANDS =      1420.66859933
  atomic energy  EATOM  =     12697.67401269
  ---------------------------------------------------
  free energy    TOTEN  =      -341.51915614 eV

  energy without entropy =     -341.49358757  energy(sigma->0) =     -341.51063328


--------------------------------------------------------------------------------------------------------




--------------------------------------- Iteration      1(  13)  ---------------------------------------


    POTLOK:  cpu time    0.3889: real time    0.3893
    SETDIJ:  cpu time    0.4576: real time    0.4580
    TRIAL :  cpu time   11.2040: real time   11.2572
    CORREC:  cpu time    3.9955: real time    4.0958
    CHARGE:  cpu time    1.2468: real time    1.2467
    --------------------------------------------
      LOOP:  cpu time   18.2594: real time   18.4166

 eigenvalue-minimisations  :     0
 total energy-change (2. order) :-0.1192866E+02  (-0.8731961E+00)
 number of electron     269.9999993 magnetization      16.6226077
 augmentation part       86.2662390 magnetization      11.3279423

 Free energy of the ion-electron system (eV)
  ---------------------------------------------------
  alpha Z        PSCENC =       798.38614055
  Ewald energy   TEWEN  =    -12901.57693327
  -Hartree energ DENC   =     -2519.57791040
  -exchange      EXHF   =         0.00000000
  -V(xc)+E(xc)   XCENC  =      -998.63366895
  PAW double counting   =     21228.89854908   -19990.84342891
  entropy T*S    EENTRO =        -0.02784974
  eigenvalues    EBANDS =      1332.25099192
  atomic energy  EATOM  =     12697.67401269
  ---------------------------------------------------
  free energy    TOTEN  =      -353.44781586 eV

  energy without entropy =     -353.41996612  energy(sigma->0) =     -353.43853261


--------------------------------------------------------------------------------------------------------




--------------------------------------- Iteration      1(  14)  ---------------------------------------


    POTLOK:  cpu time    0.3924: real time    0.3924
    SETDIJ:  cpu time    0.5234: real time    0.5233
    TRIAL :  cpu time   11.2105: real time   11.3327
    CORREC:  cpu time    4.1117: real time    4.1320
    CHARGE:  cpu time    1.2440: real time    1.2439
    --------------------------------------------
      LOOP:  cpu time   17.5057: real time   17.6489

 eigenvalue-minimisations  :     0
 total energy-change (2. order) :-0.8677780E+00  (-0.1254432E+01)
 number of electron     269.9999993 magnetization      16.5963741
 augmentation part       85.9886381 magnetization      11.2590036

 Free energy of the ion-electron system (eV)
  ---------------------------------------------------
  alpha Z        PSCENC =       798.38614055
  Ewald energy   TEWEN  =    -12901.57693327
  -Hartree energ DENC   =     -2491.54661553
  -exchange      EXHF   =         0.00000000
  -V(xc)+E(xc)   XCENC  =      -999.66761137
  PAW double counting   =     20897.80253760   -19650.79549068
  entropy T*S    EENTRO =        -0.02929477
  eigenvalues    EBANDS =      1295.43621587
  atomic energy  EATOM  =     12697.67401269
  ---------------------------------------------------
  free energy    TOTEN  =      -354.31559388 eV

  energy without entropy =     -354.28629911  energy(sigma->0) =     -354.30582896


--------------------------------------------------------------------------------------------------------




--------------------------------------- Iteration      1(  15)  ---------------------------------------


    POTLOK:  cpu time    0.3927: real time    0.3926
    SETDIJ:  cpu time    0.4777: real time    0.4778
    TRIAL :  cpu time   11.2127: real time   11.2672
    CORREC:  cpu time    3.9981: real time    3.9993
    CHARGE:  cpu time    1.2607: real time    1.2606
    --------------------------------------------
      LOOP:  cpu time   17.3546: real time   17.4120

 eigenvalue-minimisations  :     0
 total energy-change (2. order) :-0.1253206E+01  (-0.5226197E+00)
 number of electron     269.9999992 magnetization      16.6207064
 augmentation part       86.6134055 magnetization      11.3063927

 Free energy of the ion-electron system (eV)
  ---------------------------------------------------
  alpha Z        PSCENC =       798.38614055
  Ewald energy   TEWEN  =    -12901.57693327
  -Hartree energ DENC   =     -2462.29178129
  -exchange      EXHF   =         0.00000000
  -V(xc)+E(xc)   XCENC  =     -1000.68237731
  PAW double counting   =     20058.15607812   -18802.13404265
  entropy T*S    EENTRO =        -0.03242571
  eigenvalues    EBANDS =      1256.92939841
  atomic energy  EATOM  =     12697.67401269
  ---------------------------------------------------
  free energy    TOTEN  =      -355.56879951 eV

  energy without entropy =     -355.53637381  energy(sigma->0) =     -355.55799094


--------------------------------------------------------------------------------------------------------




--------------------------------------- Iteration      1(  16)  ---------------------------------------


    POTLOK:  cpu time    0.3922: real time    0.3922
    SETDIJ:  cpu time    0.4621: real time    0.4621
    TRIAL :  cpu time   11.1480: real time   11.9717
    CORREC:  cpu time    4.0430: real time    4.0588
    CHARGE:  cpu time    1.2670: real time    1.2671
    --------------------------------------------
      LOOP:  cpu time   17.3187: real time   18.1592

 eigenvalue-minimisations  :     0
 total energy-change (2. order) :-0.5216479E+00  (-0.2366239E+00)
 number of electron     269.9999992 magnetization      16.7437824
 augmentation part       87.1282205 magnetization      11.4050274

 Free energy of the ion-electron system (eV)
  ---------------------------------------------------
  alpha Z        PSCENC =       798.38614055
  Ewald energy   TEWEN  =    -12901.57693327
  -Hartree energ DENC   =     -2486.44057143
  -exchange      EXHF   =         0.00000000
  -V(xc)+E(xc)   XCENC  =      -999.68078893
  PAW double counting   =     19755.51914827   -18504.17941997
  entropy T*S    EENTRO =        -0.03174936
  eigenvalues    EBANDS =      1284.24039039
  atomic energy  EATOM  =     12697.67401269
  ---------------------------------------------------
  free energy    TOTEN  =      -356.09044741 eV

  energy without entropy =     -356.05869805  energy(sigma->0) =     -356.07986429


--------------------------------------------------------------------------------------------------------




--------------------------------------- Iteration      1(  17)  ---------------------------------------


    POTLOK:  cpu time    0.3929: real time    0.3929
    SETDIJ:  cpu time    0.4709: real time    0.4709
    TRIAL :  cpu time   11.1943: real time   11.3734
    CORREC:  cpu time    4.0253: real time    4.0853
    CHARGE:  cpu time    1.2454: real time    1.2454
    --------------------------------------------
      LOOP:  cpu time   17.3333: real time   17.5738

 eigenvalue-minimisations  :     0
 total energy-change (2. order) :-0.2385119E+00  (-0.2529244E+00)
 number of electron     269.9999992 magnetization      16.8038034
 augmentation part       87.2782156 magnetization      11.5558965

 Free energy of the ion-electron system (eV)
  ---------------------------------------------------
  alpha Z        PSCENC =       798.38614055
  Ewald energy   TEWEN  =    -12901.57693327
  -Hartree energ DENC   =     -2509.31705583
  -exchange      EXHF   =         0.00000000
  -V(xc)+E(xc)   XCENC  =      -998.72740158
  PAW double counting   =     19647.12497319   -18400.64722790
  entropy T*S    EENTRO =        -0.03190459
  eigenvalues    EBANDS =      1310.78628215
  atomic energy  EATOM  =     12697.67401269
  ---------------------------------------------------
  free energy    TOTEN  =      -356.32895936 eV

  energy without entropy =     -356.29705477  energy(sigma->0) =     -356.31832450


--------------------------------------------------------------------------------------------------------




--------------------------------------- Iteration      1(  18)  ---------------------------------------


    POTLOK:  cpu time    0.3924: real time    0.3924
    SETDIJ:  cpu time    0.4795: real time    0.4795
    TRIAL :  cpu time   11.2901: real time   11.3328
    CORREC:  cpu time    3.9880: real time    3.9978
    CHARGE:  cpu time    1.2436: real time    1.2704
    --------------------------------------------
      LOOP:  cpu time   17.3964: real time   17.4783

 eigenvalue-minimisations  :     0
 total energy-change (2. order) :-0.2529664E+00  (-0.1421832E+00)
 number of electron     269.9999992 magnetization      16.8491179
 augmentation part       87.0731409 magnetization      11.6454737

 Free energy of the ion-electron system (eV)
  ---------------------------------------------------
  alpha Z        PSCENC =       798.38614055
  Ewald energy   TEWEN  =    -12901.57693327
  -Hartree energ DENC   =     -2513.70202279
  -exchange      EXHF   =         0.00000000
  -V(xc)+E(xc)   XCENC  =      -998.20215190
  PAW double counting   =     19551.99553638   -18306.89468937
  entropy T*S    EENTRO =        -0.03239932
  eigenvalues    EBANDS =      1315.77008659
  atomic energy  EATOM  =     12697.67401269
  ---------------------------------------------------
  free energy    TOTEN  =      -356.58192572 eV

  energy without entropy =     -356.54952640  energy(sigma->0) =     -356.57112595


--------------------------------------------------------------------------------------------------------




--------------------------------------- Iteration      1(  19)  ---------------------------------------


    POTLOK:  cpu time    0.3893: real time    0.3897
    SETDIJ:  cpu time    0.4580: real time    0.4581
    TRIAL :  cpu time   11.4304: real time   12.1447
    CORREC:  cpu time    4.5069: real time    4.5165
    CHARGE:  cpu time    1.2468: real time    1.2467
    --------------------------------------------
      LOOP:  cpu time   18.0451: real time   18.7711

 eigenvalue-minimisations  :     0
 total energy-change (2. order) :-0.1417919E+00  (-0.6250076E-01)
 number of electron     269.9999992 magnetization      16.9042550
 augmentation part       86.8418836 magnetization      11.6925422

 Free energy of the ion-electron system (eV)
  ---------------------------------------------------
  alpha Z        PSCENC =       798.38614055
  Ewald energy   TEWEN  =    -12901.57693327
  -Hartree energ DENC   =     -2501.85843704
  -exchange      EXHF   =         0.00000000
  -V(xc)+E(xc)   XCENC  =      -998.37905642
  PAW double counting   =     19500.92049996   -18253.57310175
  entropy T*S    EENTRO =        -0.03250341
  eigenvalues    EBANDS =      1301.71555699
  atomic energy  EATOM  =     12697.67401269
  ---------------------------------------------------
  free energy    TOTEN  =      -356.72371761 eV

  energy without entropy =     -356.69121420  energy(sigma->0) =     -356.71288314


--------------------------------------------------------------------------------------------------------




--------------------------------------- Iteration      1(  20)  ---------------------------------------


    POTLOK:  cpu time    0.3922: real time    0.3992
    SETDIJ:  cpu time    0.5326: real time    0.5326
    TRIAL :  cpu time   11.1605: real time   11.3110
    CORREC:  cpu time    3.9720: real time    4.0582
    CHARGE:  cpu time    1.2716: real time    1.2715
    --------------------------------------------
      LOOP:  cpu time   17.3327: real time   17.5788

 eigenvalue-minimisations  :     0
 total energy-change (2. order) :-0.6250668E-01  (-0.6054968E-01)
 number of electron     269.9999992 magnetization      16.9579283
 augmentation part       86.8067463 magnetization      11.7623312

 Free energy of the ion-electron system (eV)
  ---------------------------------------------------
  alpha Z        PSCENC =       798.38614055
  Ewald energy   TEWEN  =    -12901.57693327
  -Hartree energ DENC   =     -2491.51968030
  -exchange      EXHF   =         0.00000000
  -V(xc)+E(xc)   XCENC  =      -998.61911008
  PAW double counting   =     19480.86242324   -18231.30738334
  entropy T*S    EENTRO =        -0.03269388
  eigenvalues    EBANDS =      1289.34680963
  atomic energy  EATOM  =     12697.67401269
  ---------------------------------------------------
  free energy    TOTEN  =      -356.78622428 eV

  energy without entropy =     -356.75353041  energy(sigma->0) =     -356.77532632


--------------------------------------------------------------------------------------------------------




--------------------------------------- Iteration      1(  21)  ---------------------------------------


    POTLOK:  cpu time    0.3920: real time    0.3919
    SETDIJ:  cpu time    0.4604: real time    0.4604
    TRIAL :  cpu time   11.2216: real time   11.3633
    CORREC:  cpu time    4.0129: real time    4.0513
    CHARGE:  cpu time    1.2424: real time    1.2510
    --------------------------------------------
      LOOP:  cpu time   17.3337: real time   17.5236

 eigenvalue-minimisations  :     0
 total energy-change (2. order) :-0.6047136E-01  (-0.3248546E-01)
 number of electron     269.9999992 magnetization      17.0106340
 augmentation part       86.9297046 magnetization      11.8239582

 Free energy of the ion-electron system (eV)
  ---------------------------------------------------
  alpha Z        PSCENC =       798.38614055
  Ewald energy   TEWEN  =    -12901.57693327
  -Hartree energ DENC   =     -2492.42237642
  -exchange      EXHF   =         0.00000000
  -V(xc)+E(xc)   XCENC  =      -998.43580426
  PAW double counting   =     19486.88680079   -18237.49951488
  entropy T*S    EENTRO =        -0.03237770
  eigenvalues    EBANDS =      1290.17367304
  atomic energy  EATOM  =     12697.67401269
  ---------------------------------------------------
  free energy    TOTEN  =      -356.84669564 eV

  energy without entropy =     -356.81431794  energy(sigma->0) =     -356.83590308


--------------------------------------------------------------------------------------------------------




--------------------------------------- Iteration      1(  22)  ---------------------------------------


    POTLOK:  cpu time    0.3974: real time    0.3974
    SETDIJ:  cpu time    0.4760: real time    0.4760
    TRIAL :  cpu time   11.1992: real time   11.2340
    CORREC:  cpu time    4.1218: real time    4.8074
    CHARGE:  cpu time    1.2474: real time    1.2474
    --------------------------------------------
      LOOP:  cpu time   17.4638: real time   18.1852

 eigenvalue-minimisations  :     0
 total energy-change (2. order) :-0.3255058E-01  (-0.1067549E-01)
 number of electron     269.9999992 magnetization      17.0424409
 augmentation part       86.9833102 magnetization      11.8519684

 Free energy of the ion-electron system (eV)
  ---------------------------------------------------
  alpha Z        PSCENC =       798.38614055
  Ewald energy   TEWEN  =    -12901.57693327
  -Hartree energ DENC   =     -2500.56651827
  -exchange      EXHF   =         0.00000000
  -V(xc)+E(xc)   XCENC  =      -998.06108328
  PAW double counting   =     19504.58635043   -18256.88820055
  entropy T*S    EENTRO =        -0.03243198
  eigenvalues    EBANDS =      1299.59936319
  atomic energy  EATOM  =     12697.67401269
  ---------------------------------------------------
  free energy    TOTEN  =      -356.87924622 eV

  energy without entropy =     -356.84681424  energy(sigma->0) =     -356.86843556


--------------------------------------------------------------------------------------------------------




--------------------------------------- Iteration      1(  23)  ---------------------------------------


    POTLOK:  cpu time    0.3930: real time    0.3930
    SETDIJ:  cpu time    0.4617: real time    0.4617
    TRIAL :  cpu time   11.2171: real time   11.2651
    CORREC:  cpu time    4.0077: real time    4.0572
    CHARGE:  cpu time    1.2481: real time    1.3011
    --------------------------------------------
      LOOP:  cpu time   17.3401: real time   17.4921

 eigenvalue-minimisations  :     0
 total energy-change (2. order) :-0.1068972E-01  (-0.1415742E-01)
 number of electron     269.9999992 magnetization      17.1134678
 augmentation part       86.9925657 magnetization      11.9034465

 Free energy of the ion-electron system (eV)
  ---------------------------------------------------
  alpha Z        PSCENC =       798.38614055
  Ewald energy   TEWEN  =    -12901.57693327
  -Hartree energ DENC   =     -2503.79437981
  -exchange      EXHF   =         0.00000000
  -V(xc)+E(xc)   XCENC  =      -997.90476024
  PAW double counting   =     19510.21857444   -18263.20807516
  entropy T*S    EENTRO =        -0.03216533
  eigenvalues    EBANDS =      1303.34791682
  atomic energy  EATOM  =     12697.67401269
  ---------------------------------------------------
  free energy    TOTEN  =      -356.88993594 eV

  energy without entropy =     -356.85777062  energy(sigma->0) =     -356.87921417


--------------------------------------------------------------------------------------------------------




--------------------------------------- Iteration      1(  24)  ---------------------------------------


    POTLOK:  cpu time    0.3926: real time    0.3926
    SETDIJ:  cpu time    0.4780: real time    0.4780
    TRIAL :  cpu time   11.1909: real time   11.3126
    CORREC:  cpu time    3.9922: real time    3.9934
    CHARGE:  cpu time    1.2708: real time    1.3129
    --------------------------------------------
      LOOP:  cpu time   17.3308: real time   17.4974

 eigenvalue-minimisations  :     0
 total energy-change (2. order) :-0.1415223E-01  (-0.1409325E-01)
 number of electron     269.9999992 magnetization      17.1786625
 augmentation part       86.9425657 magnetization      11.9540239

 Free energy of the ion-electron system (eV)
  ---------------------------------------------------
  alpha Z        PSCENC =       798.38614055
  Ewald energy   TEWEN  =    -12901.57693327
  -Hartree energ DENC   =     -2504.36141985
  -exchange      EXHF   =         0.00000000
  -V(xc)+E(xc)   XCENC  =      -997.81125149
  PAW double counting   =     19508.21390080   -18261.31322215
  entropy T*S    EENTRO =        -0.03175953
  eigenvalues    EBANDS =      1303.91684988
  atomic energy  EATOM  =     12697.67401269
  ---------------------------------------------------
  free energy    TOTEN  =      -356.90408817 eV

  energy without entropy =     -356.87232864  energy(sigma->0) =     -356.89350166


--------------------------------------------------------------------------------------------------------




--------------------------------------- Iteration      1(  25)  ---------------------------------------


    POTLOK:  cpu time    0.3922: real time    0.3922
    SETDIJ:  cpu time    0.4939: real time    0.4939
    TRIAL :  cpu time   11.2053: real time   11.2357
    CORREC:  cpu time    3.9960: real time    4.0216
    CHARGE:  cpu time    1.2465: real time    1.2465
    --------------------------------------------
      LOOP:  cpu time   17.3353: real time   17.3928

 eigenvalue-minimisations  :     0
 total energy-change (2. order) :-0.1410354E-01  (-0.1086021E-01)
 number of electron     269.9999992 magnetization      17.2563392
 augmentation part       86.9271192 magnetization      12.0142324

 Free energy of the ion-electron system (eV)
  ---------------------------------------------------
  alpha Z        PSCENC =       798.38614055
  Ewald energy   TEWEN  =    -12901.57693327
[...]
   45       -0.013  -0.019  -2.270  -2.303
   46        0.025   0.027   2.386   2.438
   47        0.019   0.017   2.393   2.429
   48       -0.014  -0.020  -2.288  -2.322
   49        0.014   0.015   2.352   2.381
   50        0.017   0.022   2.378   2.416
   51       -0.016  -0.016  -2.303  -2.335
   52        0.014   0.015   2.351   2.380
   53        0.017   0.021   2.372   2.410
   54       -0.016  -0.016  -2.294  -2.326
--------------------------------------------------
tot         -0.016  -0.083  17.301  17.201
 
    FORLOC:  cpu time    0.0591: real time    0.0591
    FORNL :  cpu time   17.7381: real time   18.7850
    STRESS:  cpu time   26.6725: real time   26.9571
    FORCOR:  cpu time    0.4394: real time    0.4394
    OFIELD:  cpu time    0.0019: real time    0.0019

  FORCE on cell =-STRESS in cart. coord.  units (eV):
  Direction    XX          YY          ZZ          XY          YZ          ZX
  --------------------------------------------------------------------------------------
  Alpha Z   798.38614   798.38614   798.38614
  Ewald   -4053.61603 -4053.61603 -4794.40593    -0.00000    -0.00000    -0.00000
  Hartree  1084.81321  1084.81321   331.99220    -0.00000    -0.00000    -0.00000
  E(xc)   -1141.91395 -1141.91395 -1139.81645     0.00000    -0.00000     0.00000
  Local     367.85405   367.85405  1907.22291    -0.00000    -0.00000     0.00000
  n-local  -172.15653  -169.66407  -175.50110     0.27431    -0.16711    -0.28671
  augment   785.11664   785.11664   766.94364     0.00000     0.00001     0.00001
  Kinetic  2328.49939  2344.02417  2307.42032    -2.39369    -1.69023    -1.74413
  Fock        0.00000     0.00000     0.00000     0.00000     0.00000     0.00000
  -------------------------------------------------------------------------------------
  Total       5.99155     5.99155     2.24173     0.00000     0.00000    -0.00000
  in kB      13.52215    13.52215     5.05930     0.00000     0.00000    -0.00000
  external pressure =       10.70 kB  Pullay stress =        0.00 kB


 VOLUME and BASIS-vectors are now :
 -----------------------------------------------------------------------------
  energy-cutoff  :      404.80
  volume of cell :      709.91
      direct lattice vectors                 reciprocal lattice vectors
     8.250148166  0.000000000  0.000000000     0.121209944  0.000000000  0.000000000
     0.000000000  8.250148166  0.000000000     0.000000000  0.121209944  0.000000000
     0.000000000  0.000000000 10.429911392     0.000000000  0.000000000  0.095878092

  length of vectors
     8.250148166  8.250148166 10.429911392     0.121209944  0.121209944  0.095878092


 FORCES acting on ions:
    Electron-Ion                     Ewald-Force                    Non-Local-Force
 -----------------------------------------------------------------------------------------------
   0.314E-09 0.162E-01 -.727E-01   -.239E-08 -.239E-08 -.210E-08   0.000E+00 -.736E-02 0.380E-01
   0.293E-09 0.285E-01 -.167E-01   -.239E-08 -.239E-08 0.171E-08   0.000E+00 -.106E-02 -.127E-01
   0.308E-09 -.957E-02 0.142E+00   -.239E-08 -.239E-08 0.861E-08   0.542E-19 0.440E-02 -.602E-01
   0.314E-09 -.162E-01 -.727E-01   -.239E-08 -.802E-09 -.210E-08   0.108E-18 0.736E-02 0.380E-01
   0.293E-09 -.285E-01 -.167E-01   -.239E-08 -.802E-09 0.171E-08   0.508E-20 0.106E-02 -.127E-01
   0.308E-09 0.957E-02 0.142E+00   -.239E-08 -.802E-09 0.861E-08   0.000E+00 -.440E-02 -.602E-01
   0.306E-09 -.213E-08 -.111E+00   -.239E-08 0.631E-08 -.210E-08   0.000E+00 0.000E+00 0.835E-01
   0.293E-09 -.211E-08 0.158E-01   -.239E-08 0.631E-08 0.171E-08   0.000E+00 -.542E-19 -.394E-01
   0.307E-09 -.213E-08 0.949E-01   -.239E-08 0.631E-08 0.861E-08   0.271E-19 -.271E-19 -.627E-01
   -.106E+00 -.106E+00 -.124E+00   -.802E-09 -.239E-08 -.210E-08   0.879E-01 0.879E-01 0.422E-01
   -.472E-02 -.472E-02 0.252E-01   -.802E-09 -.239E-08 0.171E-08   -.180E-01 -.180E-01 0.197E-01
   -.580E-02 -.580E-02 0.401E-01   -.803E-09 -.239E-08 0.861E-08   0.972E-02 0.972E-02 -.175E-01
   -.106E+00 0.106E+00 -.124E+00   -.802E-09 -.802E-09 -.210E-08   0.879E-01 -.879E-01 0.422E-01
   -.472E-02 0.472E-02 0.252E-01   -.802E-09 -.802E-09 0.171E-08   -.180E-01 0.180E-01 0.197E-01
   -.580E-02 0.580E-02 0.401E-01   -.803E-09 -.802E-09 0.861E-08   0.972E-02 -.972E-02 -.175E-01
   0.162E-01 -.214E-08 -.727E-01   -.802E-09 0.631E-08 -.210E-08   -.736E-02 -.542E-19 0.380E-01
   0.285E-01 -.212E-08 -.167E-01   -.802E-09 0.631E-08 0.171E-08   -.106E-02 0.000E+00 -.127E-01
   -.957E-02 -.213E-08 0.142E+00   -.803E-09 0.631E-08 0.861E-08   0.440E-02 0.000E+00 -.602E-01
   0.106E+00 -.106E+00 -.124E+00   0.631E-08 -.239E-08 -.210E-08   -.879E-01 0.879E-01 0.422E-01
   0.472E-02 -.472E-02 0.252E-01   0.631E-08 -.239E-08 0.171E-08   0.180E-01 -.180E-01 0.197E-01
   0.580E-02 -.580E-02 0.401E-01   0.631E-08 -.239E-08 0.861E-08   -.972E-02 0.972E-02 -.175E-01
   0.106E+00 0.106E+00 -.124E+00   0.631E-08 -.802E-09 -.210E-08   -.879E-01 -.879E-01 0.422E-01
   0.472E-02 0.472E-02 0.252E-01   0.631E-08 -.802E-09 0.171E-08   0.180E-01 0.180E-01 0.197E-01
   0.580E-02 0.580E-02 0.401E-01   0.631E-08 -.802E-09 0.861E-08   -.972E-02 -.972E-02 -.175E-01
   -.162E-01 -.214E-08 -.727E-01   0.631E-08 0.631E-08 -.210E-08   0.736E-02 0.163E-18 0.380E-01
   -.285E-01 -.212E-08 -.167E-01   0.631E-08 0.631E-08 0.171E-08   0.106E-02 0.000E+00 -.127E-01
   0.957E-02 -.213E-08 0.142E+00   0.631E-08 0.631E-08 0.861E-08   -.440E-02 0.208E-19 -.602E-01
   -.309E+00 0.356E-08 0.566E-01   -.169E-07 -.169E-07 -.180E-07   0.157E+00 -.542E-18 -.698E-01
   0.594E-01 0.345E-08 -.479E-01   -.169E-07 -.169E-07 -.170E-08   -.760E-02 0.000E+00 0.116E+00
   -.535E-01 0.351E-08 -.144E+00   -.169E-07 -.169E-07 0.115E-07   0.115E-01 -.217E-18 0.140E+00
   0.110E+00 -.110E+00 -.416E-01   -.169E-07 0.802E-09 -.180E-07   -.118E+00 0.118E+00 -.266E-01
   0.295E-01 -.295E-01 0.567E-01   -.169E-07 0.802E-09 -.170E-08   -.607E-01 0.607E-01 -.290E-03
   0.174E-01 -.174E-01 0.128E-01   -.169E-07 0.802E-09 0.115E-07   0.445E-02 -.445E-02 -.271E-02
   0.110E+00 0.110E+00 -.416E-01   -.169E-07 0.130E-07 -.180E-07   -.118E+00 -.118E+00 -.266E-01
   0.295E-01 0.295E-01 0.567E-01   -.169E-07 0.130E-07 -.170E-08   -.607E-01 -.607E-01 -.290E-03
   0.174E-01 0.174E-01 0.128E-01   -.169E-07 0.130E-07 0.115E-07   0.445E-02 0.445E-02 -.271E-02
   0.195E-09 0.332E-08 -.281E+00   0.802E-09 -.169E-07 -.180E-07   0.000E+00 0.173E-17 0.247E+00
   0.217E-09 0.350E-08 0.259E+00   0.802E-09 -.169E-07 -.170E-08   0.000E+00 0.173E-17 -.256E+00
   0.217E-09 0.343E-08 0.265E+00   0.802E-09 -.169E-07 0.115E-07   0.000E+00 0.000E+00 -.411E+00
   0.209E-09 0.309E+00 0.566E-01   0.802E-09 0.802E-09 -.180E-07   0.000E+00 -.157E+00 -.698E-01
   0.217E-09 -.594E-01 -.479E-01   0.802E-09 0.802E-09 -.170E-08   -.217E-18 0.760E-02 0.116E+00
   0.219E-09 0.535E-01 -.144E+00   0.802E-09 0.802E-09 0.115E-07   -.217E-18 -.115E-01 0.140E+00
   0.209E-09 -.309E+00 0.566E-01   0.802E-09 0.130E-07 -.180E-07   0.000E+00 0.157E+00 -.698E-01
   0.217E-09 0.594E-01 -.479E-01   0.802E-09 0.130E-07 -.170E-08   0.217E-18 -.760E-02 0.116E+00
   0.219E-09 -.535E-01 -.144E+00   0.802E-09 0.130E-07 0.115E-07   0.217E-18 0.115E-01 0.140E+00
   0.309E+00 0.356E-08 0.566E-01   0.130E-07 -.169E-07 -.180E-07   -.157E+00 0.867E-18 -.698E-01
   -.594E-01 0.345E-08 -.479E-01   0.130E-07 -.169E-07 -.170E-08   0.760E-02 0.000E+00 0.116E+00
   0.535E-01 0.351E-08 -.144E+00   0.130E-07 -.169E-07 0.115E-07   -.115E-01 0.217E-18 0.140E+00
   -.110E+00 -.110E+00 -.416E-01   0.130E-07 0.802E-09 -.180E-07   0.118E+00 0.118E+00 -.266E-01
   -.295E-01 -.295E-01 0.567E-01   0.130E-07 0.802E-09 -.170E-08   0.607E-01 0.607E-01 -.290E-03
   -.174E-01 -.174E-01 0.128E-01   0.130E-07 0.802E-09 0.115E-07   -.445E-02 -.445E-02 -.271E-02
   -.110E+00 0.110E+00 -.416E-01   0.130E-07 0.130E-07 -.180E-07   0.118E+00 -.118E+00 -.266E-01
   -.295E-01 0.295E-01 0.567E-01   0.130E-07 0.130E-07 -.170E-08   0.607E-01 -.607E-01 -.290E-03
   -.174E-01 0.174E-01 0.128E-01   0.130E-07 0.130E-07 0.115E-07   -.445E-02 0.445E-02 -.271E-02
 -----------------------------------------------------------------------------------------------
   -.286E-07 -.435E-07 -.226E+00   -.614E-13 -.142E-13 0.128E-13   0.729E-16 -.173E-16 0.226E+00
 
 
 POSITION                                       TOTAL-FORCE (eV/Angst)
 -----------------------------------------------------------------------------------
      0.00000      0.00000      0.00000        -0.000000      0.009906     -0.037857
      0.00000      0.00000      3.47664        -0.000000      0.028033     -0.028790
      0.00000      0.00000      6.95327        -0.000000     -0.005488      0.087631
      0.00000      2.75005      0.00000        -0.000000     -0.009906     -0.037857
      0.00000      2.75005      3.47664        -0.000000     -0.028033     -0.028790
      0.00000      2.75005      6.95327        -0.000000      0.005488      0.087631
      0.00000      5.50010      0.00000        -0.000000     -0.000000     -0.035418
      0.00000      5.50010      3.47664        -0.000000     -0.000000     -0.020277
      0.00000      5.50010      6.95327        -0.000000     -0.000000      0.037365
      2.75005      0.00000      0.00000        -0.025654     -0.025654     -0.084370
      2.75005      0.00000      3.47664        -0.020623     -0.020623      0.041995
      2.75005      0.00000      6.95327         0.003119      0.003119      0.023897
      2.75005      2.75005      0.00000        -0.025654      0.025654     -0.084370
      2.75005      2.75005      3.47664        -0.020623      0.020623      0.041995
      2.75005      2.75005      6.95327         0.003119     -0.003119      0.023897
      2.75005      5.50010      0.00000         0.009906     -0.000000     -0.037857
      2.75005      5.50010      3.47664         0.028033     -0.000000     -0.028790
      2.75005      5.50010      6.95327        -0.005488     -0.000000      0.087631
      5.50010      0.00000      0.00000         0.025654     -0.025654     -0.084370
      5.50010      0.00000      3.47664         0.020623     -0.020623      0.041995
      5.50010      0.00000      6.95327        -0.003119      0.003119      0.023897
      5.50010      2.75005      0.00000         0.025654      0.025654     -0.084370
      5.50010      2.75005      3.47664         0.020623      0.020623      0.041995
      5.50010      2.75005      6.95327        -0.003119     -0.003119      0.023897
      5.50010      5.50010      0.00000        -0.009906     -0.000000     -0.037857
      5.50010      5.50010      3.47664        -0.028033     -0.000000     -0.028790
      5.50010      5.50010      6.95327         0.005488     -0.000000      0.087631
      1.37502      1.37502      1.73832        -0.156176     -0.000000     -0.007853
      1.37502      1.37502      5.21496         0.049722     -0.000000      0.059173
      1.37502      1.37502      8.69159        -0.041063     -0.000000     -0.006652
      1.37502      4.12507      1.73832        -0.005697      0.005697     -0.060457
      1.37502      4.12507      5.21496        -0.030646      0.030646      0.048843
      1.37502      4.12507      8.69159         0.022041     -0.022041      0.011620
      1.37502      6.87512      1.73832        -0.005697     -0.005697     -0.060457
      1.37502      6.87512      5.21496        -0.030646     -0.030646      0.048843
      1.37502      6.87512      8.69159         0.022041      0.022041      0.011620
      4.12507      1.37502      1.73832        -0.000000     -0.000000     -0.040497
      4.12507      1.37502      5.21496        -0.000000     -0.000000      0.007019
      4.12507      1.37502      8.69159        -0.000000     -0.000000     -0.136918
      4.12507      4.12507      1.73832        -0.000000      0.156176     -0.007853
      4.12507      4.12507      5.21496        -0.000000     -0.049722      0.059173
      4.12507      4.12507      8.69159        -0.000000      0.041063     -0.006652
      4.12507      6.87512      1.73832        -0.000000     -0.156176     -0.007853
      4.12507      6.87512      5.21496        -0.000000      0.049722      0.059173
      4.12507      6.87512      8.69159        -0.000000     -0.041063     -0.006652
      6.87512      1.37502      1.73832         0.156176     -0.000000     -0.007853
      6.87512      1.37502      5.21496        -0.049722     -0.000000      0.059173
      6.87512      1.37502      8.69159         0.041063     -0.000000     -0.006652
      6.87512      4.12507      1.73832         0.005697      0.005697     -0.060457
      6.87512      4.12507      5.21496         0.030646      0.030646      0.048843
      6.87512      4.12507      8.69159        -0.022041     -0.022041      0.011620
      6.87512      6.87512      1.73832         0.005697     -0.005697     -0.060457
      6.87512      6.87512      5.21496         0.030646     -0.030646      0.048843
      6.87512      6.87512      8.69159        -0.022041      0.022041      0.011620
 -----------------------------------------------------------------------------------
    total drift:                               -0.000000     -0.000000     -0.000056


--------------------------------------------------------------------------------------------------------



  FREE ENERGIE OF THE ION-ELECTRON SYSTEM (eV)
  ---------------------------------------------------
  free  energy   TOTEN  =      -356.94601901 eV

  energy  without entropy=     -356.91497976  energy(sigma->0) =     -356.93567259
 


--------------------------------------------------------------------------------------------------------


    POTLOK:  cpu time    0.8473: real time    0.8474


--------------------------------------------------------------------------------------------------------


     LOOP+:  cpu time 1404.7320: real time 1431.9785
    4ORBIT:  cpu time    0.0000: real time    0.0000
 


 total charge     
 
# of ion       s       p       d       tot
------------------------------------------
    1        0.405   0.426   0.000   0.832
    2        0.404   0.429   0.000   0.833
    3        0.405   0.427   0.000   0.833
    4        0.405   0.426   0.000   0.832
    5        0.404   0.429   0.000   0.833
    6        0.405   0.427   0.000   0.833
    7        0.405   0.427   0.000   0.832
    8        0.404   0.429   0.000   0.833
    9        0.405   0.428   0.000   0.833
   10        0.406   0.428   0.000   0.834
   11        0.404   0.429   0.000   0.834
   12        0.405   0.427   0.000   0.832
   13        0.406   0.428   0.000   0.834
   14        0.404   0.430   0.000   0.834
   15        0.405   0.427   0.000   0.832
   16        0.405   0.427   0.000   0.832
   17        0.404   0.429   0.000   0.833
   18        0.405   0.427   0.000   0.832
   19        0.405   0.428   0.000   0.834
   20        0.404   0.430   0.000   0.834
   21        0.405   0.427   0.000   0.832
   22        0.405   0.429   0.000   0.834
   23        0.404   0.430   0.000   0.834
   24        0.405   0.427   0.000   0.832
   25        0.405   0.427   0.000   0.832
   26        0.404   0.429   0.000   0.833
   27        0.405   0.427   0.000   0.832
   28        0.334   0.354   5.154   5.842
   29        0.333   0.350   5.147   5.829
   30        0.334   0.352   5.142   5.829
   31        0.332   0.352   5.133   5.817
   32        0.333   0.352   5.133   5.818
   33        0.335   0.350   5.138   5.823
   34        0.332   0.352   5.141   5.825
   35        0.333   0.351   5.139   5.823
   36        0.335   0.350   5.139   5.824
   37        0.333   0.352   5.139   5.825
   38        0.331   0.353   5.136   5.820
   39        0.335   0.348   5.138   5.821
   40        0.333   0.358   5.098   5.789
   41        0.333   0.351   5.132   5.816
   42        0.334   0.352   5.127   5.813
   43        0.333   0.358   5.099   5.790
   44        0.333   0.350   5.138   5.821
   45        0.334   0.352   5.135   5.820
   46        0.334   0.354   5.156   5.844
   47        0.333   0.350   5.133   5.816
   48        0.334   0.353   5.129   5.816
   49        0.332   0.352   5.141   5.825
   50        0.333   0.351   5.133   5.818
   51        0.335   0.350   5.132   5.816
   52        0.332   0.352   5.135   5.819
   53        0.334   0.352   5.137   5.822
   54        0.334   0.351   5.135   5.820
--------------------------------------------------
tot         19.933  21.056 138.640 179.628
 


 magnetization (x)
 
# of ion       s       p       d       tot
------------------------------------------
    1        0.001   0.002   0.000   0.002
    2       -0.022  -0.037   0.000  -0.059
    3       -0.000  -0.000   0.000  -0.000
    4        0.001   0.002   0.000   0.003
    5       -0.022  -0.037   0.000  -0.058
    6        0.000  -0.001   0.000  -0.001
    7       -0.000   0.001   0.000   0.001
    8       -0.023  -0.039   0.000  -0.061
    9       -0.000   0.002   0.000   0.002
   10        0.004   0.010   0.000   0.014
   11       -0.017  -0.030   0.000  -0.047
   12       -0.000   0.001   0.000   0.001
   13        0.004   0.009   0.000   0.014
   14       -0.017  -0.030   0.000  -0.047
   15       -0.000   0.002   0.000   0.002
   16        0.001   0.003   0.000   0.004
   17       -0.021  -0.036   0.000  -0.057
   18       -0.000  -0.000   0.000  -0.000
   19        0.004   0.009   0.000   0.014
   20       -0.017  -0.030   0.000  -0.047
   21       -0.000   0.002   0.000   0.002
   22        0.004   0.009   0.000   0.013
   23       -0.017  -0.029   0.000  -0.046
   24        0.000   0.001   0.000   0.001
   25        0.001   0.003   0.000   0.004
   26       -0.021  -0.036   0.000  -0.057
   27        0.000  -0.000   0.000  -0.000
   28        0.025   0.026   2.388   2.440
   29        0.019   0.018   2.375   2.411
   30       -0.014  -0.020  -2.270  -2.304
   31        0.014   0.014   2.353   2.381
   32        0.017   0.021   2.375   2.413
   33       -0.016  -0.016  -2.295  -2.326
   34        0.014   0.015   2.352   2.381
   35        0.017   0.021   2.369   2.407
   36       -0.016  -0.016  -2.294  -2.325
   37       -0.029  -0.024  -2.252  -2.306
   38        0.012   0.022   2.202   2.236
   39       -0.020  -0.014  -2.386  -2.420
   40        0.024   0.027   2.413   2.464
   41        0.020   0.018   2.387   2.425
   42       -0.014  -0.019  -2.284  -2.317
   43        0.024   0.027   2.414   2.465
   44        0.019   0.018   2.377   2.414
   45       -0.013  -0.019  -2.270  -2.303
   46        0.025   0.027   2.386   2.438
   47        0.019   0.017   2.393   2.429
   48       -0.014  -0.020  -2.288  -2.322
   49        0.014   0.015   2.352   2.381
   50        0.017   0.022   2.378   2.416
   51       -0.016  -0.016  -2.303  -2.335
   52        0.014   0.015   2.351   2.380
   53        0.017   0.021   2.372   2.410
   54       -0.016  -0.016  -2.294  -2.326
--------------------------------------------------
tot         -0.016  -0.083  17.301  17.201
 

 total amount of memory used by VASP MPI-rank0   626513. kBytes
=======================================================================

   base      :      30000. kBytes
   nonl-proj :      19946. kBytes
   fftplans  :      31580. kBytes
   grid      :      21385. kBytes
   one-center:        435. kBytes
   wavefun   :     523167. kBytes
 
  
  
 General timing and accounting informations for this job:
 ========================================================
  
                  Total CPU time used (sec):     1427.596
                            User time (sec):     1406.428
                          System time (sec):       21.168
                         Elapsed time (sec):     1456.454
  
                   Maximum memory used (kb):      786356.
                   Average memory used (kb):           0.
  
                          Minor page faults:       506081
                          Major page faults:           18
                 Voluntary context switches:         2911
