   36   36    1    2
  0.1314651E+02  0.8250148E-09  0.8250148E-09  0.6953274E-09  0.2000000E-15
  1.000000000000000E-004
  CAR 
 AlMn_pv                                 
    180     52    108
 
  0.0000000E+00  0.0000000E+00  0.0000000E+00  0.6666667E-02
    1       -2.509457     -2.532020   1.000000   1.000000
    2       -0.354962     -0.391054   1.000000   1.000000
    3       -0.334656     -0.368900   1.000000   1.000000
    4       -0.316741     -0.332789   1.000000   1.000000
    5       -0.294633     -0.304582   1.000000   1.000000
    6       -0.120240     -0.125368   1.000000   1.000000
    7        1.368120      1.339993   1.000000   1.000000
    8        1.397742      1.362585   1.000000   1.000000
    9        1.413664      1.365113   1.000000   1.000000
   10        1.433689      1.372806   1.000000   1.000000
   11        1.470285      1.410168   1.000000   1.000000
   12        1.582376      1.532072   1.000000   1.000000
   13        1.596501      1.564584   1.000000   1.000000
   14        1.613168      1.584790   1.000000   1.000000
   15        1.646443      1.608899   1.000000   1.000000
   16        2.779962      2.700935   1.000000   1.000000
   17        2.820636      2.730703   1.000000   1.000000
   18        2.856986      2.751473   1.000000   1.000000
   19        2.884062      2.782173   1.000000   1.000000
   20        3.502079      3.445228   1.000000   1.000000
   21        3.558287      3.474048   1.000000   1.000000
   22        3.603682      3.565723   1.000000   1.000000
   23        3.656847      3.615084   1.000000   1.000000
   24        4.156931      4.022093   1.000000   1.000000
   25        4.273621      4.164261   1.000000   1.000000
   26        4.395540      4.290957   1.000000   1.000000
   27        4.526772      4.478900   1.000000   1.000000
   28        4.589620      4.498958   1.000000   1.000000
   29        4.652588      4.524949   1.000000   1.000000
   30        4.705494      4.564473   1.000000   1.000000
   31        4.767406      4.617526   1.000000   1.000000
   32        4.792503      4.665750   1.000000   1.000000
   33        4.832818      4.704160   1.000000   1.000000
   34        4.931142      4.720821   1.000000   1.000000
   35        4.945337      4.788881   1.000000   1.000000
   36        5.047571      4.822496   1.000000   1.000000
   37        5.064793      4.843929   1.000000   1.000000
   38        5.157606      4.848114   1.000000   1.000000
   39        5.164009      4.911825   1.000000   1.000000
   40        5.289202      4.973448   1.000000   1.000000
   41        5.365976      5.205247   1.000000   1.000000
   42        5.423611      5.259294   1.000000   1.000000
   43        5.432299      5.263246   1.000000   1.000000
   44        5.477774      5.301268   1.000000   1.000000
   45        5.526770      5.332030   1.000000   1.000000
   46        5.560030      5.369554   1.000000   1.000000
   47        5.597461      5.404545   1.000000   1.000000
   48        5.643441      5.410376   1.000000   1.000000
   49        5.697718      5.486916   1.000000   1.000000
   50        5.764838      5.491379   1.000000   1.000000
   51        5.814647      5.603243   1.000000   1.000000
   52        5.862183      5.640056   1.000000   1.000000
   53        5.895455      5.649560   1.000000   1.000000
   54        5.901634      5.730553   1.000000   1.000000
   55        5.939184      5.735350   1.000000   1.000000
   56        6.145492      5.775929   1.000000   1.000000
   57        6.150453      5.788484   1.000000   1.000000
   58        6.267877      5.816777   1.000000   1.000000
   59        6.322817      5.924744   1.000000   1.000000
   60        6.338616      5.998996   1.000000   1.000000
   61        6.423975      6.128642   1.000000   1.000000
   62        6.442545      6.197138   1.000000   1.000000
   63        6.484310      6.254981   1.000000   1.000000
   64        6.489468      6.303197   1.000000   1.000000
   65        6.547730      6.359543   1.000000   1.000000
   66        6.592683      6.386075   1.000000   1.000000
   67        6.677484      6.401003   1.000000   1.000000
   68        6.686688      6.433075   1.000000   1.000000
   69        6.735798      6.491819   1.000000   1.000000
   70        6.740575      6.495008   1.000000   1.000000
   71        6.784287      6.600716   1.000000   1.000000
   72        6.792895      6.642907   1.000000   1.000000
   73        6.837521      6.684089   1.000000   1.000000
   74        6.883079      6.694134   1.000000   1.000000
   75        6.948465      6.737869   1.000000   1.000000
   76        7.053667      6.756907   1.000004   1.000000
   77        7.061281      6.776621   1.000005   1.000000
   78        7.126535      6.848587   1.000041   1.000000
   79        7.250788      6.939393   1.001050   1.000000
   80        7.288421      6.997446   1.002358   1.000001
   81        7.386042      7.029329   1.012742   1.000002
   82        7.466659      7.038260   1.030110   1.000002
   83        7.509962      7.075148   1.035457   1.000008
   84        7.587009      7.216755   0.999658   1.000470
   85        7.632453      7.261544   0.926170   1.001334
   86        7.643324      7.289849   0.901026   1.002423
   87        7.774556      7.397935   0.418281   1.014946
   88        7.836681      7.427391   0.184972   1.021253
   89        8.015293      7.451319  -0.034669   1.026785
   90        8.114875      7.457932  -0.014479   1.028230
   91        8.153383      7.529216  -0.008241   1.033908
   92        8.155891      7.580706  -0.007909   1.006255
   93        8.161923      7.651202  -0.007168   0.880835
   94        8.197586      7.667869  -0.003808   0.833174
   95        8.241220      7.734966  -0.001569   0.584943
   96        8.297065      8.008034  -0.000434  -0.035235
   97        8.369402      8.065215  -0.000063  -0.025375
   98        8.428601      8.119489  -0.000010  -0.013655
   99        8.437638      8.155346  -0.000008  -0.007966
  100        8.533746      8.178434  -0.000000  -0.005400
  101        8.590705      8.182649  -0.000000  -0.004995
  102        8.682417      8.221918  -0.000000  -0.002365
  103        8.746525      8.397334  -0.000000  -0.000027
  104        8.771475      8.473339  -0.000000  -0.000002
  105        8.805744      8.573110  -0.000000  -0.000000
  106        8.836211      8.599669  -0.000000  -0.000000
  107        8.856613      8.654319  -0.000000  -0.000000
  108        8.883546      8.830196  -0.000000  -0.000000
 
  0.2000000E+00  0.0000000E+00  0.0000000E+00  0.1333333E-01
    1       -2.418921     -2.441521   1.000000   1.000000
    2       -1.092563     -1.115526   1.000000   1.000000
    3       -0.255179     -0.303852   1.000000   1.000000
    4       -0.229444     -0.229264   1.000000   1.000000
    5       -0.053879     -0.059999   1.000000   1.000000
    6        0.579959      0.553477   1.000000   1.000000
    7        0.897517      0.871510   1.000000   1.000000
    8        0.945611      0.892067   1.000000   1.000000
    9        0.951170      0.945008   1.000000   1.000000
   10        1.436042      1.405962   1.000000   1.000000
   11        1.512269      1.458266   1.000000   1.000000
   12        1.528712      1.461919   1.000000   1.000000
   13        1.961895      1.890867   1.000000   1.000000
   14        2.308289      2.280055   1.000000   1.000000
   15        2.341967      2.288026   1.000000   1.000000
   16        2.375310      2.303230   1.000000   1.000000
   17        2.398063      2.304655   1.000000   1.000000
   18        2.853980      2.804846   1.000000   1.000000
   19        3.285592      3.139555   1.000000   1.000000
   20        3.354592      3.254932   1.000000   1.000000
   21        3.602306      3.517882   1.000000   1.000000
   22        3.696831      3.662081   1.000000   1.000000
   23        3.770114      3.719481   1.000000   1.000000
   24        4.132357      4.010947   1.000000   1.000000
   25        4.233999      4.136281   1.000000   1.000000
   26        4.313877      4.217602   1.000000   1.000000
   27        4.355009      4.280400   1.000000   1.000000
   28        4.554380      4.439106   1.000000   1.000000
   29        4.601211      4.507767   1.000000   1.000000
   30        4.691722      4.519276   1.000000   1.000000
   31        4.719088      4.544443   1.000000   1.000000
   32        4.757865      4.567836   1.000000   1.000000
   33        4.775964      4.638582   1.000000   1.000000
   34        4.810591      4.650131   1.000000   1.000000
   35        4.996088      4.802787   1.000000   1.000000
   36        5.041786      4.874189   1.000000   1.000000
   37        5.099833      4.900211   1.000000   1.000000
   38        5.138298      4.942309   1.000000   1.000000
   39        5.147560      4.958111   1.000000   1.000000
   40        5.223245      4.988712   1.000000   1.000000
   41        5.239895      5.088931   1.000000   1.000000
   42        5.372530      5.181749   1.000000   1.000000
   43        5.381864      5.218194   1.000000   1.000000
   44        5.439987      5.261227   1.000000   1.000000
   45        5.563056      5.338761   1.000000   1.000000
   46        5.563187      5.345589   1.000000   1.000000
   47        5.652322      5.391304   1.000000   1.000000
   48        5.695308      5.412202   1.000000   1.000000
   49        5.697261      5.510887   1.000000   1.000000
   50        5.816973      5.552497   1.000000   1.000000
   51        5.835904      5.604947   1.000000   1.000000
   52        5.872232      5.634113   1.000000   1.000000
   53        5.897053      5.701024   1.000000   1.000000
   54        5.960427      5.721739   1.000000   1.000000
   55        5.986114      5.753658   1.000000   1.000000
   56        6.097801      5.767458   1.000000   1.000000
   57        6.160265      5.903463   1.000000   1.000000
   58        6.256179      5.927839   1.000000   1.000000
   59        6.338772      5.977701   1.000000   1.000000
   60        6.349999      6.014150   1.000000   1.000000
   61        6.378813      6.164577   1.000000   1.000000
   62        6.425172      6.198304   1.000000   1.000000
   63        6.461636      6.252313   1.000000   1.000000
   64        6.496412      6.256428   1.000000   1.000000
   65        6.530824      6.296006   1.000000   1.000000
   66        6.607655      6.344752   1.000000   1.000000
   67        6.618097      6.367026   1.000000   1.000000
   68        6.705472      6.414704   1.000000   1.000000
   69        6.746081      6.450499   1.000000   1.000000
   70        6.778755      6.470524   1.000000   1.000000
   71        6.779347      6.543845   1.000000   1.000000
   72        6.795859      6.608545   1.000000   1.000000
   73        6.811467      6.626994   1.000000   1.000000
   74        6.880468      6.639583   1.000000   1.000000
   75        6.940832      6.677611   1.000000   1.000000
   76        6.980370      6.725573   1.000000   1.000000
   77        7.047890      6.776622   1.000003   1.000000
   78        7.064957      6.802400   1.000006   1.000000
   79        7.279280      6.888100   1.001950   1.000000
   80        7.307979      6.926280   1.003471   1.000000
   81        7.356054      6.948419   1.008105   1.000000
   82        7.462244      6.988934   1.029198   1.000000
   83        7.477289      7.135496   1.032139   1.000053
   84        7.538825      7.232313   1.031641   1.000684
   85        7.628450      7.264355   0.934574   1.001419
   86        7.753288      7.277882   0.508052   1.001889
   87        7.776959      7.408813   0.408335   1.017169
   88        7.795371      7.443993   0.333740   1.025095
   89        8.028271      7.472995  -0.032967   1.031370
   90        8.119263      7.516491  -0.013670   1.035305
   91        8.148477      7.548112  -0.008914   1.028429
   92        8.154386      7.590620  -0.008105   0.995706
   93        8.185362      7.652847  -0.004762   0.876193
   94        8.228700      7.720930  -0.002047   0.642752
   95        8.238222      7.770175  -0.001680   0.436733
   96        8.299280      7.989052  -0.000409  -0.034938
   97        8.321430      8.098560  -0.000233  -0.017826
   98        8.352651      8.132921  -0.000101  -0.011255
   99        8.465974      8.157845  -0.000003  -0.007689
  100        8.488679      8.169783  -0.000001  -0.006266
  101        8.576429      8.213264  -0.000000  -0.002807
  102        8.652505      8.279391  -0.000000  -0.000666
  103        8.690509      8.282044  -0.000000  -0.000624
  104        8.745912      8.489424  -0.000000  -0.000001
  105        8.770178      8.523924  -0.000000  -0.000000
  106        8.786750      8.591101  -0.000000  -0.000000
  107        9.009263      8.663507  -0.000000  -0.000000
  108        9.044863      8.829886  -0.000000  -0.000000
 
  0.4000000E+00  0.0000000E+00  0.0000000E+00  0.1333333E-01
    1       -2.148996     -2.171900   1.000000   1.000000
    2       -1.703762     -1.726005   1.000000   1.000000
    3       -0.007627     -0.056916   1.000000   1.000000
    4        0.014213      0.013195   1.000000   1.000000
    5        0.142707      0.133501   1.000000   1.000000
    6        0.397556      0.346832   1.000000   1.000000
    7        0.414506      0.413105   1.000000   1.000000
    8        0.466071      0.450275   1.000000   1.000000
    9        1.598184      1.562860   1.000000   1.000000
   10        1.625150      1.589743   1.000000   1.000000
   11        1.710885      1.635543   1.000000   1.000000
   12        1.791984      1.741740   1.000000   1.000000
   13        1.934381      1.892839   1.000000   1.000000
   14        2.011869      1.933439   1.000000   1.000000
   15        2.248495      2.201867   1.000000   1.000000
   16        2.386980      2.280900   1.000000   1.000000
   17        2.694628      2.661218   1.000000   1.000000
   18        2.925933      2.870668   1.000000   1.000000
   19        3.114811      3.020379   1.000000   1.000000
   20        3.624369      3.430072   1.000000   1.000000
   21        3.802637      3.714368   1.000000   1.000000
   22        3.844168      3.730427   1.000000   1.000000
   23        3.846652      3.803109   1.000000   1.000000
   24        4.036510      3.966326   1.000000   1.000000
   25        4.076128      3.997608   1.000000   1.000000
   26        4.194831      4.058588   1.000000   1.000000
   27        4.243042      4.107809   1.000000   1.000000
   28        4.287402      4.214334   1.000000   1.000000
   29        4.418195      4.234533   1.000000   1.000000
   30        4.558388      4.426177   1.000000   1.000000
   31        4.605762      4.521992   1.000000   1.000000
   32        4.623481      4.540807   1.000000   1.000000
   33        4.749419      4.636955   1.000000   1.000000
   34        4.851537      4.667540   1.000000   1.000000
   35        4.916755      4.762088   1.000000   1.000000
   36        5.034246      4.818335   1.000000   1.000000
   37        5.070948      4.966071   1.000000   1.000000
   38        5.111578      4.984460   1.000000   1.000000
   39        5.194643      4.990755   1.000000   1.000000
   40        5.286011      5.097422   1.000000   1.000000
   41        5.292975      5.112222   1.000000   1.000000
   42        5.353932      5.140575   1.000000   1.000000
   43        5.425785      5.191693   1.000000   1.000000
   44        5.466008      5.269919   1.000000   1.000000
   45        5.568808      5.275542   1.000000   1.000000
   46        5.614674      5.402941   1.000000   1.000000
   47        5.660784      5.425652   1.000000   1.000000
   48        5.671612      5.446135   1.000000   1.000000
   49        5.723053      5.540747   1.000000   1.000000
   50        5.763531      5.549555   1.000000   1.000000
   51        5.847566      5.579055   1.000000   1.000000
   52        5.877310      5.606937   1.000000   1.000000
   53        5.913519      5.663281   1.000000   1.000000
   54        5.940646      5.702942   1.000000   1.000000
   55        5.978922      5.719857   1.000000   1.000000
   56        6.088617      5.851957   1.000000   1.000000
   57        6.182345      5.968087   1.000000   1.000000
   58        6.219496      6.006803   1.000000   1.000000
   59        6.219544      6.051491   1.000000   1.000000
   60        6.321857      6.131553   1.000000   1.000000
   61        6.328161      6.142343   1.000000   1.000000
   62        6.373393      6.156314   1.000000   1.000000
   63        6.424312      6.239892   1.000000   1.000000
   64        6.490686      6.240692   1.000000   1.000000
   65        6.497743      6.268016   1.000000   1.000000
   66        6.557899      6.289886   1.000000   1.000000
   67        6.686978      6.308130   1.000000   1.000000
   68        6.690061      6.315391   1.000000   1.000000
   69        6.728297      6.359942   1.000000   1.000000
   70        6.747172      6.425460   1.000000   1.000000
   71        6.799006      6.434538   1.000000   1.000000
   72        6.805838      6.526891   1.000000   1.000000
   73        6.855639      6.539666   1.000000   1.000000
   74        6.900303      6.614746   1.000000   1.000000
   75        6.946845      6.649914   1.000000   1.000000
   76        6.994148      6.662699   1.000001   1.000000
   77        7.057921      6.740523   1.000005   1.000000
   78        7.127572      6.795895   1.000042   1.000000
   79        7.191736      6.863357   1.000250   1.000000
   80        7.301218      6.880210   1.003045   1.000000
   81        7.307504      6.896614   1.003438   1.000000
   82        7.465570      6.960867   1.029902   1.000000
   83        7.498011      7.184574   1.034929   1.000207
   84        7.602059      7.236217   0.980683   1.000750
   85        7.613959      7.263645   0.962063   1.001397
   86        7.742963      7.289893   0.551651   1.002419
   87        7.776022      7.388216   0.412309   1.013134
   88        7.903722      7.410380   0.026176   1.017516
   89        7.988333      7.469911  -0.034875   1.030758
   90        8.017964      7.477693  -0.034381   1.032211
   91        8.097145      7.553035  -0.018124   1.026186
   92        8.107763      7.638521  -0.015910   0.911897
   93        8.165849      7.685078  -0.006707   0.777669
   94        8.213789      7.893488  -0.002778   0.043234
   95        8.227888      7.917010  -0.002082   0.007788
   96        8.259805      7.963582  -0.001045  -0.028942
   97        8.279629      8.069259  -0.000657  -0.024476
   98        8.347932      8.072039  -0.000114  -0.023820
   99        8.388024      8.155774  -0.000036  -0.007931
  100        8.512511      8.156309  -0.000001  -0.007845
  101        8.592366      8.195929  -0.000000  -0.003921
  102        8.620636      8.209969  -0.000000  -0.003001
  103        8.653866      8.246843  -0.000000  -0.001396
  104        8.736540      8.353510  -0.000000  -0.000098
  105        8.741874      8.537693  -0.000000  -0.000000
  106        8.749353      8.554757  -0.000000  -0.000000
  107        8.803010      8.574644  -0.000000  -0.000000
  108        9.063619      8.793333  -0.000000  -0.000000
 
  0.0000000E+00  0.2000000E+00  0.0000000E+00  0.1333333E-01
    1       -2.418981     -2.441560   1.000000   1.000000
    2       -1.092250     -1.115784   1.000000   1.000000
    3       -0.251237     -0.287222   1.000000   1.000000
    4       -0.233941     -0.246604   1.000000   1.000000
    5       -0.053877     -0.060157   1.000000   1.000000
    6        0.580146      0.554444   1.000000   1.000000
    7        0.897635      0.869651   1.000000   1.000000
    8        0.943532      0.904476   1.000000   1.000000
    9        0.953237      0.932281   1.000000   1.000000
   10        1.458796      1.421929   1.000000   1.000000
   11        1.499054      1.446542   1.000000   1.000000
   12        1.511563      1.461452   1.000000   1.000000
   13        1.970658      1.888588   1.000000   1.000000
   14        2.327043      2.285693   1.000000   1.000000
   15        2.355010      2.295360   1.000000   1.000000
   16        2.357359      2.298263   1.000000   1.000000
   17        2.383910      2.301758   1.000000   1.000000
   18        2.859054      2.805752   1.000000   1.000000
   19        3.300643      3.163913   1.000000   1.000000
   20        3.339544      3.219128   1.000000   1.000000
   21        3.615441      3.549282   1.000000   1.000000
   22        3.667409      3.626954   1.000000   1.000000
   23        3.767793      3.714567   1.000000   1.000000
   24        4.130179      4.006982   1.000000   1.000000
   25        4.215478      4.124861   1.000000   1.000000
   26        4.348090      4.256212   1.000000   1.000000
   27        4.364572      4.288005   1.000000   1.000000
   28        4.578803      4.403613   1.000000   1.000000
   29        4.614623      4.494353   1.000000   1.000000
   30        4.685755      4.504320   1.000000   1.000000
   31        4.709910      4.545067   1.000000   1.000000
   32        4.732249      4.565783   1.000000   1.000000
   33        4.742295      4.646449   1.000000   1.000000
   34        4.807300      4.688810   1.000000   1.000000
   35        4.942911      4.768110   1.000000   1.000000
   36        4.982114      4.865944   1.000000   1.000000
   37        5.111677      4.900852   1.000000   1.000000
   38        5.191337      4.925577   1.000000   1.000000
   39        5.221737      4.963169   1.000000   1.000000
   40        5.234403      4.983672   1.000000   1.000000
   41        5.263163      5.068752   1.000000   1.000000
   42        5.388848      5.231364   1.000000   1.000000
   43        5.432071      5.238833   1.000000   1.000000
   44        5.470601      5.300813   1.000000   1.000000
   45        5.517324      5.337011   1.000000   1.000000
   46        5.542481      5.387170   1.000000   1.000000
   47        5.615277      5.408491   1.000000   1.000000
   48        5.687206      5.438532   1.000000   1.000000
   49        5.708894      5.496750   1.000000   1.000000
   50        5.754688      5.523497   1.000000   1.000000
   51        5.815231      5.617528   1.000000   1.000000
   52        5.869667      5.660625   1.000000   1.000000
   53        5.895735      5.663974   1.000000   1.000000
   54        5.956708      5.721542   1.000000   1.000000
   55        5.985645      5.789797   1.000000   1.000000
   56        6.158881      5.809783   1.000000   1.000000
   57        6.181438      5.831505   1.000000   1.000000
   58        6.277928      5.911394   1.000000   1.000000
   59        6.320507      5.928295   1.000000   1.000000
   60        6.338243      6.014355   1.000000   1.000000
   61        6.384453      6.160998   1.000000   1.000000
   62        6.406569      6.161910   1.000000   1.000000
   63        6.461591      6.249122   1.000000   1.000000
   64        6.519073      6.254560   1.000000   1.000000
   65        6.522503      6.318930   1.000000   1.000000
   66        6.590908      6.359232   1.000000   1.000000
   67        6.645515      6.374336   1.000000   1.000000
   68        6.709933      6.402367   1.000000   1.000000
   69        6.749595      6.419079   1.000000   1.000000
   70        6.752701      6.448333   1.000000   1.000000
   71        6.772271      6.535335   1.000000   1.000000
   72        6.797496      6.595017   1.000000   1.000000
   73        6.816702      6.632207   1.000000   1.000000
   74        6.871410      6.700798   1.000000   1.000000
   75        6.948770      6.710445   1.000000   1.000000
   76        7.003614      6.774848   1.000001   1.000000
   77        7.101538      6.805197   1.000019   1.000000
   78        7.109999      6.819090   1.000025   1.000000
   79        7.234416      6.847512   1.000719   1.000000
   80        7.323127      6.900580   1.004609   1.000000
   81        7.361667      6.957143   1.008861   1.000000
   82        7.416660      7.002570   1.018878   1.000001
   83        7.430522      7.109734   1.021987   1.000025
   84        7.597689      7.205257   0.986633   1.000353
   85        7.616464      7.248282   0.957657   1.000991
   86        7.717512      7.271881   0.656610   1.001666
   87        7.746892      7.340138   0.534919   1.006217
   88        7.849983      7.415362   0.144715   1.018562
   89        7.965305      7.449262  -0.029607   1.026288
   90        8.056641      7.537058  -0.027334   1.032169
   91        8.095614      7.581513  -0.018456   1.005535
   92        8.163654      7.643902  -0.006960   0.899459
   93        8.163880      7.672126  -0.006933   0.820038
   94        8.234009      7.684566  -0.001836   0.779303
   95        8.238451      7.838273  -0.001672   0.179645
   96        8.299531      7.990729  -0.000407  -0.035091
   97        8.317378      8.072892  -0.000259  -0.023591
   98        8.373968      8.073803  -0.000055  -0.023414
   99        8.505433      8.132552  -0.000001  -0.011339
  100        8.518388      8.170213  -0.000000  -0.006218
  101        8.558936      8.209867  -0.000000  -0.003007
  102        8.644423      8.277688  -0.000000  -0.000692
  103        8.683223      8.330900  -0.000000  -0.000182
  104        8.729473      8.445331  -0.000000  -0.000006
  105        8.779422      8.492860  -0.000000  -0.000001
  106        8.786503      8.558428  -0.000000  -0.000000
  107        8.989635      8.661143  -0.000000  -0.000000
  108        9.044581      8.835916  -0.000000  -0.000000
 
  0.2000000E+00  0.2000000E+00  0.0000000E+00  0.1333333E-01
    1       -2.328721     -2.351341   1.000000   1.000000
    2       -1.008915     -1.036297   1.000000   1.000000
    3       -1.003983     -1.023382   1.000000   1.000000
    4        0.012361      0.005111   1.000000   1.000000
    5        0.240362      0.212962   1.000000   1.000000
    6        0.657522      0.627354   1.000000   1.000000
    7        0.661456      0.639019   1.000000   1.000000
    8        0.953918      0.928947   1.000000   1.000000
    9        0.970778      0.938765   1.000000   1.000000
   10        1.603205      1.554525   1.000000   1.000000
   11        1.754055      1.716057   1.000000   1.000000
   12        1.777392      1.742772   1.000000   1.000000
   13        1.874466      1.824217   1.000000   1.000000
   14        2.024481      1.944234   1.000000   1.000000
   15        2.035699      1.960217   1.000000   1.000000
   16        2.872829      2.768517   1.000000   1.000000
   17        2.909879      2.799655   1.000000   1.000000
   18        2.913569      2.837994   1.000000   1.000000
   19        2.925191      2.868399   1.000000   1.000000
   20        2.951984      2.902067   1.000000   1.000000
   21        3.742074      3.593860   1.000000   1.000000
   22        3.813046      3.754918   1.000000   1.000000
   23        3.821694      3.765368   1.000000   1.000000
   24        3.895855      3.817981   1.000000   1.000000
   25        4.198916      4.071290   1.000000   1.000000
   26        4.351369      4.234689   1.000000   1.000000
   27        4.396353      4.322413   1.000000   1.000000
   28        4.416338      4.332304   1.000000   1.000000
   29        4.446747      4.399116   1.000000   1.000000
   30        4.605211      4.407357   1.000000   1.000000
   31        4.633525      4.464000   1.000000   1.000000
   32        4.728302      4.527618   1.000000   1.000000
   33        4.801160      4.608119   1.000000   1.000000
   34        4.815001      4.701676   1.000000   1.000000
   35        4.905736      4.717152   1.000000   1.000000
   36        5.000846      4.771716   1.000000   1.000000
   37        5.010569      4.865376   1.000000   1.000000
   38        5.060220      4.947282   1.000000   1.000000
   39        5.177753      5.028315   1.000000   1.000000
   40        5.243455      5.096220   1.000000   1.000000
   41        5.354672      5.101906   1.000000   1.000000
   42        5.370141      5.189453   1.000000   1.000000
   43        5.407232      5.206356   1.000000   1.000000
   44        5.493622      5.242881   1.000000   1.000000
   45        5.561442      5.352833   1.000000   1.000000
   46        5.563265      5.393188   1.000000   1.000000
   47        5.616195      5.418041   1.000000   1.000000
   48        5.734723      5.477580   1.000000   1.000000
   49        5.802997      5.539093   1.000000   1.000000
   50        5.808961      5.556561   1.000000   1.000000
   51        5.828707      5.647971   1.000000   1.000000
   52        5.897535      5.658769   1.000000   1.000000
   53        5.904285      5.712744   1.000000   1.000000
   54        5.922875      5.753492   1.000000   1.000000
   55        6.027159      5.783215   1.000000   1.000000
   56        6.089314      5.798892   1.000000   1.000000
   57        6.205895      5.900386   1.000000   1.000000
   58        6.270721      5.966417   1.000000   1.000000
   59        6.307796      5.991134   1.000000   1.000000
   60        6.392419      6.032765   1.000000   1.000000
   61        6.398088      6.129868   1.000000   1.000000
   62        6.416053      6.186490   1.000000   1.000000
   63        6.453483      6.236389   1.000000   1.000000
   64        6.529132      6.253711   1.000000   1.000000
   65        6.542391      6.264486   1.000000   1.000000
   66        6.611494      6.332529   1.000000   1.000000
   67        6.640080      6.352028   1.000000   1.000000
   68        6.675318      6.400381   1.000000   1.000000
   69        6.744643      6.404539   1.000000   1.000000
   70        6.745853      6.436144   1.000000   1.000000
   71        6.799334      6.536831   1.000000   1.000000
   72        6.841762      6.562588   1.000000   1.000000
   73        6.853059      6.635366   1.000000   1.000000
   74        6.870008      6.658172   1.000000   1.000000
   75        6.927432      6.693124   1.000000   1.000000
   76        6.960786      6.717624   1.000000   1.000000