       N       E                     dE             d eps       ncg     rms          ort
DAV:   1     0.136035421511E+04    0.13604E+04   -0.58047E+04  5616   0.146E+03
DAV:   2    -0.488291608427E+02   -0.14092E+04   -0.13833E+04  5616   0.454E+02
DAV:   3    -0.234360663318E+03   -0.18553E+03   -0.16957E+03  5616   0.177E+02
DAV:   4    -0.264964002289E+03   -0.30603E+02   -0.27635E+02  5616   0.775E+01
DAV:   5    -0.268747134102E+03   -0.37831E+01   -0.35807E+01  5616   0.233E+01
DAV:   6    -0.269124897881E+03   -0.37776E+00   -0.36286E+00  5616   0.607E+00
DAV:   7    -0.269175511306E+03   -0.50613E-01   -0.49122E-01  5616   0.192E+00
DAV:   8    -0.269183161585E+03   -0.76503E-02   -0.74778E-02  5616   0.580E-01
SDA:   9    -0.623882911703E+02    0.20679E+03   -0.74778E-02  5616   0.234E+04 0.000E+00
CGA:  10    -0.205646081499E+03   -0.14326E+03   -0.14191E+03  5616   0.166E+03 0.450E+03
CGA:  11    -0.217391713635E+03   -0.11746E+02   -0.11781E+02  5616   0.531E+02 0.303E+01
CGA:  12    -0.225368071303E+03   -0.79764E+01   -0.79833E+01  5616   0.999E+02-0.486E-03
CGA:  13    -0.232767169294E+03   -0.73991E+01   -0.75924E+01  5616   0.150E+02-0.359E+00
CGA:  14    -0.233893006782E+03   -0.11258E+01   -0.11391E+01  5616   0.531E+01-0.806E-01
CGA:  15    -0.234669607539E+03   -0.77660E+00   -0.77797E+00  5616   0.673E+01 0.186E-01
CGA:  16    -0.235266692586E+03   -0.59709E+00   -0.60169E+00  5616   0.197E+01-0.157E-01
CGA:  17    -0.235446872852E+03   -0.18018E+00   -0.18019E+00  5616   0.145E+01 0.449E-03
CGA:  18    -0.235638089811E+03   -0.19122E+00   -0.19143E+00  5616   0.155E+01 0.707E-03
CGA:  19    -0.235774313418E+03   -0.13622E+00   -0.13702E+00  5616   0.559E+00-0.515E-02
CGA:  20    -0.235830047364E+03   -0.55734E-01   -0.55858E-01  5616   0.411E+00-0.555E-03
CGA:  21    -0.235911673713E+03   -0.81626E-01   -0.81566E-01  5616   0.557E+00 0.915E-03
CGA:  22    -0.235960401007E+03   -0.48727E-01   -0.48813E-01  5616   0.219E+00-0.772E-03
CGA:  23    -0.235983208644E+03   -0.22808E-01   -0.22806E-01  5616   0.163E+00-0.289E-03
CGA:  24    -0.236009613461E+03   -0.26405E-01   -0.26410E-01  5616   0.203E+00-0.556E-03
CGA:  25    -0.236030237264E+03   -0.20624E-01   -0.20638E-01  5616   0.125E+00-0.426E-03
CGA:  26    -0.236047494282E+03   -0.17257E-01   -0.17255E-01  5616   0.123E+00-0.224E-03
CGA:  27    -0.236064625297E+03   -0.17131E-01   -0.17128E-01  5616   0.788E-01-0.122E-03
CGA:  28    -0.236071951025E+03   -0.73257E-02   -0.73190E-02  5616   0.462E-01 0.133E-03
CGA:  29    -0.236077914742E+03   -0.59637E-02   -0.59654E-02  5616   0.418E-01 0.114E-03
CGA:  30    -0.236084146418E+03   -0.62317E-02   -0.62316E-02  5616   0.343E-01 0.909E-04
CGA:  31    -0.236088130024E+03   -0.39836E-02   -0.39862E-02  5616   0.292E-01 0.113E-03
CGA:  32    -0.236092105849E+03   -0.39758E-02   -0.39765E-02  5616   0.257E-01 0.973E-04
CGA:  33    -0.236094970547E+03   -0.28647E-02   -0.28671E-02  5616   0.147E-01 0.151E-03
CGA:  34    -0.236096872168E+03   -0.19016E-02   -0.19032E-02  5616   0.109E-01 0.129E-03
CGA:  35    -0.236098345170E+03   -0.14730E-02   -0.14736E-02  5616   0.799E-02 0.963E-04
CGA:  36    -0.236099256178E+03   -0.91101E-03   -0.91234E-03  5616   0.664E-02 0.451E-04
CGA:  37    -0.236100263174E+03   -0.10070E-02   -0.10064E-02  5616   0.768E-02 0.524E-04
CGA:  38    -0.236101296057E+03   -0.10329E-02   -0.10332E-02  5616   0.442E-02 0.609E-04
CGA:  39    -0.236101696582E+03   -0.40052E-03   -0.40204E-03  5616   0.217E-02 0.297E-04
SDA:  40    -0.236102066022E+03   -0.36944E-03   -0.36890E-03  5616   0.266E-02 0.189E-04
CGA:  41    -0.236102281942E+03   -0.21592E-03   -0.21538E-03  5616   0.189E-02-0.106E-04
CGA:  42    -0.236102497892E+03   -0.21595E-03   -0.21555E-03  5616   0.119E-02-0.187E-04
CGA:  43    -0.236102749277E+03   -0.25139E-03   -0.25254E-03  5616   0.215E-02-0.146E-04
CGA:  44    -0.236102950324E+03   -0.20105E-03   -0.20064E-03  5616   0.674E-03-0.990E-05
CGA:  45    -0.236103043540E+03   -0.93216E-04   -0.93224E-04  5616   0.931E-03-0.415E-05
CGA:  46    -0.236103207724E+03   -0.16418E-03   -0.16451E-03  5616   0.602E-03-0.841E-05
CGA:  47    -0.236103289678E+03   -0.81953E-04   -0.81953E-04  5616   0.857E-03-0.503E-06
CGA:  48    -0.236103419047E+03   -0.12937E-03   -0.12934E-03  5616   0.486E-03 0.204E-05
CGA:  49    -0.236103468654E+03   -0.49607E-04   -0.49621E-04  5616   0.430E-03 0.793E-06
CGA:  50    -0.236103542296E+03   -0.73642E-04   -0.73599E-04  5616   0.410E-03 0.171E-05
CGA:  51    -0.236103575223E+03   -0.32927E-04   -0.32987E-04  5616   0.139E-03 0.160E-05
CGA:  52    -0.236103600319E+03   -0.25096E-04   -0.24999E-04  5616   0.285E-03 0.254E-05
CGA:  53    -0.236103636916E+03   -0.36597E-04   -0.36633E-04  5616   0.890E-04 0.317E-05
CGA:  54    -0.236103650513E+03   -0.13596E-04   -0.13599E-04  5616   0.141E-03 0.337E-09
CGA:  55    -0.236103678504E+03   -0.27991E-04   -0.28109E-04  5616   0.213E-04-0.166E-05
CGA:  56    -0.236103679623E+03   -0.11191E-05   -0.11499E-05  5616   0.115E-04 0.662E-06
CGA:  57    -0.236103683292E+03   -0.36694E-05    0.66011E-05  5616   0.501E-04 0.158E-04
CGA:  58    -0.236103686719E+03   -0.34269E-05   -0.33781E-05  5616   0.138E-04-0.705E-06
CGA:  59    -0.236103689630E+03   -0.29105E-05   -0.30985E-05  5616   0.492E-04-0.200E-05
CGA:  60    -0.236103698021E+03   -0.83909E-05   -0.87152E-05  5616   0.114E-03-0.460E-05
CGA:  61    -0.236103709243E+03   -0.11222E-04   -0.11156E-04  5616  -0.145E-05-0.104E-05
CGA:  62    -0.236103695316E+03    0.13926E-04   -0.30114E-08  5616   0.133E-03-0.101E-03
CGA:  63    -0.236103701362E+03   -0.60450E-05   -0.60195E-05  5616   0.178E-04-0.311E-06
CGA:  64    -0.236103704019E+03   -0.26574E-05   -0.26677E-05  5616   0.302E-04-0.817E-06
CGA:  65    -0.236103710839E+03   -0.68203E-05   -0.66713E-05  5616   0.405E-04 0.134E-05
CGA:  66    -0.236103714441E+03   -0.36013E-05   -0.36603E-05  5616  -0.726E-05 0.931E-06
CGA:  67    -0.236103710941E+03    0.34999E-05   -0.72709E-06  5616   0.164E-04-0.171E-04
CGA:  68    -0.236103711682E+03   -0.74141E-06   -0.73924E-06  5616  -0.247E-06-0.328E-07
CGA:  69    -0.236103711613E+03    0.68643E-07   -0.37369E-06  5616   0.168E-05-0.228E-06
CGA:  70    -0.236103711776E+03   -0.16253E-06   -0.16443E-06  5616   0.205E-05 0.509E-07
CGA:  71    -0.236103713016E+03   -0.12403E-05   -0.90739E-06  5616   0.121E-04 0.120E-05
CGA:  72    -0.236103713554E+03   -0.53781E-06   -0.53688E-06  5616  -0.541E-06-0.205E-08
CGA:  73    -0.236103713200E+03    0.35433E-06   -0.29078E-07  5616   0.301E-05-0.187E-05
CGA:  74    -0.236103713315E+03   -0.11570E-06   -0.11483E-06  5616   0.142E-06-0.679E-08
CGA:  75    -0.236103713353E+03   -0.37660E-07   -0.30861E-07  5616   0.116E-05 0.788E-07
CGA:  76    -0.236103713457E+03   -0.10425E-06   -0.10486E-06  5616   0.741E-06 0.791E-08
CGA:  77    -0.236103714452E+03   -0.99506E-06   -0.56888E-06  5616   0.707E-05 0.385E-06
CGA:  78    -0.236103714734E+03   -0.28187E-06   -0.28301E-06  5616   0.370E-06 0.356E-08
CGA:  79    -0.236103714764E+03   -0.29473E-07   -0.29023E-07  5616   0.268E-06 0.125E-08
CGA:  80    -0.236103714906E+03   -0.14252E-06    0.22862E-06  5616   0.895E-06 0.336E-06
CGA:  81    -0.236103714972E+03   -0.66066E-07   -0.67738E-07  5616   0.512E-06 0.650E-08
CGA:  82    -0.236103715096E+03   -0.12328E-06   -0.12294E-06  5616   0.179E-05 0.151E-07
CGA:  83    -0.236103715433E+03   -0.33741E-06   -0.34180E-06  5616   0.132E-05 0.139E-06
CGA:  84    -0.236103715951E+03   -0.51825E-06   -0.49138E-06  5616   0.280E-05 0.211E-06
CGA:  85    -0.236103716229E+03   -0.27792E-06   -0.28055E-06  5616   0.140E-05 0.186E-07
CGA:  86    -0.236103716467E+03   -0.23748E-06   -0.22499E-06  5616   0.144E-05-0.189E-06
CGA:  87    -0.236103716553E+03   -0.86258E-07   -0.81611E-07  5616   0.287E-06-0.347E-07
   1 F= -.23610372E+03 E0= -.23611745E+03  d E =0.411856E-01  mag=    -6.5564
