 vasp.5.4.4.18Apr17-6-g9f103f2a35 (build Dec 20 2018 12:05:58) complex          
  
 executed on             LinuxIFC date 2019.06.20  16:17:20
 running on   32 total cores
 distrk:  each k-point on    8 cores,    4 groups
 distr:  one band on NCORES_PER_BAND=   4 cores,    2 groups


--------------------------------------------------------------------------------------------------------


 INCAR:
 POTCAR:    PAW_PBE Al 04Jan2001                  
 POTCAR:    PAW_PBE Mn 06Sep2000                  

 ----------------------------------------------------------------------------- 
|                                                                             |
|           W    W    AA    RRRRR   N    N  II  N    N   GGGG   !!!           |
|           W    W   A  A   R    R  NN   N  II  NN   N  G    G  !!!           |
|           W    W  A    A  R    R  N N  N  II  N N  N  G       !!!           |
|           W WW W  AAAAAA  RRRRR   N  N N  II  N  N N  G  GGG   !            |
|           WW  WW  A    A  R   R   N   NN  II  N   NN  G    G                |
|           W    W  A    A  R    R  N    N  II  N    N   GGGG   !!!           |
|                                                                             |
|      You have enabled k-point parallelism (KPAR>1).                         |
|      This developmental code was originally  written by Paul Kent at ORNL,  |
|      and carefully double checked in Vienna.                                |
|      GW as well as linear response parallelism added by Martijn Marsman     |
|      and Georg Kresse.                                                      |
|      Carefully verify results versus KPAR=1.                                |
|      Report problems to Paul Kent and Vienna.                               |
|                                                                             |
 ----------------------------------------------------------------------------- 

 POTCAR:    PAW_PBE Al 04Jan2001                  
   VRHFIN =Al: s2p1                                                             
   LEXCH  = PE                                                                  
   EATOM  =    53.5387 eV,    3.9350 Ry                                         
                                                                                
   TITEL  = PAW_PBE Al 04Jan2001                                                
   LULTRA =        F    use ultrasoft PP ?                                      
   IUNSCR =        1    unscreen: 0-lin 1-nonlin 2-no                           
   RPACOR =    1.500    partial core radius                                     
   POMASS =   26.981; ZVAL   =    3.000    mass and valenz                      
   RCORE  =    1.900    outmost cutoff radius                                   
   RWIGS  =    2.650; RWIGS  =    1.402    wigner-seitz radius (au A)           
   ENMAX  =  240.300; ENMIN  =  180.225 eV                                      
   ICORE  =        2    local potential                                         
   LCOR   =        T    correct aug charges                                     
   LPAW   =        T    paw PP                                                  
   EAUG   =  291.052                                                            
   DEXC   =    0.000                                                            
   RMAX   =    1.939    core radius for proj-oper                               
   RAUG   =    1.300    factor for augmentation sphere                          
   RDEP   =    1.966    radius for radial grids                                 
   RDEPT  =    1.856    core radius for aug-charge                              
                                                                                
   Atomic configuration                                                         
    6 entries                                                                   
     n  l   j            E        occ.                                          
     1  0  0.50     -1511.1048   2.0000                                         
     2  0  0.50      -108.1629   2.0000                                         
     2  1  1.50       -69.6402   6.0000                                         
     3  0  0.50        -7.7528   2.0000                                         
     3  1  1.50        -2.7121   1.0000                                         
     3  2  2.50        -2.7212   0.0000                                         
   Description                                                                  
     l       E           TYP  RCUT    TYP  RCUT                                 
     0     -7.7528455     23  1.900                                             
     0     -3.3096929     23  1.900                                             
     1     -2.7120682     23  1.900                                             
     1     13.6058260     23  1.900                                             
     2     -2.7211652      7  1.900                                             
  local pseudopotential read in
  partial core-charges read in
  partial kinetic energy density read in
  atomic valenz-charges read in
  non local Contribution for L=           0  read in
    real space projection operators read in
  non local Contribution for L=           0  read in
    real space projection operators read in
  non local Contribution for L=           1  read in
    real space projection operators read in
  non local Contribution for L=           1  read in
    real space projection operators read in
    PAW grid and wavefunctions read in
 
   number of l-projection  operators is LMAX  =           4
   number of lm-projection operators is LMMAX =           8
 
 POTCAR:    PAW_PBE Mn 06Sep2000                  
   VRHFIN =Mn: d6 s1                                                            
   LEXCH  = PE                                                                  
   EATOM  =   416.7541 eV,   30.6306 Ry                                         
                                                                                
   TITEL  = PAW_PBE Mn 06Sep2000                                                
   LULTRA =        F    use ultrasoft PP ?                                      
   IUNSCR =        1    unscreen: 0-lin 1-nonlin 2-no                           
   RPACOR =    2.000    partial core radius                                     
   POMASS =   54.938; ZVAL   =    7.000    mass and valenz                      
   RCORE  =    2.300    outmost cutoff radius                                   
   RWIGS  =    2.500; RWIGS  =    1.323    wigner-seitz radius (au A)           
   ENMAX  =  269.864; ENMIN  =  202.398 eV                                      
   RCLOC  =    1.725    cutoff for local pot                                    
   LCOR   =        T    correct aug charges                                     
   LPAW   =        T    paw PP                                                  
   EAUG   =  500.711                                                            
   DEXC   =    0.000                                                            
   RMAX   =    2.343    core radius for proj-oper                               
   RAUG   =    1.300    factor for augmentation sphere                          
   RDEP   =    2.338    radius for radial grids                                 
   RDEPT  =    1.911    core radius for aug-charge                              
                                                                                
   Atomic configuration                                                         
    9 entries                                                                   
     n  l   j            E        occ.                                          
     1  0  0.50     -6424.8288   2.0000                                         
     2  0  0.50      -739.1154   2.0000                                         
     2  1  1.50      -625.3949   6.0000                                         
     3  0  0.50       -81.6100   2.0000                                         
     3  1  1.50       -50.4667   6.0000                                         
     3  2  2.50        -3.3745   6.0000                                         
     4  0  0.50        -4.1331   1.0000                                         
     4  1  0.50        -4.0817   0.0000                                         
     4  3  2.50        -1.3606   0.0000                                         
   Description                                                                  
     l       E           TYP  RCUT    TYP  RCUT                                 
     2     -3.3744664     23  2.300                                             
     2     -4.7350490     23  2.300                                             
     0     -4.1331408     23  2.300                                             
     0      7.6656614     23  2.300                                             
     1     -2.7211652     23  2.300                                             
     1     20.4087390     23  2.300                                             
  local pseudopotential read in
  partial core-charges read in
  partial kinetic energy density read in
  atomic valenz-charges read in
  non local Contribution for L=           2  read in
    real space projection operators read in
  non local Contribution for L=           2  read in
    real space projection operators read in
  non local Contribution for L=           0  read in
    real space projection operators read in
  non local Contribution for L=           0  read in
    real space projection operators read in
  non local Contribution for L=           1  read in
    real space projection operators read in
  non local Contribution for L=           1  read in
    real space projection operators read in
    PAW grid and wavefunctions read in
 
   number of l-projection  operators is LMAX  =           6
   number of lm-projection operators is LMMAX =          18
 

 ----------------------------------------------------------------------------- 
|                                                                             |
|  ADVICE TO THIS USER RUNNING 'VASP/VAMP'   (HEAR YOUR MASTER'S VOICE ...):  |
|                                                                             |
|      You have a (more or less) 'large supercell' and for larger cells       |
|      it might be more efficient to use real space projection opertators     |
|      So try LREAL= Auto  in the INCAR   file.                               |
|      Mind:          For very  accurate calculation you might also keep the  |
|      reciprocal projection scheme          (i.e. LREAL=.FALSE.)             |
|                                                                             |
 ----------------------------------------------------------------------------- 

  PAW_PBE Al 04Jan2001                  :
 energy of atom  1       EATOM=  -53.5387
 kinetic energy error for atom=    0.0005 (will be added to EATOM!!)
  PAW_PBE Mn 06Sep2000                  :
 energy of atom  2       EATOM= -416.7541
 kinetic energy error for atom=    0.0080 (will be added to EATOM!!)
 
 
 POSCAR: NewRef: 18, @ ['Mn', array([1.37502469, 
  positions in cartesian coordinates
  velocities in cartesian coordinates
  No initial velocities read in
 exchange correlation table for  LEXCH =        8
   RHO(1)=    0.500       N(1)  =     2000
   RHO(2)=  100.500       N(2)  =     4000
 


--------------------------------------------------------------------------------------------------------


 ion  position               nearest neighbor table
   1  0.000  0.000  0.000-  20 2.61  24 2.61  32 2.61  36 2.61  31 2.61  23 2.61  35 2.61  19 2.61
                             3 2.75   7 2.75   5 2.75  13 2.75
   2  0.000  0.000  0.500-  19 2.61  23 2.61  31 2.61  35 2.61  20 2.61  32 2.61  24 2.61  36 2.61
                             4 2.75   8 2.75   6 2.75  14 2.75
   3  0.000  0.333  0.000-  20 2.61  32 2.61  22 2.61  34 2.61  19 2.61  31 2.61  33 2.61  21 2.61
                             9 2.75   1 2.75   5 2.75  15 2.75
   4  0.000  0.333  0.500-  19 2.61  31 2.61  21 2.61  33 2.61  32 2.61  20 2.61  22 2.61  34 2.61
                            10 2.75   2 2.75   6 2.75  16 2.75
   5  0.000  0.667  0.000-  22 2.61  34 2.61  24 2.61  36 2.61  21 2.61  33 2.61  35 2.61  23 2.61
                             3 2.75  11 2.75   1 2.75  17 2.75
   6  0.000  0.667  0.500-  21 2.61  33 2.61  23 2.61  35 2.61  34 2.61  22 2.61  24 2.61  36 2.61
                             4 2.75  12 2.75   2 2.75  18 2.75
   7  0.333  0.000  0.000-  20 2.61  24 2.61  26 2.61  30 2.61  23 2.61  19 2.61  29 2.61  25 2.61
                            13 2.75   1 2.75   9 2.75  11 2.75
   8  0.333  0.000  0.500-  19 2.61  23 2.61  25 2.61  29 2.61  20 2.61  24 2.61  26 2.61  30 2.61
                            14 2.75   2 2.75  10 2.75  12 2.75
   9  0.333  0.333  0.000-  20 2.61  22 2.61  26 2.61  19 2.61  28 2.61  21 2.61  25 2.61  27 2.61
                             3 2.75   7 2.75  11 2.75  15 2.75
  10  0.333  0.333  0.500-  19 2.61  21 2.61  25 2.61  20 2.61  27 2.61  26 2.61  22 2.61  28 2.61
                             4 2.75   8 2.75  12 2.75  16 2.75
  11  0.333  0.667  0.000-  22 2.61  24 2.61  28 2.61  21 2.61  30 2.61  23 2.61  27 2.61  29 2.61
                            17 2.75   5 2.75   9 2.75   7 2.75
  12  0.333  0.667  0.500-  21 2.61  23 2.61  27 2.61  22 2.61  29 2.61  28 2.61  24 2.61  30 2.61
                            18 2.75   6 2.75  10 2.75   8 2.75
  13  0.667  0.000  0.000-  26 2.61  30 2.61  32 2.61  36 2.61  29 2.61  25 2.61  35 2.61  31 2.61
                             7 2.75  15 2.75   1 2.75  17 2.75
  14  0.667  0.000  0.500-  25 2.61  29 2.61  31 2.61  35 2.61  26 2.61  30 2.61  32 2.61  36 2.61
                             8 2.75  16 2.75   2 2.75  18 2.75
  15  0.667  0.333  0.000-  26 2.61  28 2.61  32 2.61  25 2.61  34 2.61  27 2.61  31 2.61  33 2.61
                            17 2.75   9 2.75  13 2.75   3 2.75
  16  0.667  0.333  0.500-  25 2.61  27 2.61  31 2.61  26 2.61  33 2.61  32 2.61  28 2.61  34 2.61
                            18 2.75  10 2.75  14 2.75   4 2.75
  17  0.667  0.667  0.000-  28 2.61  30 2.61  34 2.61  27 2.61  36 2.61  29 2.61  33 2.61  35 2.61
                            11 2.75  15 2.75  13 2.75   5 2.75
  18  0.667  0.667  0.500-  27 2.61  29 2.61  33 2.61  28 2.61  35 2.61  34 2.61  30 2.61  36 2.61
                            12 2.75  16 2.75  14 2.75   6 2.75
  19  0.167  0.167  0.250-  10 2.61   8 2.61   4 2.61   9 2.61   2 2.61   7 2.61   3 2.61   1 2.61
                            21 2.75  25 2.75  23 2.75  31 2.75
  20  0.167  0.167  0.750-   9 2.61   7 2.61   3 2.61  10 2.61   1 2.61   4 2.61   8 2.61   2 2.61
                            22 2.75  26 2.75  24 2.75  32 2.75
  21  0.167  0.500  0.250-  12 2.61  10 2.61   6 2.61  11 2.61   4 2.61   9 2.61   5 2.61   3 2.61
                            19 2.75  23 2.75  27 2.75  33 2.75
  22  0.167  0.500  0.750-  11 2.61   9 2.61   5 2.61  12 2.61   3 2.61   6 2.61  10 2.61   4 2.61
                            20 2.75  24 2.75  28 2.75  34 2.75
  23  0.167  0.833  0.250-   8 2.61  12 2.61   2 2.61   6 2.61  11 2.61   7 2.61   5 2.61   1 2.61
                            21 2.75  29 2.75  19 2.75  35 2.75
  24  0.167  0.833  0.750-   7 2.61  11 2.61   1 2.61   5 2.61   8 2.61  12 2.61   2 2.61   6 2.61
                            22 2.75  30 2.75  20 2.75  36 2.75
  25  0.500  0.167  0.250-  16 2.61  14 2.61  10 2.61  15 2.61   8 2.61  13 2.61   9 2.61   7 2.61
                            19 2.75  27 2.75  31 2.75  29 2.75
  26  0.500  0.167  0.750-  15 2.61  13 2.61   9 2.61  16 2.61   7 2.61  10 2.61  14 2.61   8 2.61
                            20 2.75  28 2.75  32 2.75  30 2.75
  27  0.500  0.500  0.250-  18 2.61  16 2.61  12 2.61  17 2.61  10 2.61  15 2.61  11 2.61   9 2.61
                            21 2.75  25 2.75  29 2.75  33 2.75
  28  0.500  0.500  0.750-  17 2.61  15 2.61  11 2.61  18 2.61   9 2.61  12 2.61  16 2.61  10 2.61
                            22 2.75  26 2.75  30 2.75  34 2.75
  29  0.500  0.833  0.250-  14 2.61  18 2.61   8 2.61  12 2.61  17 2.61  13 2.61  11 2.61   7 2.61
                            23 2.75  27 2.75  35 2.75  25 2.75
  30  0.500  0.833  0.750-  13 2.61  17 2.61   7 2.61  11 2.61  14 2.61  18 2.61   8 2.61  12 2.61
                            24 2.75  28 2.75  36 2.75  26 2.75
  31  0.833  0.167  0.250-   4 2.61  16 2.61  14 2.61   2 2.61  15 2.61   3 2.61  13 2.61   1 2.61
                            25 2.75  33 2.75  19 2.75  35 2.75
  32  0.833  0.167  0.750-   3 2.61  15 2.61  13 2.61   1 2.61   4 2.61  16 2.61   2 2.61  14 2.61
                            26 2.75  34 2.75  20 2.75  36 2.75
  33  0.833  0.500  0.250-   6 2.61  18 2.61  16 2.61   4 2.61  17 2.61   5 2.61  15 2.61   3 2.61
                            27 2.75  31 2.75  35 2.75  21 2.75
  34  0.833  0.500  0.750-   5 2.61  17 2.61  15 2.61   3 2.61   6 2.61  18 2.61   4 2.61  16 2.61
                            28 2.75  32 2.75  36 2.75  22 2.75
  35  0.833  0.833  0.250-   2 2.61   6 2.61  14 2.61  18 2.61  13 2.61   5 2.61  17 2.61   1 2.61
                            29 2.75  33 2.75  31 2.75  23 2.75
  36  0.833  0.833  0.750-   1 2.61   5 2.61  13 2.61  17 2.61   2 2.61  14 2.61   6 2.61  18 2.61
                            30 2.75  34 2.75  32 2.75  24 2.75
 
  LATTYP: Found a simple tetragonal cell.
 ALAT       =     8.2501481662
 C/A-ratio  =     0.8428059861
  
  Lattice vectors:
  
 A1 = (   8.2501481662,   0.0000000000,   0.0000000000)
 A2 = (   0.0000000000,   8.2501481662,   0.0000000000)
 A3 = (   0.0000000000,   0.0000000000,   6.9532742610)


Analysis of symmetry for initial positions (statically):
=====================================================================
 Subroutine PRICEL returns following result:
 
  LATTYP: Found a simple tetragonal cell.
 ALAT       =     2.7500493888
 C/A-ratio  =     1.2642089792
  
  Lattice vectors:
  
 A1 = (   2.7500493888,   0.0000000000,   0.0000000000)
 A2 = (   0.0000000000,   2.7500493888,   0.0000000000)
 A3 = (   0.0000000000,   0.0000000000,   3.4766371305)
 
  18 primitive cells build up your supercell.
 

 Routine SETGRP: Setting up the symmetry group for a 
 simple tetragonal supercell.


 Subroutine GETGRP returns: Found 16 space group operations
 (whereof 16 operations were pure point group operations)
 out of a pool of 16 trial point group operations.


The static configuration has the point symmetry D_4h.


Analysis of symmetry for dynamics (positions and initial velocities):
=====================================================================
 Subroutine PRICEL returns following result:
 
  LATTYP: Found a simple tetragonal cell.
 ALAT       =     2.7500493888
 C/A-ratio  =     1.2642089792
  
  Lattice vectors:
  
 A1 = (   2.7500493888,   0.0000000000,   0.0000000000)
 A2 = (   0.0000000000,   2.7500493888,   0.0000000000)
 A3 = (   0.0000000000,   0.0000000000,   3.4766371305)
 
  18 primitive cells build up your supercell.
 

 Routine SETGRP: Setting up the symmetry group for a 
 simple tetragonal supercell.


 Subroutine GETGRP returns: Found 16 space group operations
 (whereof 16 operations were pure point group operations)
 out of a pool of 16 trial point group operations.


The dynamic configuration has the point symmetry D_4h.


Analysis of structural, dynamic, and magnetic symmetry:
=====================================================================
 Subroutine PRICEL returns:
 Original cell was already a primitive cell.
 

 Routine SETGRP: Setting up the symmetry group for a 
 simple tetragonal supercell.


 Subroutine GETGRP returns: Found  2 space group operations
 (whereof  1 operations were pure point group operations)
 out of a pool of 16 trial point group operations.


The magnetic configuration has the point symmetry C_1 .
 The point group associated with its full space group is C_1h.


 Subroutine INISYM returns: Found  2 space group operations
 (whereof  1 operations are pure point group operations),
 and found     1 'primitive' translations

 
 
 KPOINTS: automatic KPOINTS                       

Automatic generation of k-mesh.
 generate k-points for:    5    5    6
Space group operators:
 irot       det(A)        alpha          n_x          n_y          n_z        tau_x        tau_y        tau_z
    1     1.000000     0.000001     1.000000     0.000000     0.000000     0.000000     0.000000     0.000000
    2    -1.000000   179.999999     0.000000     0.000000     1.000000     0.000000     0.000000     0.500000
 
 Subroutine IBZKPT returns following result:
 ===========================================
 
 Found     52 irreducible k-points:
 
 Following reciprocal coordinates:
            Coordinates               Weight
  0.000000  0.000000  0.000000      1.000000
  0.200000  0.000000  0.000000      2.000000
  0.400000  0.000000  0.000000      2.000000
  0.000000  0.200000  0.000000      2.000000
  0.200000  0.200000  0.000000      2.000000
  0.400000  0.200000  0.000000      2.000000
 -0.400000  0.200000  0.000000      2.000000
 -0.200000  0.200000  0.000000      2.000000
  0.000000  0.400000  0.000000      2.000000
  0.200000  0.400000  0.000000      2.000000
  0.400000  0.400000  0.000000      2.000000
 -0.400000  0.400000  0.000000      2.000000
 -0.200000  0.400000  0.000000      2.000000
  0.000000  0.000000  0.166667      2.000000
  0.200000  0.000000  0.166667      4.000000
  0.400000  0.000000  0.166667      4.000000
  0.000000  0.200000  0.166667      4.000000
  0.200000  0.200000  0.166667      4.000000
  0.400000  0.200000  0.166667      4.000000
 -0.400000  0.200000  0.166667      4.000000
 -0.200000  0.200000  0.166667      4.000000
  0.000000  0.400000  0.166667      4.000000
  0.200000  0.400000  0.166667      4.000000
  0.400000  0.400000  0.166667      4.000000
 -0.400000  0.400000  0.166667      4.000000
 -0.200000  0.400000  0.166667      4.000000
  0.000000  0.000000  0.333333      2.000000
  0.200000  0.000000  0.333333      4.000000
  0.400000  0.000000  0.333333      4.000000
  0.000000  0.200000  0.333333      4.000000
  0.200000  0.200000  0.333333      4.000000
  0.400000  0.200000  0.333333      4.000000
 -0.400000  0.200000  0.333333      4.000000
 -0.200000  0.200000  0.333333      4.000000
  0.000000  0.400000  0.333333      4.000000
  0.200000  0.400000  0.333333      4.000000
  0.400000  0.400000  0.333333      4.000000
 -0.400000  0.400000  0.333333      4.000000
 -0.200000  0.400000  0.333333      4.000000
  0.000000  0.000000  0.500000      1.000000
  0.200000  0.000000  0.500000      2.000000
  0.400000  0.000000  0.500000      2.000000
  0.000000  0.200000  0.500000      2.000000
  0.200000  0.200000  0.500000      2.000000
  0.400000  0.200000  0.500000      2.000000
 -0.400000  0.200000  0.500000      2.000000
 -0.200000  0.200000  0.500000      2.000000
  0.000000  0.400000  0.500000      2.000000
  0.200000  0.400000  0.500000      2.000000
  0.400000  0.400000  0.500000      2.000000
 -0.400000  0.400000  0.500000      2.000000
 -0.200000  0.400000  0.500000      2.000000
 
 Following cartesian coordinates:
            Coordinates               Weight
  0.000000  0.000000  0.000000      1.000000
  0.024242  0.000000  0.000000      2.000000
  0.048484  0.000000  0.000000      2.000000
  0.000000  0.024242  0.000000      2.000000
  0.024242  0.024242  0.000000      2.000000
  0.048484  0.024242  0.000000      2.000000
 -0.048484  0.024242  0.000000      2.000000
 -0.024242  0.024242  0.000000      2.000000
  0.000000  0.048484  0.000000      2.000000
  0.024242  0.048484  0.000000      2.000000
  0.048484  0.048484  0.000000      2.000000
 -0.048484  0.048484  0.000000      2.000000
 -0.024242  0.048484  0.000000      2.000000
  0.000000  0.000000  0.023970      2.000000
  0.024242  0.000000  0.023970      4.000000
  0.048484  0.000000  0.023970      4.000000
  0.000000  0.024242  0.023970      4.000000
  0.024242  0.024242  0.023970      4.000000
  0.048484  0.024242  0.023970      4.000000
 -0.048484  0.024242  0.023970      4.000000
 -0.024242  0.024242  0.023970      4.000000
  0.000000  0.048484  0.023970      4.000000
  0.024242  0.048484  0.023970      4.000000
  0.048484  0.048484  0.023970      4.000000
 -0.048484  0.048484  0.023970      4.000000
 -0.024242  0.048484  0.023970      4.000000
  0.000000  0.000000  0.047939      2.000000
  0.024242  0.000000  0.047939      4.000000
  0.048484  0.000000  0.047939      4.000000
  0.000000  0.024242  0.047939      4.000000
  0.024242  0.024242  0.047939      4.000000
  0.048484  0.024242  0.047939      4.000000
 -0.048484  0.024242  0.047939      4.000000
 -0.024242  0.024242  0.047939      4.000000
  0.000000  0.048484  0.047939      4.000000
  0.024242  0.048484  0.047939      4.000000
  0.048484  0.048484  0.047939      4.000000
 -0.048484  0.048484  0.047939      4.000000
 -0.024242  0.048484  0.047939      4.000000
  0.000000  0.000000  0.071909      1.000000
  0.024242  0.000000  0.071909      2.000000
  0.048484  0.000000  0.071909      2.000000
  0.000000  0.024242  0.071909      2.000000
  0.024242  0.024242  0.071909      2.000000
  0.048484  0.024242  0.071909      2.000000
 -0.048484  0.024242  0.071909      2.000000
 -0.024242  0.024242  0.071909      2.000000
  0.000000  0.048484  0.071909      2.000000
  0.024242  0.048484  0.071909      2.000000
  0.048484  0.048484  0.071909      2.000000
 -0.048484  0.048484  0.071909      2.000000
 -0.024242  0.048484  0.071909      2.000000
 


--------------------------------------------------------------------------------------------------------




 Dimension of arrays:
   k-points           NKPTS =     52   k-points in BZ     NKDIM =     52   number of bands    NBANDS=    108
   number of dos      NEDOS =    301   number of ions     NIONS =     36
   non local maximal  LDIM  =      6   non local SUM 2l+1 LMDIM =     18
   total plane-waves  NPLWV = 139968
   max r-space proj   IRMAX =      1   max aug-charges    IRDMAX=  92271
   dimension x,y,z NGX =    54 NGY =   54 NGZ =   48
   dimension x,y,z NGXF=   108 NGYF=  108 NGZF=   96
   support grid    NGXF=   216 NGYF=  216 NGZF=  192
   ions per type =              18  18
   NGX,Y,Z   is equivalent  to a cutoff of  10.88, 10.88, 11.48 a.u.
   NGXF,Y,Z  is equivalent  to a cutoff of  21.76, 21.76, 22.95 a.u.

 SYSTEM =  AlMn_pv                                 
 POSCAR =  NewRef: 18, @ ['Mn', array([1.37502469, 

 Startparameter for this run:
   NWRITE =      2    write-flag & timer
   PREC   = accura    normal or accurate (medium, high low for compatibility)
   ISTART =      0    job   : 0-new  1-cont  2-samecut
   ICHARG =      2    charge: 1-file 2-atom 10-const
   ISPIN  =      2    spin polarized calculation?
   LNONCOLLINEAR =      F non collinear calculations
   LSORBIT =      F    spin-orbit coupling
   INIWAV =      1    electr: 0-lowe 1-rand  2-diag
   LASPH  =      F    aspherical Exc in radial PAW
   METAGGA=      F    non-selfconsistent MetaGGA calc.

 Electronic Relaxation 1
   ENCUT  =  404.8 eV  29.75 Ry    5.45 a.u.  13.53 13.53 11.41*2*pi/ulx,y,z
   ENINI  =  404.8     initial cutoff
   ENAUG  =  500.7 eV  augmentation charge cutoff
   NELM   =    100;   NELMIN=  4; NELMDL= -8     # of ELM steps 
   EDIFF  = 0.1E-06   stopping-criterion for ELM
   LREAL  =      F    real-space projection
   NLSPLINE    = F    spline interpolate recip. space projectors
   LCOMPAT=      F    compatible to vasp.4.4
   GGA_COMPAT  = T    GGA compatible to vasp.4.4-vasp.4.6
   LMAXPAW     = -100 max onsite density
   LMAXMIX     =    2 max onsite mixed and CHGCAR
   VOSKOWN=      0    Vosko Wilk Nusair interpolation
   ROPT   =    0.00000   0.00000
 Ionic relaxation
   EDIFFG = 0.1E-05   stopping-criterion for IOM
   NSW    =      0    number of steps for IOM
   NBLOCK =      1;   KBLOCK =      1    inner block; outer block 
   IBRION =     -1    ionic relax: 0-MD 1-quasi-New 2-CG
   NFREE  =      0    steps in history (QN), initial steepest desc. (CG)
   ISIF   =      2    stress and relaxation
   IWAVPR =     10    prediction:  0-non 1-charg 2-wave 3-comb
   ISYM   =      2    0-nonsym 1-usesym 2-fastsym
   LCORR  =      T    Harris-Foulkes like correction to forces

   POTIM  = 0.2000    time-step for ionic-motion
   TEIN   =    0.0    initial temperature
   TEBEG  =    0.0;   TEEND  =   0.0 temperature during run
   SMASS  =  -3.00    Nose mass-parameter (am)
   estimated Nose-frequenzy (Omega)   =  0.10E-29 period in steps =****** mass=  -0.156E-26a.u.
   SCALEE = 1.0000    scale energy and forces
   NPACO  =    256;   APACO  = 16.0  distance and # of slots for P.C.
   PSTRESS=    0.0 pullay stress

  Mass of Ions in am
   POMASS =  26.98 54.94
  Ionic Valenz
   ZVAL   =   3.00  7.00
  Atomic Wigner-Seitz radii
   RWIGS  =  -1.00 -1.00
  virtual crystal weights 
   VCA    =   1.00  1.00
   NELECT =     180.0000    total number of electrons
   NUPDOWN=      -1.0000    fix difference up-down

 DOS related values:
   EMIN   =  10.00;   EMAX   =-10.00  energy-range for DOS
   EFERMI =   0.00
   ISMEAR =     1;   SIGMA  =   0.20  broadening in eV -4-tet -1-fermi 0-gaus

 Electronic relaxation 2 (details)
   IALGO  =     58    algorithm
   LDIAG  =      T    sub-space diagonalisation (order eigenvalues)
   LSUBROT=      F    optimize rotation matrix (better conditioning)
   TURBO    =      0    0=normal 1=particle mesh
   IRESTART =      0    0=no restart 2=restart with 2 vectors
   NREBOOT  =      0    no. of reboots
   NMIN     =      0    reboot dimension
   EREF     =   0.00    reference energy to select bands
   IMIX   =      4    mixing-type and parameters
     AMIX     =   0.40;   BMIX     =  1.00
     AMIX_MAG =   1.60;   BMIX_MAG =  1.00
     AMIN     =   0.10
     WC   =   100.;   INIMIX=   1;  MIXPRE=   1;  MAXMIX= -45

 Intra band minimization:
   WEIMIN = 0.0000     energy-eigenvalue tresh-hold
   EBREAK =  0.23E-09  absolut break condition
   DEPER  =   0.30     relativ break condition  

   TIME   =   0.40     timestep for ELM

  volume/ion in A,a.u.               =      13.15        88.72
  Fermi-wavevector in a.u.,A,eV,Ry     =   1.186118  2.241439 19.141722  1.406877
  Thomas-Fermi vector in A             =   2.322298
 
 Write flags
   LWAVE        =      F    write WAVECAR
   LDOWNSAMPLE  =      F    k-point downsampling of WAVECAR
   LCHARG       =      F    write CHGCAR
   LVTOT        =      F    write LOCPOT, total local potential
   LVHAR        =      F    write LOCPOT, Hartree potential only
   LELF         =      F    write electronic localiz. function (ELF)
   LORBIT       =     10    0 simple, 1 ext, 2 COOP (PROOUT), +10 PAW based schemes


 Dipole corrections
   LMONO  =      F    monopole corrections only (constant potential shift)
   LDIPOL =      F    correct potential (dipole corrections)
   IDIPOL =      0    1-x, 2-y, 3-z, 4-all directions 
   EPSILON=  1.0000000 bulk dielectric constant

 Exchange correlation treatment:
   GGA     =    --    GGA type
   LEXCH   =     8    internal setting for exchange type
   VOSKOWN=      0    Vosko Wilk Nusair interpolation
   LHFCALC =     F    Hartree Fock is set to
   LHFONE  =     F    Hartree Fock one center treatment
   AEXX    =    0.0000 exact exchange contribution

 Linear response parameters
   LEPSILON=     F    determine dielectric tensor
   LRPA    =     F    only Hartree local field effects (RPA)
   LNABLA  =     F    use nabla operator in PAW spheres
   LVEL    =     F    velocity operator in full k-point grid
   LINTERFAST=   F  fast interpolation
   KINTER  =     0    interpolate to denser k-point grid
   CSHIFT  =0.1000    complex shift for real part using Kramers Kronig
   OMEGAMAX=  -1.0    maximum frequency
   DEG_THRESHOLD= 0.2000000E-02 threshold for treating states as degnerate
   RTIME   =   -0.100 relaxation time in fs
  (WPLASMAI=    0.000 imaginary part of plasma frequency in eV, 0.658/RTIME)
   DFIELD  = 0.0000000 0.0000000 0.0000000 field for delta impulse in time
 
 Orbital magnetization related:
   ORBITALMAG=     F  switch on orbital magnetization
   LCHIMAG   =     F  perturbation theory with respect to B field
   DQ        =  0.001000  dq finite difference perturbation B field
   LLRAUG    =     F  two centre corrections for induced B field



--------------------------------------------------------------------------------------------------------


 Static calculation
 charge density and potential will be updated during run
 spin polarized calculation
 Conjugate gradient for all bands (Freysoldt, et al. PRB 79, 241103 (2009))
 preconditioned conjugated gradient                                        
 perform sub-space diagonalisation
    before iterative eigenvector-optimisation
 modified Broyden-mixing scheme, WC =      100.0
 initial mixing is a Kerker type mixing with AMIX =  0.4000 and BMIX =      1.0000
 Hartree-type preconditioning will be used
 using additional bands           18
 reciprocal scheme for non local part
 use partial core corrections
 no Harris-corrections to forces 
 use gradient corrections 
 use of overlap-Matrix (Vanderbilt PP)
 Methfessel and Paxton  Order N= 1 SIGMA  =   0.20


--------------------------------------------------------------------------------------------------------


  energy-cutoff  :      404.80
  volume of cell :      473.27
      direct lattice vectors                 reciprocal lattice vectors
     8.250148166  0.000000000  0.000000000     0.121209944  0.000000000  0.000000000
     0.000000000  8.250148166  0.000000000     0.000000000  0.121209944  0.000000000
     0.000000000  0.000000000  6.953274261     0.000000000  0.000000000  0.143817137

  length of vectors
     8.250148166  8.250148166  6.953274261     0.121209944  0.121209944  0.143817137


 
 k-points in units of 2pi/SCALE and weight: automatic KPOINTS                       
   0.00000000  0.00000000  0.00000000       0.007
   0.02424199  0.00000000  0.00000000       0.013
   0.04848398  0.00000000  0.00000000       0.013
   0.00000000  0.02424199  0.00000000       0.013
   0.02424199  0.02424199  0.00000000       0.013
   0.04848398  0.02424199  0.00000000       0.013
  -0.04848398  0.02424199  0.00000000       0.013
  -0.02424199  0.02424199  0.00000000       0.013
   0.00000000  0.04848398  0.00000000       0.013
   0.02424199  0.04848398  0.00000000       0.013
   0.04848398  0.04848398  0.00000000       0.013
  -0.04848398  0.04848398  0.00000000       0.013
  -0.02424199  0.04848398  0.00000000       0.013
   0.00000000  0.00000000  0.02396952       0.013
   0.02424199  0.00000000  0.02396952       0.027
   0.04848398  0.00000000  0.02396952       0.027
   0.00000000  0.02424199  0.02396952       0.027
   0.02424199  0.02424199  0.02396952       0.027
   0.04848398  0.02424199  0.02396952       0.027
  -0.04848398  0.02424199  0.02396952       0.027
  -0.02424199  0.02424199  0.02396952       0.027
   0.00000000  0.04848398  0.02396952       0.027
   0.02424199  0.04848398  0.02396952       0.027
   0.04848398  0.04848398  0.02396952       0.027
  -0.04848398  0.04848398  0.02396952       0.027
  -0.02424199  0.04848398  0.02396952       0.027
   0.00000000  0.00000000  0.04793905       0.013
   0.02424199  0.00000000  0.04793905       0.027
   0.04848398  0.00000000  0.04793905       0.027
   0.00000000  0.02424199  0.04793905       0.027
   0.02424199  0.02424199  0.04793905       0.027
   0.04848398  0.02424199  0.04793905       0.027
  -0.04848398  0.02424199  0.04793905       0.027
  -0.02424199  0.02424199  0.04793905       0.027
   0.00000000  0.04848398  0.04793905       0.027
   0.02424199  0.04848398  0.04793905       0.027
   0.04848398  0.04848398  0.04793905       0.027
  -0.04848398  0.04848398  0.04793905       0.027
  -0.02424199  0.04848398  0.04793905       0.027
   0.00000000  0.00000000  0.07190857       0.007
   0.02424199  0.00000000  0.07190857       0.013
   0.04848398  0.00000000  0.07190857       0.013
   0.00000000  0.02424199  0.07190857       0.013
   0.02424199  0.02424199  0.07190857       0.013
   0.04848398  0.02424199  0.07190857       0.013
  -0.04848398  0.02424199  0.07190857       0.013
  -0.02424199  0.02424199  0.07190857       0.013
   0.00000000  0.04848398  0.07190857       0.013
   0.02424199  0.04848398  0.07190857       0.013
   0.04848398  0.04848398  0.07190857       0.013
  -0.04848398  0.04848398  0.07190857       0.013
  -0.02424199  0.04848398  0.07190857       0.013
 
 k-points in reciprocal lattice and weights: automatic KPOINTS                       
   0.00000000  0.00000000  0.00000000       0.007
   0.20000000  0.00000000  0.00000000       0.013
   0.40000000  0.00000000  0.00000000       0.013
   0.00000000  0.20000000  0.00000000       0.013
   0.20000000  0.20000000  0.00000000       0.013
   0.40000000  0.20000000  0.00000000       0.013
  -0.40000000  0.20000000  0.00000000       0.013
  -0.20000000  0.20000000  0.00000000       0.013
   0.00000000  0.40000000  0.00000000       0.013
   0.20000000  0.40000000  0.00000000       0.013
   0.40000000  0.40000000  0.00000000       0.013
  -0.40000000  0.40000000  0.00000000       0.013
  -0.20000000  0.40000000  0.00000000       0.013
   0.00000000  0.00000000  0.16666667       0.013
   0.20000000  0.00000000  0.16666667       0.027
   0.40000000  0.00000000  0.16666667       0.027
   0.00000000  0.20000000  0.16666667       0.027
   0.20000000  0.20000000  0.16666667       0.027
   0.40000000  0.20000000  0.16666667       0.027
  -0.40000000  0.20000000  0.16666667       0.027
  -0.20000000  0.20000000  0.16666667       0.027
   0.00000000  0.40000000  0.16666667       0.027
   0.20000000  0.40000000  0.16666667       0.027
   0.40000000  0.40000000  0.16666667       0.027
  -0.40000000  0.40000000  0.16666667       0.027
  -0.20000000  0.40000000  0.16666667       0.027
   0.00000000  0.00000000  0.33333333       0.013
   0.20000000  0.00000000  0.33333333       0.027
   0.40000000  0.00000000  0.33333333       0.027
   0.00000000  0.20000000  0.33333333       0.027
   0.20000000  0.20000000  0.33333333       0.027
   0.40000000  0.20000000  0.33333333       0.027
  -0.40000000  0.20000000  0.33333333       0.027
  -0.20000000  0.20000000  0.33333333       0.027
   0.00000000  0.40000000  0.33333333       0.027
   0.20000000  0.40000000  0.33333333       0.027
   0.40000000  0.40000000  0.33333333       0.027
  -0.40000000  0.40000000  0.33333333       0.027
  -0.20000000  0.40000000  0.33333333       0.027
   0.00000000  0.00000000  0.50000000       0.007
   0.20000000  0.00000000  0.50000000       0.013
   0.40000000  0.00000000  0.50000000       0.013
   0.00000000  0.20000000  0.50000000       0.013
   0.20000000  0.20000000  0.50000000       0.013
   0.40000000  0.20000000  0.50000000       0.013
  -0.40000000  0.20000000  0.50000000       0.013
  -0.20000000  0.20000000  0.50000000       0.013
   0.00000000  0.40000000  0.50000000       0.013
   0.20000000  0.40000000  0.50000000       0.013
   0.40000000  0.40000000  0.50000000       0.013
  -0.40000000  0.40000000  0.50000000       0.013
  -0.20000000  0.40000000  0.50000000       0.013
 
 position of ions in fractional coordinates (direct lattice) 
   0.00000000  0.00000000  0.00000000
   0.00000000  0.00000000  0.50000000
   0.00000000  0.33333333  0.00000000
   0.00000000  0.33333333  0.50000000
   0.00000000  0.66666667  0.00000000
   0.00000000  0.66666667  0.50000000
   0.33333333  0.00000000  0.00000000
   0.33333333  0.00000000  0.50000000
   0.33333333  0.33333333  0.00000000
   0.33333333  0.33333333  0.50000000
   0.33333333  0.66666667  0.00000000
   0.33333333  0.66666667  0.50000000
   0.66666667  0.00000000  0.00000000
   0.66666667  0.00000000  0.50000000
   0.66666667  0.33333333  0.00000000
   0.66666667  0.33333333  0.50000000
   0.66666667  0.66666667  0.00000000
   0.66666667  0.66666667  0.50000000
   0.16666667  0.16666667  0.25000000
   0.16666667  0.16666667  0.75000000
   0.16666667  0.50000000  0.25000000
   0.16666667  0.50000000  0.75000000
   0.16666667  0.83333333  0.25000000
   0.16666667  0.83333333  0.75000000
   0.50000000  0.16666667  0.25000000
   0.50000000  0.16666667  0.75000000
   0.50000000  0.50000000  0.25000000
   0.50000000  0.50000000  0.75000000
   0.50000000  0.83333333  0.25000000
   0.50000000  0.83333333  0.75000000
   0.83333333  0.16666667  0.25000000
   0.83333333  0.16666667  0.75000000
   0.83333333  0.50000000  0.25000000
   0.83333333  0.50000000  0.75000000
   0.83333333  0.83333333  0.25000000
   0.83333333  0.83333333  0.75000000
 
 position of ions in cartesian coordinates  (Angst):
   0.00000000  0.00000000  0.00000000
   0.00000000  0.00000000  3.47663713
   0.00000000  2.75004939  0.00000000
   0.00000000  2.75004939  3.47663713
   0.00000000  5.50009878  0.00000000
   0.00000000  5.50009878  3.47663713
   2.75004939  0.00000000  0.00000000
   2.75004939  0.00000000  3.47663713
   2.75004939  2.75004939  0.00000000
   2.75004939  2.75004939  3.47663713
   2.75004939  5.50009878  0.00000000
   2.75004939  5.50009878  3.47663713
   5.50009878  0.00000000  0.00000000
   5.50009878  0.00000000  3.47663713
   5.50009878  2.75004939  0.00000000
   5.50009878  2.75004939  3.47663713
   5.50009878  5.50009878  0.00000000
   5.50009878  5.50009878  3.47663713
   1.37502469  1.37502469  1.73831857
   1.37502469  1.37502469  5.21495570
   1.37502469  4.12507408  1.73831857
   1.37502469  4.12507408  5.21495570
   1.37502469  6.87512347  1.73831857
   1.37502469  6.87512347  5.21495570
   4.12507408  1.37502469  1.73831857
   4.12507408  1.37502469  5.21495570
   4.12507408  4.12507408  1.73831857
   4.12507408  4.12507408  5.21495570
   4.12507408  6.87512347  1.73831857
   4.12507408  6.87512347  5.21495570
   6.87512347  1.37502469  1.73831857
   6.87512347  1.37502469  5.21495570
   6.87512347  4.12507408  1.73831857
   6.87512347  4.12507408  5.21495570
   6.87512347  6.87512347  1.73831857
   6.87512347  6.87512347  5.21495570
 


--------------------------------------------------------------------------------------------------------


 k-point  1 :   0.0000 0.0000 0.0000  plane waves:    8799
 k-point  2 :   0.2000 0.0000 0.0000  plane waves:    8753
 k-point  3 :   0.4000 0.0000 0.0000  plane waves:    8757
 k-point  4 :   0.0000 0.2000 0.0000  plane waves:    8753
 k-point  5 :   0.2000 0.2000 0.0000  plane waves:    8767
 k-point  6 :   0.4000 0.2000 0.0000  plane waves:    8761
 k-point  7 :  -0.4000 0.2000 0.0000  plane waves:    8761
 k-point  8 :  -0.2000 0.2000 0.0000  plane waves:    8767
 k-point  9 :   0.0000 0.4000 0.0000  plane waves:    8757
 k-point 10 :   0.2000 0.4000 0.0000  plane waves:    8761
 k-point 11 :   0.4000 0.4000 0.0000  plane waves:    8731
 k-point 12 :  -0.4000 0.4000 0.0000  plane waves:    8731
 k-point 13 :  -0.2000 0.4000 0.0000  plane waves:    8761
 k-point 14 :   0.0000 0.0000 0.1667  plane waves:    8763
 k-point 15 :   0.2000 0.0000 0.1667  plane waves:    8771
 k-point 16 :   0.4000 0.0000 0.1667  plane waves:    8747
 k-point 17 :   0.0000 0.2000 0.1667  plane waves:    8771
 k-point 18 :   0.2000 0.2000 0.1667  plane waves:    8764
 k-point 19 :   0.4000 0.2000 0.1667  plane waves:    8768
 k-point 20 :  -0.4000 0.2000 0.1667  plane waves:    8768
 k-point 21 :  -0.2000 0.2000 0.1667  plane waves:    8764
 k-point 22 :   0.0000 0.4000 0.1667  plane waves:    8747
 k-point 23 :   0.2000 0.4000 0.1667  plane waves:    8768
 k-point 24 :   0.4000 0.4000 0.1667  plane waves:    8740
 k-point 25 :  -0.4000 0.4000 0.1667  plane waves:    8740
 k-point 26 :  -0.2000 0.4000 0.1667  plane waves:    8768
 k-point 27 :   0.0000 0.0000 0.3333  plane waves:    8743
 k-point 28 :   0.2000 0.0000 0.3333  plane waves:    8736
 k-point 29 :   0.4000 0.0000 0.3333  plane waves:    8753
 k-point 30 :   0.0000 0.2000 0.3333  plane waves:    8736
 k-point 31 :   0.2000 0.2000 0.3333  plane waves:    8753
 k-point 32 :   0.4000 0.2000 0.3333  plane waves:    8743
 k-point 33 :  -0.4000 0.2000 0.3333  plane waves:    8743
 k-point 34 :  -0.2000 0.2000 0.3333  plane waves:    8753
 k-point 35 :   0.0000 0.4000 0.3333  plane waves:    8753
 k-point 36 :   0.2000 0.4000 0.3333  plane waves:    8743
 k-point 37 :   0.4000 0.4000 0.3333  plane waves:    8755
 k-point 38 :  -0.4000 0.4000 0.3333  plane waves:    8755
 k-point 39 :  -0.2000 0.4000 0.3333  plane waves:    8743
 k-point 40 :   0.0000 0.0000 0.5000  plane waves:    8742
 k-point 41 :   0.2000 0.0000 0.5000  plane waves:    8756
 k-point 42 :   0.4000 0.0000 0.5000  plane waves:    8744
 k-point 43 :   0.0000 0.2000 0.5000  plane waves:    8756
 k-point 44 :   0.2000 0.2000 0.5000  plane waves:    8762
 k-point 45 :   0.4000 0.2000 0.5000  plane waves:    8732
 k-point 46 :  -0.4000 0.2000 0.5000  plane waves:    8732
 k-point 47 :  -0.2000 0.2000 0.5000  plane waves:    8762
 k-point 48 :   0.0000 0.4000 0.5000  plane waves:    8744
 k-point 49 :   0.2000 0.4000 0.5000  plane waves:    8732
 k-point 50 :   0.4000 0.4000 0.5000  plane waves:    8736
 k-point 51 :  -0.4000 0.4000 0.5000  plane waves:    8736
 k-point 52 :  -0.2000 0.4000 0.5000  plane waves:    8732

 maximum and minimum number of plane-waves per node :      2210     2164

 maximum number of plane-waves:      8799
 maximum index in each direction: 
   IXMAX=   13   IYMAX=   13   IZMAX=   11
   IXMIN=  -13   IYMIN=  -13   IZMIN=  -11


 parallel 3D FFT for wavefunctions:
    minimum data exchange during FFTs selected (reduces bandwidth)
 parallel 3D FFT for charge:
    minimum data exchange during FFTs selected (reduces bandwidth)


 total amount of memory used by VASP MPI-rank0   728596. kBytes
=======================================================================

   base      :      30000. kBytes
   nonl-proj :      34307. kBytes
   fftplans  :      21726. kBytes
   grid      :      14732. kBytes
   one-center:        279. kBytes
   wavefun   :     627552. kBytes
 
     INWAV:  cpu time    0.0000: real time    0.0000
 Broyden mixing: mesh for mixing (old mesh)
   NGX = 27   NGY = 27   NGZ = 23
  (NGX  =108   NGY  =108   NGZ  = 96)
  gives a total of  16767 points

 initial charge density was supplied:
 charge density of overlapping atoms calculated
 number of electron     180.0000000 magnetization      -6.0000000
 keeping initial charge density in first step


--------------------------------------------------------------------------------------------------------


 Maximum index for augmentation-charges        11261 (set IRDMAX)


--------------------------------------------------------------------------------------------------------


 First call to EWALD:  gamma=   0.227
 Maximum number of real-space cells 3x 3x 3
 Maximum number of reciprocal cells 3x 3x 3

    FEWALD:  cpu time    0.0022: real time    0.0021


--------------------------------------- Iteration      1(   1)  ---------------------------------------


    POTLOK:  cpu time    0.2518: real time    0.2524
    SETDIJ:  cpu time    0.3180: real time    0.3185
    TRIAL :  cpu time   18.3488: real time   18.4550
    CORREC:  cpu time    0.0064: real time    0.0064
    --------------------------------------------
      LOOP:  cpu time   19.1347: real time   19.2507

 eigenvalue-minimisations  : 22464
 total energy-change (2. order) : 0.1360354E+04  (-0.5804700E+04)
 number of electron     180.0000000 magnetization      -6.0000000
 augmentation part      180.0000000 magnetization      -6.0000000

 Free energy of the ion-electron system (eV)
  ---------------------------------------------------
  alpha Z        PSCENC =       532.25742704
  Ewald energy   TEWEN  =     -8601.05107233
  -Hartree energ DENC   =     -1903.73857242
  -exchange      EXHF   =         0.00000000
  -V(xc)+E(xc)   XCENC  =      -664.60048634
  PAW double counting   =      8494.55058411    -7650.81563588
  entropy T*S    EENTRO =         0.00122042
  eigenvalues    EBANDS =      2688.63474206
  atomic energy  EATOM  =      8465.11600846
  ---------------------------------------------------
  free energy    TOTEN  =      1360.35421511 eV

  energy without entropy =     1360.35299470  energy(sigma->0) =     1360.35380831


--------------------------------------------------------------------------------------------------------




--------------------------------------- Iteration      1(   2)  ---------------------------------------


    TRIAL :  cpu time   17.9036: real time   18.0854
    CORREC:  cpu time    0.0079: real time    0.0088
    --------------------------------------------
      LOOP:  cpu time   17.9124: real time   18.0972

 eigenvalue-minimisations  : 22464
 total energy-change (2. order) :-0.1409183E+04  (-0.1383275E+04)
 number of electron     180.0000000 magnetization      -6.0000000
 augmentation part      180.0000000 magnetization      -6.0000000

 Free energy of the ion-electron system (eV)
  ---------------------------------------------------
  alpha Z        PSCENC =       532.25742704
  Ewald energy   TEWEN  =     -8601.05107233
  -Hartree energ DENC   =     -1903.73857242
  -exchange      EXHF   =         0.00000000
  -V(xc)+E(xc)   XCENC  =      -664.60048634
  PAW double counting   =      8494.55058411    -7650.81563588
  entropy T*S    EENTRO =         0.00066854
  eigenvalues    EBANDS =      1279.45191798
  atomic energy  EATOM  =      8465.11600846
  ---------------------------------------------------
  free energy    TOTEN  =       -48.82916084 eV

  energy without entropy =      -48.82982939  energy(sigma->0) =      -48.82938369


--------------------------------------------------------------------------------------------------------




--------------------------------------- Iteration      1(   3)  ---------------------------------------


    TRIAL :  cpu time   25.6892: real time   25.8691
    CORREC:  cpu time    0.0093: real time    0.0101
    --------------------------------------------
      LOOP:  cpu time   25.6993: real time   25.8826

 eigenvalue-minimisations  : 34456
 total energy-change (2. order) :-0.1855315E+03  (-0.1695713E+03)
 number of electron     180.0000000 magnetization      -6.0000000
 augmentation part      180.0000000 magnetization      -6.0000000

 Free energy of the ion-electron system (eV)
  ---------------------------------------------------
  alpha Z        PSCENC =       532.25742704
  Ewald energy   TEWEN  =     -8601.05107233
  -Hartree energ DENC   =     -1903.73857242
  -exchange      EXHF   =         0.00000000
  -V(xc)+E(xc)   XCENC  =      -664.60048634
  PAW double counting   =      8494.55058411    -7650.81563588
  entropy T*S    EENTRO =        -0.00184140
  eigenvalues    EBANDS =      1093.92292545
  atomic energy  EATOM  =      8465.11600846
  ---------------------------------------------------
  free energy    TOTEN  =      -234.36066332 eV

  energy without entropy =     -234.35882191  energy(sigma->0) =     -234.36004952


--------------------------------------------------------------------------------------------------------




--------------------------------------- Iteration      1(   4)  ---------------------------------------


    TRIAL :  cpu time   26.5361: real time   26.7647
    CORREC:  cpu time    0.0098: real time    0.0098
    --------------------------------------------
      LOOP:  cpu time   26.5469: real time   26.7779

 eigenvalue-minimisations  : 36776
 total energy-change (2. order) :-0.3060334E+02  (-0.2763547E+02)
 number of electron     180.0000000 magnetization      -6.0000000
 augmentation part      180.0000000 magnetization      -6.0000000

 Free energy of the ion-electron system (eV)
  ---------------------------------------------------
  alpha Z        PSCENC =       532.25742704
  Ewald energy   TEWEN  =     -8601.05107233
  -Hartree energ DENC   =     -1903.73857242
  -exchange      EXHF   =         0.00000000
  -V(xc)+E(xc)   XCENC  =      -664.60048634
  PAW double counting   =      8494.55058411    -7650.81563588
  entropy T*S    EENTRO =         0.01230814
  eigenvalues    EBANDS =      1063.30543694
  atomic energy  EATOM  =      8465.11600846
  ---------------------------------------------------
  free energy    TOTEN  =      -264.96400229 eV

  energy without entropy =     -264.97631043  energy(sigma->0) =     -264.96810500


--------------------------------------------------------------------------------------------------------




--------------------------------------- Iteration      1(   5)  ---------------------------------------


    TRIAL :  cpu time   27.8160: real time   28.0225
    CORREC:  cpu time    0.0096: real time    0.0104
    --------------------------------------------
      LOOP:  cpu time   27.8290: real time   28.0365

 eigenvalue-minimisations  : 38008
 total energy-change (2. order) :-0.3783132E+01  (-0.3580746E+01)
 number of electron     180.0000000 magnetization      -6.0000000
 augmentation part      180.0000000 magnetization      -6.0000000

 Free energy of the ion-electron system (eV)
  ---------------------------------------------------
  alpha Z        PSCENC =       532.25742704
  Ewald energy   TEWEN  =     -8601.05107233
  -Hartree energ DENC   =     -1903.73857242
  -exchange      EXHF   =         0.00000000
  -V(xc)+E(xc)   XCENC  =      -664.60048634
  PAW double counting   =      8494.55058411    -7650.81563588
  entropy T*S    EENTRO =         0.01194200
  eigenvalues    EBANDS =      1059.52267126
  atomic energy  EATOM  =      8465.11600846
  ---------------------------------------------------
  free energy    TOTEN  =      -268.74713410 eV

  energy without entropy =     -268.75907611  energy(sigma->0) =     -268.75111477


--------------------------------------------------------------------------------------------------------




--------------------------------------- Iteration      1(   6)  ---------------------------------------


    TRIAL :  cpu time   27.2261: real time   27.3191
    CORREC:  cpu time    0.0096: real time    0.0097
    --------------------------------------------
      LOOP:  cpu time   27.2366: real time   27.3323

 eigenvalue-minimisations  : 37784
 total energy-change (2. order) :-0.3777638E+00  (-0.3628622E+00)
 number of electron     180.0000000 magnetization      -6.0000000
 augmentation part      180.0000000 magnetization      -6.0000000

 Free energy of the ion-electron system (eV)
  ---------------------------------------------------
  alpha Z        PSCENC =       532.25742704
  Ewald energy   TEWEN  =     -8601.05107233
  -Hartree energ DENC   =     -1903.73857242
  -exchange      EXHF   =         0.00000000
  -V(xc)+E(xc)   XCENC  =      -664.60048634
  PAW double counting   =      8494.55058411    -7650.81563588
  entropy T*S    EENTRO =         0.01192392
  eigenvalues    EBANDS =      1059.14492556
  atomic energy  EATOM  =      8465.11600846
  ---------------------------------------------------
  free energy    TOTEN  =      -269.12489788 eV

  energy without entropy =     -269.13682180  energy(sigma->0) =     -269.12887252


--------------------------------------------------------------------------------------------------------




--------------------------------------- Iteration      1(   7)  ---------------------------------------


    TRIAL :  cpu time   27.9990: real time   28.2985
    CORREC:  cpu time    0.0093: real time    0.0100
    --------------------------------------------
      LOOP:  cpu time   28.0092: real time   28.3126

 eigenvalue-minimisations  : 38448
 total energy-change (2. order) :-0.5061342E-01  (-0.4912158E-01)
 number of electron     180.0000000 magnetization      -6.0000000
 augmentation part      180.0000000 magnetization      -6.0000000

 Free energy of the ion-electron system (eV)
  ---------------------------------------------------
  alpha Z        PSCENC =       532.25742704
  Ewald energy   TEWEN  =     -8601.05107233
  -Hartree energ DENC   =     -1903.73857242
  -exchange      EXHF   =         0.00000000
  -V(xc)+E(xc)   XCENC  =      -664.60048634
  PAW double counting   =      8494.55058411    -7650.81563588
  entropy T*S    EENTRO =         0.01227515
  eigenvalues    EBANDS =      1059.09396091
  atomic energy  EATOM  =      8465.11600846
  ---------------------------------------------------
  free energy    TOTEN  =      -269.17551131 eV

  energy without entropy =     -269.18778645  energy(sigma->0) =     -269.17960302


--------------------------------------------------------------------------------------------------------




--------------------------------------- Iteration      1(   8)  ---------------------------------------


    TRIAL :  cpu time   26.8002: real time   26.9509
    CORREC:  cpu time    0.0102: real time    0.0108
    CHARGE:  cpu time    1.0967: real time    1.1061
    --------------------------------------------
      LOOP:  cpu time   27.9081: real time   28.0717

 eigenvalue-minimisations  : 37128
 total energy-change (2. order) :-0.7650279E-02  (-0.7477771E-02)
 number of electron     179.9999997 magnetization      -3.9258101
 augmentation part       42.6651045 magnetization      -2.3203515

 Free energy of the ion-electron system (eV)
  ---------------------------------------------------
  alpha Z        PSCENC =       532.25742704
  Ewald energy   TEWEN  =     -8601.05107233
  -Hartree energ DENC   =     -1903.73857242
  -exchange      EXHF   =         0.00000000
  -V(xc)+E(xc)   XCENC  =      -664.60048634
  PAW double counting   =      8494.55058411    -7650.81563588
  entropy T*S    EENTRO =         0.01266081
  eigenvalues    EBANDS =      1059.08592497
  atomic energy  EATOM  =      8465.11600846
  ---------------------------------------------------
  free energy    TOTEN  =      -269.18316158 eV

  energy without entropy =     -269.19582239  energy(sigma->0) =     -269.18738185


--------------------------------------------------------------------------------------------------------




--------------------------------------- Iteration      1(   9)  ---------------------------------------


    POTLOK:  cpu time    0.2524: real time    0.2524
    SETDIJ:  cpu time    0.3233: real time    0.3233
    TRIAL :  cpu time    8.7853: real time    8.8950
    CORREC:  cpu time    3.2934: real time    3.3885
    CHARGE:  cpu time    1.0681: real time    1.0685
    --------------------------------------------
      LOOP:  cpu time   13.7247: real time   13.9329

 eigenvalue-minimisations  :     0
 total energy-change (2. order) : 0.2067949E+03  (-0.1419078E+03)
 number of electron     179.9999997 magnetization      -4.5445519
 augmentation part       53.8402069 magnetization      -2.9462551

 Free energy of the ion-electron system (eV)
  ---------------------------------------------------
  alpha Z        PSCENC =       532.25742704
  Ewald energy   TEWEN  =     -8601.05107233
  -Hartree energ DENC   =      -847.79567769
  -exchange      EXHF   =         0.00000000
  -V(xc)+E(xc)   XCENC  =      -694.99151369
  PAW double counting   =     12760.02595931   -11813.43527716
  entropy T*S    EENTRO =        -0.00235192
  eigenvalues    EBANDS =       137.47319410
  atomic energy  EATOM  =      8465.11600846
  ---------------------------------------------------
  free energy    TOTEN  =       -62.38829117 eV

  energy without entropy =      -62.38593925  energy(sigma->0) =      -62.38750720


--------------------------------------------------------------------------------------------------------




--------------------------------------- Iteration      1(  10)  ---------------------------------------


    POTLOK:  cpu time    0.2486: real time    0.2486
    SETDIJ:  cpu time    0.3309: real time    0.3310
    TRIAL :  cpu time    8.7778: real time    8.8254
    CORREC:  cpu time    3.3408: real time    3.3936
    CHARGE:  cpu time    1.7046: real time    1.7164
    --------------------------------------------
      LOOP:  cpu time   14.4045: real time   14.5174

 eigenvalue-minimisations  :     0
 total energy-change (2. order) :-0.1432578E+03  (-0.1178117E+02)
 number of electron     179.9999996 magnetization      -4.7276195
 augmentation part       57.4990704 magnetization      -3.1748206

 Free energy of the ion-electron system (eV)
  ---------------------------------------------------
  alpha Z        PSCENC =       532.25742704
  Ewald energy   TEWEN  =     -8601.05107233
  -Hartree energ DENC   =     -1346.43916497
  -exchange      EXHF   =         0.00000000
  -V(xc)+E(xc)   XCENC  =      -678.04226869
  PAW double counting   =     13486.05698623   -12648.21533696
  entropy T*S    EENTRO =        -0.00349194
  eigenvalues    EBANDS =       584.67369164
  atomic energy  EATOM  =      8465.11600846
  ---------------------------------------------------
  free energy    TOTEN  =      -205.64608150 eV

  energy without entropy =     -205.64258956  energy(sigma->0) =     -205.64491752


--------------------------------------------------------------------------------------------------------




--------------------------------------- Iteration      1(  11)  ---------------------------------------


    POTLOK:  cpu time    0.2488: real time    0.2487
    SETDIJ:  cpu time    0.3231: real time    0.3231
    TRIAL :  cpu time    8.7866: real time    8.8252
    CORREC:  cpu time    3.3274: real time    3.3443
    CHARGE:  cpu time    1.0450: real time    1.0456
    --------------------------------------------
      LOOP:  cpu time   13.7328: real time   13.7915

 eigenvalue-minimisations  :     0
 total energy-change (2. order) :-0.1174563E+02  (-0.7983260E+01)
 number of electron     179.9999996 magnetization      -5.2854191
 augmentation part       59.0435305 magnetization      -3.5526278

 Free energy of the ion-electron system (eV)
  ---------------------------------------------------
  alpha Z        PSCENC =       532.25742704
  Ewald energy   TEWEN  =     -8601.05107233
  -Hartree energ DENC   =     -1549.35867978
  -exchange      EXHF   =         0.00000000
  -V(xc)+E(xc)   XCENC  =      -670.70071916
  PAW double counting   =     14342.51736405   -13543.10075601
  entropy T*S    EENTRO =         0.00543909
  eigenvalues    EBANDS =       806.93220604
  atomic energy  EATOM  =      8465.11600846
  ---------------------------------------------------
  free energy    TOTEN  =      -217.39171364 eV

  energy without entropy =     -217.39715273  energy(sigma->0) =     -217.39352667


--------------------------------------------------------------------------------------------------------




--------------------------------------- Iteration      1(  12)  ---------------------------------------


    POTLOK:  cpu time    0.2488: real time    0.2489
    SETDIJ:  cpu time    0.3233: real time    0.3233
    TRIAL :  cpu time    9.4447: real time    9.4658
    CORREC:  cpu time    3.3175: real time    3.3285
    CHARGE:  cpu time    1.0649: real time    1.0652
    --------------------------------------------
      LOOP:  cpu time   14.4300: real time   14.4637

 eigenvalue-minimisations  :     0
 total energy-change (2. order) :-0.7976358E+01  (-0.7592406E+01)
 number of electron     179.9999996 magnetization      -5.5460934
 augmentation part       58.4006783 magnetization      -3.7576598

 Free energy of the ion-electron system (eV)
  ---------------------------------------------------
  alpha Z        PSCENC =       532.25742704
  Ewald energy   TEWEN  =     -8601.05107233
  -Hartree energ DENC   =     -1684.11843893
  -exchange      EXHF   =         0.00000000
  -V(xc)+E(xc)   XCENC  =      -666.16795967
  PAW double counting   =     14448.81046176   -13654.44501572
  entropy T*S    EENTRO =         0.02096739
  eigenvalues    EBANDS =       934.22507900
  atomic energy  EATOM  =      8465.11600846
  ---------------------------------------------------
  free energy    TOTEN  =      -225.36807130 eV

  energy without entropy =     -225.38903869  energy(sigma->0) =     -225.37506043


--------------------------------------------------------------------------------------------------------




--------------------------------------- Iteration      1(  13)  ---------------------------------------


    POTLOK:  cpu time    0.2449: real time    0.3215
    SETDIJ:  cpu time    0.3161: real time    0.3161
    TRIAL :  cpu time    8.7565: real time    8.8303
    CORREC:  cpu time    3.3000: real time    3.3539
    CHARGE:  cpu time    1.1101: real time    1.1104
    --------------------------------------------
      LOOP:  cpu time   13.7290: real time   13.9345

 eigenvalue-minimisations  :     0
 total energy-change (2. order) :-0.7399098E+01  (-0.1139113E+01)
 number of electron     179.9999997 magnetization      -5.5630189
 augmentation part       57.4388203 magnetization      -3.7488472

 Free energy of the ion-electron system (eV)
  ---------------------------------------------------
  alpha Z        PSCENC =       532.25742704
  Ewald energy   TEWEN  =     -8601.05107233
  -Hartree energ DENC   =     -1707.96734443
  -exchange      EXHF   =         0.00000000
  -V(xc)+E(xc)   XCENC  =      -665.70112444
  PAW double counting   =     14227.20773119   -13409.08222567
  entropy T*S    EENTRO =         0.02549603
  eigenvalues    EBANDS =       926.43246350
  atomic energy  EATOM  =      8465.11600846
  ---------------------------------------------------
  free energy    TOTEN  =      -232.76716929 eV

  energy without entropy =     -232.79266532  energy(sigma->0) =     -232.77566797


--------------------------------------------------------------------------------------------------------




--------------------------------------- Iteration      1(  14)  ---------------------------------------


    POTLOK:  cpu time    0.2788: real time    0.3427
    SETDIJ:  cpu time    0.3200: real time    0.3199
    TRIAL :  cpu time    8.7999: real time    8.8625
    CORREC:  cpu time    3.2886: real time    3.2894
    CHARGE:  cpu time    1.0938: real time    1.1094
    --------------------------------------------
      LOOP:  cpu time   13.7957: real time   13.9394

 eigenvalue-minimisations  :     0
 total energy-change (2. order) :-0.1125837E+01  (-0.7779742E+00)
 number of electron     179.9999997 magnetization      -5.6642423
 augmentation part       57.2319852 magnetization      -3.7715302

 Free energy of the ion-electron system (eV)
  ---------------------------------------------------
  alpha Z        PSCENC =       532.25742704
  Ewald energy   TEWEN  =     -8601.05107233
  -Hartree energ DENC   =     -1660.62862577
  -exchange      EXHF   =         0.00000000
  -V(xc)+E(xc)   XCENC  =      -667.47670281
  PAW double counting   =     13921.53489877   -13088.94956016
  entropy T*S    EENTRO =         0.02649079
  eigenvalues    EBANDS =       865.27912399
  atomic energy  EATOM  =      8465.11600846
  ---------------------------------------------------
  free energy    TOTEN  =      -233.89300678 eV

  energy without entropy =     -233.91949758  energy(sigma->0) =     -233.90183705


--------------------------------------------------------------------------------------------------------




--------------------------------------- Iteration      1(  15)  ---------------------------------------


    POTLOK:  cpu time    0.3335: real time    0.3444
    SETDIJ:  cpu time    0.3223: real time    0.3223
    TRIAL :  cpu time    9.4597: real time    9.4945
    CORREC:  cpu time    3.3196: real time    3.3522
    CHARGE:  cpu time    1.0775: real time    1.0777
    --------------------------------------------
      LOOP:  cpu time   14.5177: real time   17.0678

 eigenvalue-minimisations  :     0
 total energy-change (2. order) :-0.7766008E+00  (-0.6016888E+00)
 number of electron     179.9999996 magnetization      -5.6910423
 augmentation part       57.7314015 magnetization      -3.8027954

 Free energy of the ion-electron system (eV)
  ---------------------------------------------------
  alpha Z        PSCENC =       532.25742704
  Ewald energy   TEWEN  =     -8601.05107233
  -Hartree energ DENC   =     -1641.63048330
  -exchange      EXHF   =         0.00000000
  -V(xc)+E(xc)   XCENC  =      -668.14349742
  PAW double counting   =     13430.39054824   -12592.31299563
  entropy T*S    EENTRO =         0.03204291
  eigenvalues    EBANDS =       840.67796661
  atomic energy  EATOM  =      8465.11600846
  ---------------------------------------------------
  free energy    TOTEN  =      -234.66960754 eV

  energy without entropy =     -234.70165044  energy(sigma->0) =     -234.68028851


--------------------------------------------------------------------------------------------------------




--------------------------------------- Iteration      1(  16)  ---------------------------------------


    POTLOK:  cpu time    0.2500: real time    0.2504
    SETDIJ:  cpu time    0.3230: real time    0.3231
    TRIAL :  cpu time    8.6202: real time    8.7738
    CORREC:  cpu time    3.8920: real time    3.9416
    CHARGE:  cpu time    1.0484: real time    1.0851
    --------------------------------------------
      LOOP:  cpu time   14.1349: real time   14.3765

 eigenvalue-minimisations  :     0
 total energy-change (2. order) :-0.5970850E+00  (-0.1801891E+00)
 number of electron     179.9999996 magnetization      -5.7485734
 augmentation part       58.1071484 magnetization      -3.8640991

 Free energy of the ion-electron system (eV)
  ---------------------------------------------------
  alpha Z        PSCENC =       532.25742704
  Ewald energy   TEWEN  =     -8601.05107233
  -Hartree energ DENC   =     -1658.26076742
  -exchange      EXHF   =         0.00000000
  -V(xc)+E(xc)   XCENC  =      -667.45498443
  PAW double counting   =     13087.38288034   -12252.53520068
  entropy T*S    EENTRO =         0.03381055
  eigenvalues    EBANDS =       859.24697353
  atomic energy  EATOM  =      8465.11600846
  ---------------------------------------------------
  free energy    TOTEN  =      -235.26669259 eV

  energy without entropy =     -235.30050314  energy(sigma->0) =     -235.27796277


--------------------------------------------------------------------------------------------------------




--------------------------------------- Iteration      1(  17)  ---------------------------------------


    POTLOK:  cpu time    0.2487: real time    0.2487
    SETDIJ:  cpu time    0.3217: real time    0.3219
    TRIAL :  cpu time    8.6121: real time    8.9416
    CORREC:  cpu time    3.2406: real time    3.3293
    CHARGE:  cpu time    1.0537: real time    1.0825
    --------------------------------------------
      LOOP:  cpu time   13.4789: real time   13.9285

 eigenvalue-minimisations  :     0
 total energy-change (2. order) :-0.1801803E+00  (-0.1914289E+00)
 number of electron     179.9999996 magnetization      -5.8002678
 augmentation part       58.2769559 magnetization      -3.9375413

 Free energy of the ion-electron system (eV)
  ---------------------------------------------------
  alpha Z        PSCENC =       532.25742704
  Ewald energy   TEWEN  =     -8601.05107233
  -Hartree energ DENC   =     -1674.54626624
  -exchange      EXHF   =         0.00000000
  -V(xc)+E(xc)   XCENC  =      -666.77106437
  PAW double counting   =     13020.16341044   -12189.15883701
  entropy T*S    EENTRO =         0.03497892
  eigenvalues    EBANDS =       878.50971061
  atomic energy  EATOM  =      8465.11600846
  ---------------------------------------------------
  free energy    TOTEN  =      -235.44687285 eV

  energy without entropy =     -235.48185177  energy(sigma->0) =     -235.45853249


--------------------------------------------------------------------------------------------------------




--------------------------------------- Iteration      1(  18)  ---------------------------------------


    POTLOK:  cpu time    0.2483: real time    0.2483
    SETDIJ:  cpu time    0.3828: real time    0.3829
    TRIAL :  cpu time    8.6479: real time    8.9320
    CORREC:  cpu time    3.2160: real time    3.2677
    CHARGE:  cpu time    1.0432: real time    1.0835
    --------------------------------------------
      LOOP:  cpu time   13.5405: real time   13.9179

 eigenvalue-minimisations  :     0
 total energy-change (2. order) :-0.1912170E+00  (-0.1370207E+00)
 number of electron     179.9999996 magnetization      -5.8921228
 augmentation part       58.1003129 magnetization      -4.0123346

 Free energy of the ion-electron system (eV)
  ---------------------------------------------------
  alpha Z        PSCENC =       532.25742704
  Ewald energy   TEWEN  =     -8601.05107233
  -Hartree energ DENC   =     -1679.99558261
  -exchange      EXHF   =         0.00000000
  -V(xc)+E(xc)   XCENC  =      -666.37596264
  PAW double counting   =     12970.44101596   -12141.42368392
  entropy T*S    EENTRO =         0.03697476
  eigenvalues    EBANDS =       885.35878132
  atomic energy  EATOM  =      8465.11600846
  ---------------------------------------------------
  free energy    TOTEN  =      -235.63808981 eV

  energy without entropy =     -235.67506457  energy(sigma->0) =     -235.65041473


--------------------------------------------------------------------------------------------------------




--------------------------------------- Iteration      1(  19)  ---------------------------------------


    POTLOK:  cpu time    0.2442: real time    0.2617
    SETDIJ:  cpu time    0.3625: real time    0.3726
    TRIAL :  cpu time    9.2845: real time    9.5509
    CORREC:  cpu time    3.2267: real time    3.2753
    CHARGE:  cpu time    1.0519: real time    1.0955
    --------------------------------------------
      LOOP:  cpu time   14.1751: real time   14.5622

 eigenvalue-minimisations  :     0
 total energy-change (2. order) :-0.1362236E+00  (-0.5585756E-01)
 number of electron     179.9999996 magnetization      -5.9183454
 augmentation part       57.9004314 magnetization      -4.0455320

 Free energy of the ion-electron system (eV)
  ---------------------------------------------------
  alpha Z        PSCENC =       532.25742704
  Ewald energy   TEWEN  =     -8601.05107233
  -Hartree energ DENC   =     -1669.02609512
  -exchange      EXHF   =         0.00000000
  -V(xc)+E(xc)   XCENC  =      -666.61082820
  PAW double counting   =     12937.45718514   -12106.69822461
  entropy T*S    EENTRO =         0.03651003
  eigenvalues    EBANDS =       872.74431145
  atomic energy  EATOM  =      8465.11600846
  ---------------------------------------------------
  free energy    TOTEN  =      -235.77431342 eV

  energy without entropy =     -235.81082345  energy(sigma->0) =     -235.78648343


--------------------------------------------------------------------------------------------------------




--------------------------------------- Iteration      1(  20)  ---------------------------------------


    POTLOK:  cpu time    0.2483: real time    0.2482
    SETDIJ:  cpu time    0.3203: real time    0.3204
    TRIAL :  cpu time    8.6562: real time    8.8371
    CORREC:  cpu time    4.2166: real time    4.2629
    CHARGE:  cpu time    1.0591: real time    1.0818
    --------------------------------------------
      LOOP:  cpu time   14.5021: real time   14.7542

 eigenvalue-minimisations  :     0
 total energy-change (2. order) :-0.5573395E-01  (-0.8156616E-01)
 number of electron     179.9999996 magnetization      -6.0191497
 augmentation part       57.7892159 magnetization      -4.1296040

 Free energy of the ion-electron system (eV)
  ---------------------------------------------------
  alpha Z        PSCENC =       532.25742704
  Ewald energy   TEWEN  =     -8601.05107233
  -Hartree energ DENC   =     -1659.13303510
  -exchange      EXHF   =         0.00000000
  -V(xc)+E(xc)   XCENC  =      -666.90060768
  PAW double counting   =     12924.77403006   -12092.00860638
  entropy T*S    EENTRO =         0.03781065
  eigenvalues    EBANDS =       861.07929854
  atomic energy  EATOM  =      8465.11600846
  ---------------------------------------------------
  free energy    TOTEN  =      -235.83004736 eV

  energy without entropy =     -235.86785802  energy(sigma->0) =     -235.84265091


--------------------------------------------------------------------------------------------------------




--------------------------------------- Iteration      1(  21)  ---------------------------------------


    POTLOK:  cpu time    0.2478: real time    0.2478
    SETDIJ:  cpu time    0.3193: real time    0.3193
    TRIAL :  cpu time    8.6811: real time    8.9321
    CORREC:  cpu time    3.2486: real time    3.3268
    CHARGE:  cpu time    1.0207: real time    1.0800
    --------------------------------------------
      LOOP:  cpu time   13.5243: real time   13.9156

 eigenvalue-minimisations  :     0
 total energy-change (2. order) :-0.8162635E-01  (-0.4881326E-01)
 number of electron     179.9999996 magnetization      -6.0766657
 augmentation part       57.8814705 magnetization      -4.1863615

 Free energy of the ion-electron system (eV)
  ---------------------------------------------------
  alpha Z        PSCENC =       532.25742704
  Ewald energy   TEWEN  =     -8601.05107233
  -Hartree energ DENC   =     -1656.56462827
  -exchange      EXHF   =         0.00000000
  -V(xc)+E(xc)   XCENC  =      -666.90339522
  PAW double counting   =     12936.30428591   -12102.78875849
  entropy T*S    EENTRO =         0.03746728
  eigenvalues    EBANDS =       857.68064853
  atomic energy  EATOM  =      8465.11600846
  ---------------------------------------------------
  free energy    TOTEN  =      -235.91167371 eV

  energy without entropy =     -235.94914099  energy(sigma->0) =     -235.92416281


--------------------------------------------------------------------------------------------------------




--------------------------------------- Iteration      1(  22)  ---------------------------------------


    POTLOK:  cpu time    0.2477: real time    0.2477
    SETDIJ:  cpu time    0.3234: real time    0.3234
    TRIAL :  cpu time    8.6378: real time    8.9031
    CORREC:  cpu time    3.2465: real time    3.3193
    CHARGE:  cpu time    1.0640: real time    1.0884
    --------------------------------------------
      LOOP:  cpu time   13.5349: real time   13.8993

 eigenvalue-minimisations  :     0
 total energy-change (2. order) :-0.4872729E-01  (-0.2280633E-01)
 number of electron     179.9999996 magnetization      -6.1298974
 augmentation part       57.9916443 magnetization      -4.2290040

 Free energy of the ion-electron system (eV)
  ---------------------------------------------------
  alpha Z        PSCENC =       532.25742704
  Ewald energy   TEWEN  =     -8601.05107233
  -Hartree energ DENC   =     -1663.67227904
  -exchange      EXHF   =         0.00000000
  -V(xc)+E(xc)   XCENC  =      -666.59217189
  PAW double counting   =     12961.20481297   -12129.01725075
  entropy T*S    EENTRO =         0.03821223
  eigenvalues    EBANDS =       865.75665725
  atomic energy  EATOM  =      8465.11600846
  ---------------------------------------------------
  free energy    TOTEN  =      -235.96040101 eV

  energy without entropy =     -235.99861323  energy(sigma->0) =     -235.97313842


--------------------------------------------------------------------------------------------------------




--------------------------------------- Iteration      1(  23)  ---------------------------------------


    POTLOK:  cpu time    0.2476: real time    0.2476
    SETDIJ:  cpu time    0.3259: real time    0.3259
    TRIAL :  cpu time    9.4510: real time    9.6721
    CORREC:  cpu time    3.2387: real time    3.2770
    CHARGE:  cpu time    1.0603: real time    1.1034
    --------------------------------------------
[...]
  8.435  14.374   0.000   0.000  -0.000   0.000   0.001  -0.000
 14.374  24.496   0.000   0.001  -0.000   0.000   0.002  -0.000
  0.000   0.000   1.995   0.000   0.000   5.746   0.000   0.000
  0.000   0.001   0.000   1.994   0.000   0.000   5.744   0.000
 -0.000  -0.000   0.000   0.000   1.995   0.000   0.000   5.746
  0.000   0.000   5.746   0.000   0.000  16.465   0.000   0.000
  0.001   0.002   0.000   5.744   0.000   0.000  16.460   0.000
 -0.000  -0.000   0.000   0.000   5.746   0.000   0.000  16.465
 total augmentation occupancy for first ion, spin component:           1
  4.364  -1.245   0.001   0.001   0.003   0.000   0.000  -0.001
 -1.245   0.374   0.000   0.001   0.001  -0.000  -0.000   0.000
  0.001   0.000   1.390  -0.001  -0.003  -0.100  -0.000   0.000
  0.001   0.001  -0.001   1.515   0.001  -0.000  -0.102   0.000
  0.003   0.001  -0.003   0.001   1.402   0.000   0.000  -0.100
  0.000  -0.000  -0.100  -0.000   0.000   0.007   0.000  -0.000
  0.000  -0.000  -0.000  -0.102   0.000   0.000   0.007  -0.000
 -0.001   0.000   0.000   0.000  -0.100  -0.000  -0.000   0.007
 total augmentation occupancy for first ion, spin component:           2
  0.111  -0.034  -0.000  -0.047  -0.035   0.000   0.002   0.001
 -0.034   0.010   0.001  -0.007  -0.004  -0.000   0.001   0.000
 -0.000   0.001   0.026   0.002  -0.000  -0.002  -0.000   0.000
 -0.047  -0.007   0.002   0.077  -0.049  -0.000  -0.004   0.001
 -0.035  -0.004  -0.000  -0.049   0.048   0.000   0.001  -0.003
  0.000  -0.000  -0.002  -0.000   0.000   0.000   0.000  -0.000
  0.002   0.001  -0.000  -0.004   0.001   0.000   0.000   0.000
  0.001   0.000   0.000   0.001  -0.003  -0.000   0.000   0.000


------------------------ aborting loop because EDIFF is reached ----------------------------------------


 


 total charge     
 
# of ion       s       p       d       tot
------------------------------------------
    1        0.405   0.425   0.000   0.830
    2        0.405   0.425   0.000   0.830
    3        0.405   0.427   0.000   0.832
    4        0.405   0.427   0.000   0.832
    5        0.405   0.426   0.000   0.831
    6        0.405   0.427   0.000   0.832
    7        0.404   0.429   0.000   0.833
    8        0.404   0.429   0.000   0.834
    9        0.405   0.426   0.000   0.832
   10        0.405   0.426   0.000   0.831
   11        0.407   0.428   0.000   0.835
   12        0.406   0.427   0.000   0.834
   13        0.405   0.422   0.000   0.827
   14        0.405   0.422   0.000   0.828
   15        0.405   0.427   0.000   0.832
   16        0.405   0.427   0.000   0.832
   17        0.405   0.429   0.000   0.834
   18        0.405   0.430   0.000   0.835
   19        0.331   0.352   5.143   5.827
   20        0.334   0.355   5.127   5.815
   21        0.329   0.348   5.155   5.833
   22        0.334   0.354   5.140   5.828
   23        0.330   0.355   5.142   5.827
   24        0.335   0.357   5.116   5.809
   25        0.338   0.350   5.127   5.815
   26        0.333   0.354   5.137   5.824
   27        0.329   0.355   5.145   5.829
   28        0.330   0.357   5.135   5.822
   29        0.335   0.355   5.117   5.808
   30        0.330   0.353   5.153   5.835
   31        0.336   0.351   5.133   5.820
   32        0.333   0.351   5.144   5.828
   33        0.334   0.353   5.137   5.823
   34        0.338   0.355   5.118   5.812
   35        0.336   0.349   5.135   5.820
   36        0.335   0.356   5.124   5.816
--------------------------------------------------
tot         13.293  14.042  92.429 119.763
 


 magnetization (x)
 
# of ion       s       p       d       tot
------------------------------------------
    1        0.009   0.016   0.000   0.025
    2        0.009   0.016   0.000   0.025
    3       -0.003  -0.010   0.000  -0.013
    4       -0.003  -0.010   0.000  -0.013
    5       -0.004  -0.011   0.000  -0.015
    6       -0.004  -0.011   0.000  -0.016
    7        0.007   0.010   0.000   0.016
    8        0.006   0.010   0.000   0.017
    9       -0.000  -0.000   0.000  -0.001
   10       -0.000  -0.001   0.000  -0.001
   11       -0.003  -0.010   0.000  -0.013
   12       -0.003  -0.009   0.000  -0.013
   13        0.014   0.026   0.000   0.040
   14        0.014   0.026   0.000   0.041
   15        0.005   0.010   0.000   0.015
   16        0.005   0.010   0.000   0.015
   17        0.001   0.001   0.000   0.003
   18        0.001   0.001   0.000   0.002
   19        0.021   0.020   2.183   2.224
   20       -0.014  -0.021  -2.367  -2.401
   21        0.006  -0.010   2.197   2.194
   22        0.022   0.034   2.027   2.083
   23        0.017   0.027   2.080   2.124
   24       -0.024  -0.030  -2.485  -2.539
   25       -0.023  -0.018  -2.481  -2.521
   26       -0.018  -0.014  -2.306  -2.339
   27        0.015   0.036   1.960   2.010
   28       -0.031  -0.042  -2.180  -2.253
   29       -0.013  -0.029  -2.436  -2.478
   30        0.031   0.033   1.969   2.033
   31       -0.021  -0.016  -2.373  -2.410
   32       -0.017  -0.015  -2.244  -2.276
   33        0.027   0.015   2.321   2.363
   34        0.032   0.020   2.551   2.603
   35       -0.025  -0.010  -2.452  -2.487
   36       -0.029  -0.024  -2.425  -2.478
--------------------------------------------------
tot          0.007   0.019  -6.460  -6.435
 
    FORLOC:  cpu time    0.0290: real time    0.0290
    FORNL :  cpu time   13.0894: real time   13.4084
    STRESS:  cpu time   17.5069: real time   17.9707
    FORCOR:  cpu time    0.2705: real time    0.2705
    OFIELD:  cpu time    0.0013: real time    0.0013

  FORCE on cell =-STRESS in cart. coord.  units (eV):
  Direction    XX          YY          ZZ          XY          YZ          ZX
  --------------------------------------------------------------------------------------
  Alpha Z   532.25743   532.25743   532.25743
  Ewald   -2702.40749 -2702.40749 -3196.26924    -0.00000    -0.00000    -0.00000
  Hartree   721.33608   720.53399   225.87525     0.16871    -0.00000    -0.00000
  E(xc)    -760.10299  -759.79592  -760.15059    -0.07198    -0.00000    -0.00000
  Local     248.18411   251.74063  1261.55883    -0.63949     0.00000     0.00000
  n-local  -112.24074  -110.87655  -122.70875    -0.22427     0.04842    -0.06562
  augment   521.24044   519.80025   515.09414     0.24782     0.00001     0.00001
  Kinetic  1556.83051  1554.38463  1544.45863     0.50994     0.39837    -0.08412
  Fock        0.00000     0.00000     0.00000     0.00000     0.00000     0.00000
  -------------------------------------------------------------------------------------
  Total       5.09735     5.63696     0.11570    -0.00927     0.00000     0.00000
  in kB      17.25607    19.08281     0.39168    -0.03138     0.00000     0.00000
  external pressure =       12.24 kB  Pullay stress =        0.00 kB


 VOLUME and BASIS-vectors are now :
 -----------------------------------------------------------------------------
  energy-cutoff  :      404.80
  volume of cell :      473.27
      direct lattice vectors                 reciprocal lattice vectors
     8.250148166  0.000000000  0.000000000     0.121209944  0.000000000  0.000000000
     0.000000000  8.250148166  0.000000000     0.000000000  0.121209944  0.000000000
     0.000000000  0.000000000  6.953274261     0.000000000  0.000000000  0.143817137

  length of vectors
     8.250148166  8.250148166  6.953274261     0.121209944  0.121209944  0.143817137


 FORCES acting on ions:
    Electron-Ion                     Ewald-Force                    Non-Local-Force
 -----------------------------------------------------------------------------------------------
   0.147E+00 -.167E-02 -.476E-03   -.239E-08 -.239E-08 0.411E-08   -.122E+00 -.135E-01 -.570E-01
   0.147E+00 -.167E-02 0.476E-03   -.239E-08 -.239E-08 0.411E-08   -.122E+00 -.135E-01 0.570E-01
   0.276E-01 0.472E-01 -.689E-01   -.239E-08 -.802E-09 0.411E-08   0.260E-01 0.964E-01 0.729E-01
   0.276E-01 0.472E-01 0.689E-01   -.239E-08 -.802E-09 0.411E-08   0.260E-01 0.964E-01 -.729E-01
   0.680E-01 -.268E-01 -.657E-01   -.239E-08 0.631E-08 0.411E-08   0.885E-02 -.117E+00 0.917E-01
   0.680E-01 -.268E-01 0.657E-01   -.239E-08 0.631E-08 0.411E-08   0.885E-02 -.117E+00 -.917E-01
   -.126E+00 0.113E+00 -.543E-02   -.802E-09 -.239E-08 0.411E-08   0.881E-01 -.195E-01 -.512E-01
   -.126E+00 0.113E+00 0.543E-02   -.802E-09 -.239E-08 0.411E-08   0.881E-01 -.195E-01 0.512E-01
   -.210E-01 0.113E+00 -.799E-01   -.802E-09 -.802E-09 0.411E-08   -.494E-02 -.713E-02 0.466E-01
   -.210E-01 0.113E+00 0.799E-01   -.802E-09 -.802E-09 0.411E-08   -.494E-02 -.713E-02 -.466E-01
   -.194E+00 -.227E+00 0.758E-01   -.802E-09 0.631E-08 0.411E-08   0.455E-01 0.282E-01 0.369E-02
   -.194E+00 -.227E+00 -.758E-01   -.802E-09 0.631E-08 0.411E-08   0.455E-01 0.282E-01 -.369E-02
   -.532E-01 -.727E-02 -.362E-01   0.631E-08 -.239E-08 0.411E-08   0.752E-01 0.318E-01 0.520E-01
   -.532E-01 -.727E-02 0.362E-01   0.631E-08 -.239E-08 0.411E-08   0.752E-01 0.318E-01 -.520E-01
   0.955E-03 -.208E-01 -.449E-01   0.631E-08 -.802E-09 0.411E-08   -.475E-01 -.312E-01 -.106E-02
   0.955E-03 -.208E-01 0.449E-01   0.631E-08 -.802E-09 0.411E-08   -.475E-01 -.312E-01 0.106E-02
   0.112E+00 0.280E-01 0.737E-01   0.631E-08 0.631E-08 0.411E-08   -.513E-01 -.139E-01 -.244E-01
   0.112E+00 0.280E-01 -.737E-01   0.631E-08 0.631E-08 0.411E-08   -.513E-01 -.139E-01 0.244E-01
   -.154E-02 0.111E+00 -.311E-08   -.169E-07 -.169E-07 -.411E-08   0.314E-02 -.940E-01 0.000E+00
   0.139E+00 -.415E+00 -.325E-08   -.169E-07 -.169E-07 -.411E-08   -.145E+00 0.287E+00 0.000E+00
   -.117E+00 0.831E-02 -.191E-08   -.169E-07 0.802E-09 -.411E-08   0.169E+00 0.137E-01 0.000E+00
   -.565E+00 0.415E-01 -.425E-08   -.169E-07 0.802E-09 -.411E-08   0.232E+00 0.245E-01 0.000E+00
   -.354E+00 -.120E+00 -.999E-09   -.169E-07 0.130E-07 -.411E-08   0.294E+00 0.121E+00 0.000E+00
   -.495E+00 0.476E+00 -.473E-08   -.169E-07 0.130E-07 -.411E-08   0.303E+00 -.280E+00 0.000E+00
   0.524E+00 -.546E+00 -.146E-08   0.802E-09 -.169E-07 -.411E-08   -.213E+00 0.234E+00 0.000E+00
   0.381E-01 0.572E+00 -.336E-08   0.802E-09 -.169E-07 -.411E-08   -.721E-01 -.454E+00 0.000E+00
   -.158E+00 -.224E+00 -.400E-09   0.802E-09 0.802E-09 -.411E-08   0.152E+00 0.178E+00 0.000E+00
   0.237E+00 -.606E+00 -.466E-08   0.802E-09 0.802E-09 -.411E-08   -.232E+00 0.288E+00 0.000E+00
   0.611E+00 0.630E+00 0.468E-09   0.802E-09 0.130E-07 -.411E-08   -.350E+00 -.361E+00 0.000E+00
   0.172E+00 0.131E-01 -.481E-08   0.802E-09 0.130E-07 -.411E-08   -.112E+00 -.717E-01 0.000E+00
   -.493E+00 -.426E+00 -.342E-08   0.130E-07 -.169E-07 -.411E-08   0.194E+00 0.242E+00 0.000E+00
   -.164E+00 -.453E+00 -.268E-08   0.130E-07 -.169E-07 -.411E-08   0.188E+00 0.310E+00 0.000E+00
   0.291E+00 0.980E-01 -.220E-08   0.130E-07 0.802E-09 -.411E-08   -.252E+00 -.883E-01 0.000E+00
   0.526E+00 0.712E-01 -.381E-08   0.130E-07 0.802E-09 -.411E-08   -.225E+00 -.354E-01 0.000E+00
   -.466E+00 0.391E+00 -.132E-08   0.130E-07 0.130E-07 -.411E-08   0.138E+00 -.140E+00 0.000E+00
   0.401E+00 0.482E+00 -.414E-08   0.130E-07 0.130E-07 -.411E-08   -.157E+00 -.237E+00 0.000E+00
 -----------------------------------------------------------------------------------------------
   0.511E-01 0.154E+00 -.872E-07   -.197E-14 0.275E-13 0.265E-14   -.511E-01 -.154E+00 0.000E+00
 
 
 POSITION                                       TOTAL-FORCE (eV/Angst)
 -----------------------------------------------------------------------------------
      0.00000      0.00000      0.00000         0.036318     -0.014325     -0.051937
      0.00000      0.00000      3.47664         0.036318     -0.014325      0.051937
      0.00000      2.75005      0.00000         0.051842      0.135724     -0.003223
      0.00000      2.75005      3.47664         0.051842      0.135724      0.003223
      0.00000      5.50010      0.00000         0.076946     -0.133577      0.017233
      0.00000      5.50010      3.47664         0.076946     -0.133577     -0.017233
      2.75005      0.00000      0.00000        -0.045998      0.094536     -0.052327
      2.75005      0.00000      3.47664        -0.045998      0.094536      0.052327
      2.75005      2.75005      0.00000        -0.025346      0.107905     -0.037961
      2.75005      2.75005      3.47664        -0.025346      0.107905      0.037961
      2.75005      5.50010      0.00000        -0.152469     -0.201475      0.078553
      2.75005      5.50010      3.47664        -0.152469     -0.201475     -0.078553
      5.50010      0.00000      0.00000         0.014682      0.020886      0.010846
      5.50010      0.00000      3.47664         0.014682      0.020886     -0.010846
      5.50010      2.75005      0.00000        -0.043347     -0.049139     -0.045855
      5.50010      2.75005      3.47664        -0.043347     -0.049139      0.045855
      5.50010      5.50010      0.00000         0.063727      0.015683      0.050928
      5.50010      5.50010      3.47664         0.063727      0.015683     -0.050928
      1.37502      1.37502      1.73832         0.002836      0.022916      0.000000
      1.37502      1.37502      5.21496        -0.004739     -0.134409      0.000000
      1.37502      4.12507      1.73832         0.047807      0.022104      0.000000
      1.37502      4.12507      5.21496        -0.345154      0.069541      0.000000
      1.37502      6.87512      1.73832        -0.065345     -0.005412      0.000000
      1.37502      6.87512      5.21496        -0.198122      0.203513      0.000000
      4.12507      1.37502      1.73832         0.325924     -0.327222      0.000000
      4.12507      1.37502      5.21496        -0.030673      0.131567      0.000000
      4.12507      4.12507      1.73832        -0.012026     -0.051248      0.000000
      4.12507      4.12507      5.21496         0.013429     -0.328033      0.000000
      4.12507      6.87512      1.73832         0.271547      0.281874      0.000000
      4.12507      6.87512      5.21496         0.059591     -0.062989      0.000000
      6.87512      1.37502      1.73832        -0.313641     -0.192924      0.000000
      6.87512      1.37502      5.21496         0.019391     -0.148770      0.000000
      6.87512      4.12507      1.73832         0.047053      0.011832      0.000000
      6.87512      4.12507      5.21496         0.317603      0.039646      0.000000
      6.87512      6.87512      1.73832        -0.341557      0.261866      0.000000
      6.87512      6.87512      5.21496         0.253367      0.253713      0.000000
 -----------------------------------------------------------------------------------
    total drift:                               -0.000044     -0.000021     -0.000000


--------------------------------------------------------------------------------------------------------



  FREE ENERGIE OF THE ION-ELECTRON SYSTEM (eV)
  ---------------------------------------------------
  free  energy   TOTEN  =      -236.10371655 eV

  energy  without entropy=     -236.14490217  energy(sigma->0) =     -236.11744509
 


--------------------------------------------------------------------------------------------------------


    POTLOK:  cpu time    0.5430: real time    0.5799


--------------------------------------------------------------------------------------------------------


     LOOP+:  cpu time 1334.4602: real time 1365.2751
    4ORBIT:  cpu time    0.0000: real time    0.0000
 


 total charge     
 
# of ion       s       p       d       tot
------------------------------------------
    1        0.405   0.425   0.000   0.830
    2        0.405   0.425   0.000   0.830
    3        0.405   0.427   0.000   0.832
    4        0.405   0.427   0.000   0.832
    5        0.405   0.426   0.000   0.831
    6        0.405   0.427   0.000   0.832
    7        0.404   0.429   0.000   0.833
    8        0.404   0.429   0.000   0.834
    9        0.405   0.426   0.000   0.832
   10        0.405   0.426   0.000   0.831
   11        0.407   0.428   0.000   0.835
   12        0.406   0.427   0.000   0.834
   13        0.405   0.422   0.000   0.827
   14        0.405   0.422   0.000   0.828
   15        0.405   0.427   0.000   0.832
   16        0.405   0.427   0.000   0.832
   17        0.405   0.429   0.000   0.834
   18        0.405   0.430   0.000   0.835
   19        0.331   0.352   5.143   5.827
   20        0.334   0.355   5.127   5.815
   21        0.329   0.348   5.155   5.833
   22        0.334   0.354   5.140   5.828
   23        0.330   0.355   5.142   5.827
   24        0.335   0.357   5.116   5.809
   25        0.338   0.350   5.127   5.815
   26        0.333   0.354   5.137   5.824
   27        0.329   0.355   5.145   5.829
   28        0.330   0.357   5.135   5.822
   29        0.335   0.355   5.117   5.808
   30        0.330   0.353   5.153   5.835
   31        0.336   0.351   5.133   5.820
   32        0.333   0.351   5.144   5.828
   33        0.334   0.353   5.137   5.823
   34        0.338   0.355   5.118   5.812
   35        0.336   0.349   5.135   5.820
   36        0.335   0.356   5.124   5.816
--------------------------------------------------
tot         13.293  14.042  92.429 119.763
 


 magnetization (x)
 
# of ion       s       p       d       tot
------------------------------------------
    1        0.009   0.016   0.000   0.025
    2        0.009   0.016   0.000   0.025
    3       -0.003  -0.010   0.000  -0.013
    4       -0.003  -0.010   0.000  -0.013
    5       -0.004  -0.011   0.000  -0.015
    6       -0.004  -0.011   0.000  -0.016
    7        0.007   0.010   0.000   0.016
    8        0.006   0.010   0.000   0.017
    9       -0.000  -0.000   0.000  -0.001
   10       -0.000  -0.001   0.000  -0.001
   11       -0.003  -0.010   0.000  -0.013
   12       -0.003  -0.009   0.000  -0.013
   13        0.014   0.026   0.000   0.040
   14        0.014   0.026   0.000   0.041
   15        0.005   0.010   0.000   0.015
   16        0.005   0.010   0.000   0.015
   17        0.001   0.001   0.000   0.003
   18        0.001   0.001   0.000   0.002
   19        0.021   0.020   2.183   2.224
   20       -0.014  -0.021  -2.367  -2.401
   21        0.006  -0.010   2.197   2.194
   22        0.022   0.034   2.027   2.083
   23        0.017   0.027   2.080   2.124
   24       -0.024  -0.030  -2.485  -2.539
   25       -0.023  -0.018  -2.481  -2.521
   26       -0.018  -0.014  -2.306  -2.339
   27        0.015   0.036   1.960   2.010
   28       -0.031  -0.042  -2.180  -2.253
   29       -0.013  -0.029  -2.436  -2.478
   30        0.031   0.033   1.969   2.033
   31       -0.021  -0.016  -2.373  -2.410
   32       -0.017  -0.015  -2.244  -2.276
   33        0.027   0.015   2.321   2.363
   34        0.032   0.020   2.551   2.603
   35       -0.025  -0.010  -2.452  -2.487
   36       -0.029  -0.024  -2.425  -2.478
--------------------------------------------------
tot          0.007   0.019  -6.460  -6.435
 

 total amount of memory used by VASP MPI-rank0   728596. kBytes
=======================================================================

   base      :      30000. kBytes
   nonl-proj :      34307. kBytes
   fftplans  :      21726. kBytes
   grid      :      14732. kBytes
   one-center:        279. kBytes
   wavefun   :     627552. kBytes
 
  
  
 General timing and accounting informations for this job:
 ========================================================
  
                  Total CPU time used (sec):     1359.631
                            User time (sec):     1336.130
                          System time (sec):       23.500
                         Elapsed time (sec):     1392.759
  
                   Maximum memory used (kb):      867828.
                   Average memory used (kb):           0.
  
                          Minor page faults:       616620
                          Major page faults:           18
                 Voluntary context switches:         4921
