   36   36    1    2
  0.1314651E+02  0.8250148E-09  0.8250148E-09  0.6953274E-09  0.2000000E-15
  1.000000000000000E-004
  CAR 
 AlMn_pv                                 
    180     52    122
 
  0.0000000E+00  0.0000000E+00  0.0000000E+00  0.6666667E-02
    1       -2.545221     -2.497858   1.000000   1.000000
    2       -0.385793     -0.337571   1.000000   1.000000
    3       -0.369900     -0.334775   1.000000   1.000000
    4       -0.354621     -0.304798   1.000000   1.000000
    5       -0.347705     -0.273718   1.000000   1.000000
    6       -0.121180     -0.134197   1.000000   1.000000
    7        1.319867      1.401912   1.000000   1.000000
    8        1.323098      1.420589   1.000000   1.000000
    9        1.337390      1.445137   1.000000   1.000000
   10        1.353519      1.457186   1.000000   1.000000
   11        1.382509      1.476047   1.000000   1.000000
   12        1.509101      1.603861   1.000000   1.000000
   13        1.542660      1.621892   1.000000   1.000000
   14        1.557749      1.641933   1.000000   1.000000
   15        1.575136      1.679921   1.000000   1.000000
   16        2.657077      2.835548   1.000000   1.000000
   17        2.674475      2.864252   1.000000   1.000000
   18        2.694874      2.907706   1.000000   1.000000
   19        2.727109      2.931157   1.000000   1.000000
   20        3.436712      3.597597   1.000000   1.000000
   21        3.452824      3.600523   1.000000   1.000000
   22        3.501429      3.657518   1.000000   1.000000
   23        3.508111      3.713110   1.000000   1.000000
   24        4.017388      4.338798   1.000000   1.000000
   25        4.081605      4.352199   1.000000   1.000000
   26        4.182495      4.529563   1.000000   1.000000
   27        4.234222      4.650684   1.000000   1.000000
   28        4.477636      4.700156   1.000000   1.000000
   29        4.496020      4.761018   1.000000   1.000000
   30        4.513058      4.767983   1.000000   1.000000
   31        4.543326      4.822012   1.000000   1.000000
   32        4.576406      4.895601   1.000000   1.000000
   33        4.591604      5.029391   1.000000   1.000000
   34        4.601937      5.065513   1.000000   1.000000
   35        4.648296      5.106959   1.000000   1.000000
   36        4.657185      5.159825   1.000000   1.000000
   37        4.685859      5.250791   1.000000   1.000000
   38        4.688166      5.254198   1.000000   1.000000
   39        4.781179      5.320534   1.000000   1.000000
   40        4.836645      5.375947   1.000000   1.000000
   41        5.163940      5.466221   1.000000   1.000000
   42        5.165072      5.542146   1.000000   1.000000
   43        5.205878      5.602096   1.000000   1.000000
   44        5.270595      5.646155   1.000000   1.000000
   45        5.282250      5.731988   1.000000   1.000000
   46        5.295792      5.782310   1.000000   1.000000
   47        5.304213      5.809342   1.000000   1.000000
   48        5.328511      5.830137   1.000000   1.000000
   49        5.338848      5.914950   1.000000   1.000000
   50        5.380333      5.958301   1.000000   1.000000
   51        5.399861      6.067392   1.000000   1.000000
   52        5.422273      6.159459   1.000000   1.000000
   53        5.464638      6.264467   1.000000   1.000000
   54        5.520874      6.282301   1.000000   1.000000
   55        5.625529      6.389436   1.000000   1.000000
   56        5.710299      6.394740   1.000000   1.000000
   57        5.736483      6.489507   1.000000   1.000000
   58        5.741056      6.494288   1.000000   1.000000
   59        5.759729      6.530648   1.000000   1.000000
   60        5.839078      6.540146   1.000000   1.000000
   61        5.892967      6.566271   1.000000   1.000000
   62        5.938430      6.633205   1.000000   1.000000
   63        5.947743      6.658172   1.000000   1.000000
   64        6.021375      6.694943   1.000000   1.000000
   65        6.036330      6.723957   1.000000   1.000000
   66        6.229818      6.729045   1.000000   1.000000
   67        6.280744      6.801833   1.000000   1.000000
   68        6.335036      6.913294   1.000000   1.000000
   69        6.342613      6.927315   1.000000   1.000000
   70        6.368513      6.945862   1.000000   1.000000
   71        6.386027      7.155221   1.000000   1.000109
   72        6.406061      7.195438   1.000000   1.000318
   73        6.427161      7.270801   1.000000   1.001838
   74        6.446797      7.302534   1.000000   1.003480
   75        6.458622      7.392696   1.000000   1.015036
   76        6.479976      7.556449   1.000000   1.021193
   77        6.506242      7.572885   1.000000   1.008412
   78        6.626356      7.665326   1.000000   0.823825
   79        6.653570      7.695749   1.000000   0.718963
   80        6.681964      7.759904   1.000000   0.456809
   81        6.693649      7.822273   1.000000   0.213695
   82        6.740194      7.905459   1.000000   0.015395
   83        6.740540      8.035472   1.000000  -0.030650
   84        6.769052      8.068894   1.000000  -0.023213
   85        6.781782      8.126915   1.000000  -0.011330
   86        6.827086      8.158089   1.000000  -0.006948
   87        6.944267      8.177765   1.000000  -0.004938
   88        7.029391      8.200548   1.000002  -0.003226
   89        7.088290      8.289330   1.000015  -0.000456
   90        7.139490      8.350866   1.000070  -0.000090
   91        7.187162      8.391532   1.000256  -0.000028
   92        7.229804      8.457705   1.000736  -0.000003
   93        7.298955      8.510252   1.003248  -0.000001
   94        7.311151      8.520092   1.004097  -0.000000
   95        7.364121      8.558247   1.010047  -0.000000
   96        7.424827      8.583699   1.021981  -0.000000
   97        7.446140      8.680669   1.026885  -0.000000
   98        7.498273      8.806229   1.035308  -0.000000
   99        7.505305      8.808940   1.035457  -0.000000
  100        7.565424      8.836313   1.014819  -0.000000
  101        7.643911      8.862548   0.885425  -0.000000
  102        7.971660      8.890087  -0.033126  -0.000000
  103        7.984569      8.895316  -0.035045  -0.000000
  104        8.074954      8.932136  -0.021820  -0.000000
  105        8.100574      8.961633  -0.016214  -0.000000
  106        8.111314      8.972477  -0.014106  -0.000000
  107        8.199273      8.989453  -0.003305  -0.000000
  108        8.268529      9.018869  -0.000752  -0.000000
  109        8.356263      9.034843  -0.000077  -0.000000
  110        8.481412      9.039826  -0.000001  -0.000000
  111        8.513548      9.042304  -0.000000  -0.000000
  112        8.565399      9.050822  -0.000000  -0.000000
  113        8.585020      9.113471  -0.000000  -0.000000
  114        8.686489      9.128259  -0.000000  -0.000000
  115        8.736775      9.162444  -0.000000  -0.000000
  116        8.816587      9.211488  -0.000000  -0.000000
  117        9.052111      9.588424  -0.000000  -0.000000
  118        9.122620      9.800210  -0.000000  -0.000000
  119        9.220886      9.811367  -0.000000  -0.000000
  120        9.315895      9.849817  -0.000000  -0.000000
  121        9.487670     10.002954  -0.000000  -0.000000
  122        9.634101     10.084565  -0.000000  -0.000000
 
  0.2000000E+00  0.0000000E+00  0.0000000E+00  0.1333333E-01
    1       -2.454665     -2.407469   1.000000   1.000000
    2       -1.129298     -1.080318   1.000000   1.000000
    3       -0.297248     -0.238985   1.000000   1.000000
    4       -0.266854     -0.221310   1.000000   1.000000
    5       -0.056772     -0.066955   1.000000   1.000000
    6        0.536130      0.594726   1.000000   1.000000
    7        0.858902      0.900049   1.000000   1.000000
    8        0.885088      0.960863   1.000000   1.000000
    9        0.909962      0.975788   1.000000   1.000000
   10        1.408835      1.475331   1.000000   1.000000
   11        1.414649      1.512142   1.000000   1.000000
   12        1.418103      1.573199   1.000000   1.000000
   13        1.848635      2.003974   1.000000   1.000000
   14        2.249193      2.371195   1.000000   1.000000
   15        2.251262      2.392117   1.000000   1.000000
   16        2.257910      2.399316   1.000000   1.000000
   17        2.262742      2.415533   1.000000   1.000000
   18        2.760548      2.918080   1.000000   1.000000
   19        3.103023      3.376648   1.000000   1.000000
   20        3.142499      3.403731   1.000000   1.000000
   21        3.518532      3.693271   1.000000   1.000000
   22        3.559779      3.719272   1.000000   1.000000
   23        3.680814      3.812171   1.000000   1.000000
   24        3.998409      4.281788   1.000000   1.000000
   25        4.048369      4.297807   1.000000   1.000000
   26        4.151376      4.423744   1.000000   1.000000
   27        4.195415      4.495763   1.000000   1.000000
   28        4.220986      4.704731   1.000000   1.000000
   29        4.400930      4.759624   1.000000   1.000000
   30        4.411471      4.771715   1.000000   1.000000
   31        4.429598      4.795234   1.000000   1.000000
   32        4.466408      4.877887   1.000000   1.000000
   33        4.546939      4.883712   1.000000   1.000000
   34        4.586537      4.959993   1.000000   1.000000
   35        4.656027      5.036219   1.000000   1.000000
   36        4.792890      5.119171   1.000000   1.000000
   37        4.799816      5.238830   1.000000   1.000000
   38        4.828775      5.254538   1.000000   1.000000
   39        4.833246      5.289042   1.000000   1.000000
   40        4.857647      5.328112   1.000000   1.000000
   41        4.969739      5.382334   1.000000   1.000000
   42        5.156224      5.493377   1.000000   1.000000
   43        5.162199      5.613251   1.000000   1.000000
   44        5.193754      5.701454   1.000000   1.000000
   45        5.245138      5.741192   1.000000   1.000000
   46        5.273740      5.770447   1.000000   1.000000
   47        5.334267      5.808259   1.000000   1.000000
   48        5.337683      5.875245   1.000000   1.000000
   49        5.381616      5.902805   1.000000   1.000000
   50        5.413601      6.026254   1.000000   1.000000
   51        5.434590      6.092768   1.000000   1.000000
   52        5.506293      6.142532   1.000000   1.000000
   53        5.531188      6.281446   1.000000   1.000000
   54        5.614887      6.306804   1.000000   1.000000
   55        5.681731      6.357393   1.000000   1.000000
   56        5.702350      6.365631   1.000000   1.000000
   57        5.708715      6.447886   1.000000   1.000000
   58        5.743648      6.462766   1.000000   1.000000
   59        5.762937      6.490613   1.000000   1.000000
   60        5.834349      6.534823   1.000000   1.000000
   61        5.857939      6.549194   1.000000   1.000000
   62        5.933225      6.635711   1.000000   1.000000
   63        6.001215      6.693288   1.000000   1.000000
   64        6.042250      6.705618   1.000000   1.000000
   65        6.120510      6.756374   1.000000   1.000000
   66        6.166302      6.804384   1.000000   1.000000
   67        6.209102      6.805368   1.000000   1.000000
   68        6.272811      6.853784   1.000000   1.000000
   69        6.315325      7.016451   1.000000   1.000001
   70        6.347172      7.043336   1.000000   1.000004
   71        6.368206      7.192014   1.000000   1.000291
   72        6.384248      7.228648   1.000000   1.000716
   73        6.417869      7.262421   1.000000   1.001536
   74        6.440471      7.385857   1.000000   1.013727
   75        6.490469      7.402739   1.000000   1.017083
   76        6.516177      7.444174   1.000000   1.026431
   77        6.526612      7.539400   1.000000   1.029627
   78        6.575133      7.590755   1.000000   0.988508
   79        6.604052      7.602506   1.000000   0.971616
   80        6.628229      7.773290   1.000000   0.400770
   81        6.644648      7.786041   1.000000   0.348513
   82        6.699957      7.947384   1.000000  -0.023949
   83        6.709034      8.067164   1.000000  -0.023623
   84        6.741158      8.069764   1.000000  -0.023008
   85        6.742694      8.086392   1.000000  -0.019246
   86        6.804246      8.134195   1.000000  -0.010163
   87        6.863324      8.150806   1.000000  -0.007841
   88        6.921707      8.208641   1.000000  -0.002752
   89        6.950913      8.266982   1.000000  -0.000778
   90        7.024415      8.317384   1.000002  -0.000223
   91        7.026776      8.391682   1.000002  -0.000027
   92        7.156703      8.401008   1.000114  -0.000021
   93        7.303595      8.443571   1.003548  -0.000005
   94        7.363738      8.449789   1.009987  -0.000004
   95        7.405514      8.592284   1.017675  -0.000000
   96        7.502255      8.632288   1.035435  -0.000000
   97        7.547422      8.634672   1.026210  -0.000000
   98        7.559396      8.744275   1.019263  -0.000000
   99        7.616722      8.760753   0.946901  -0.000000
  100        7.700841      8.784592   0.699562  -0.000000
  101        7.782266      8.852348   0.363733  -0.000000
  102        7.879040      8.897469   0.059837  -0.000000
  103        7.990634      8.943469  -0.035397  -0.000000
  104        8.075185      8.956992  -0.021775  -0.000000
  105        8.099655      8.962249  -0.016412  -0.000000
  106        8.158391      9.025734  -0.006915  -0.000000
  107        8.214036      9.037463  -0.002469  -0.000000
  108        8.307474      9.045626  -0.000289  -0.000000
  109        8.355066      9.114124  -0.000080  -0.000000
  110        8.415141      9.133927  -0.000013  -0.000000
  111        8.566093      9.150005  -0.000000  -0.000000
  112        8.608334      9.179818  -0.000000  -0.000000
  113        8.620247      9.198369  -0.000000  -0.000000
  114        8.779117      9.198473  -0.000000  -0.000000
  115        8.873192      9.243630  -0.000000  -0.000000
  116        9.040620      9.430408  -0.000000  -0.000000
  117        9.130473      9.540134  -0.000000  -0.000000
  118        9.140611      9.755327  -0.000000  -0.000000
  119        9.167732      9.772875  -0.000000  -0.000000
  120        9.291517      9.831194  -0.000000  -0.000000
  121        9.526983     10.097145  -0.000000  -0.000000
  122        9.614247     10.135870  -0.000000  -0.000000
 
  0.4000000E+00  0.0000000E+00  0.0000000E+00  0.1333333E-01
    1       -2.184668     -2.138491   1.000000   1.000000
    2       -1.739952     -1.690675   1.000000   1.000000
    3       -0.052281      0.005972   1.000000   1.000000
    4       -0.022735      0.024530   1.000000   1.000000
    5        0.133330      0.132760   1.000000   1.000000
    6        0.347544      0.416044   1.000000   1.000000
    7        0.375584      0.429923   1.000000   1.000000
    8        0.446778      0.459490   1.000000   1.000000
    9        1.539743      1.617590   1.000000   1.000000
   10        1.587206      1.663823   1.000000   1.000000
   11        1.594159      1.698717   1.000000   1.000000
   12        1.698745      1.850079   1.000000   1.000000
   13        1.877765      1.982892   1.000000   1.000000
   14        1.884251      2.012873   1.000000   1.000000
   15        2.156042      2.315069   1.000000   1.000000
   16        2.220822      2.465984   1.000000   1.000000
   17        2.643456      2.720511   1.000000   1.000000
   18        2.868011      3.058094   1.000000   1.000000
   19        2.895257      3.123784   1.000000   1.000000
   20        3.423068      3.768168   1.000000   1.000000
   21        3.498665      3.863214   1.000000   1.000000
   22        3.694276      3.880102   1.000000   1.000000
   23        3.721849      3.894327   1.000000   1.000000
   24        3.911834      4.126330   1.000000   1.000000
   25        3.928349      4.137943   1.000000   1.000000
   26        4.006249      4.270904   1.000000   1.000000
   27        4.053317      4.312862   1.000000   1.000000
   28        4.133400      4.534568   1.000000   1.000000
   29        4.188213      4.588845   1.000000   1.000000
   30        4.230685      4.609491   1.000000   1.000000
   31        4.246909      4.613885   1.000000   1.000000
   32        4.514157      4.716409   1.000000   1.000000
   33        4.608517      4.850106   1.000000   1.000000
   34        4.622082      4.917764   1.000000   1.000000
   35        4.699014      5.037416   1.000000   1.000000
   36        4.756907      5.163090   1.000000   1.000000
   37        4.799490      5.191011   1.000000   1.000000
   38        4.876800      5.264609   1.000000   1.000000
   39        4.918022      5.322245   1.000000   1.000000
   40        4.994223      5.389230   1.000000   1.000000
   41        4.996054      5.434829   1.000000   1.000000
   42        5.062564      5.512169   1.000000   1.000000
   43        5.138685      5.613859   1.000000   1.000000
   44        5.167999      5.699202   1.000000   1.000000
   45        5.200579      5.746668   1.000000   1.000000
   46        5.283008      5.758732   1.000000   1.000000
   47        5.348281      5.802102   1.000000   1.000000
   48        5.415005      5.885264   1.000000   1.000000
   49        5.432426      5.898544   1.000000   1.000000
   50        5.452235      5.919107   1.000000   1.000000
   51        5.505664      6.112150   1.000000   1.000000
   52        5.522696      6.121545   1.000000   1.000000
   53        5.548791      6.237122   1.000000   1.000000
   54        5.614317      6.297042   1.000000   1.000000
   55        5.632170      6.315851   1.000000   1.000000
   56        5.665205      6.331934   1.000000   1.000000
   57        5.668050      6.339669   1.000000   1.000000
   58        5.705989      6.430342   1.000000   1.000000
   59        5.733744      6.435358   1.000000   1.000000
   60        5.894021      6.521650   1.000000   1.000000
   61        5.942036      6.553085   1.000000   1.000000
   62        6.016654      6.605193   1.000000   1.000000
   63        6.019103      6.721921   1.000000   1.000000
   64        6.061874      6.764142   1.000000   1.000000
   65        6.074299      6.783106   1.000000   1.000000
   66        6.119463      6.859466   1.000000   1.000000
   67        6.188438      6.950279   1.000000   1.000000
   68        6.222921      6.969925   1.000000   1.000000
   69        6.276259      7.088160   1.000000   1.000015
   70        6.301183      7.137064   1.000000   1.000066
   71        6.307086      7.155063   1.000000   1.000109
   72        6.336570      7.265375   1.000000   1.001636
   73        6.370822      7.284546   1.000000   1.002440
   74        6.414513      7.306254   1.000000   1.003736
   75        6.454948      7.356380   1.000000   1.008911
   76        6.485737      7.392792   1.000000   1.015056
   77        6.497137      7.491461   1.000000   1.034849
   78        6.540660      7.645893   1.000000   0.879954
   79        6.544905      7.647717   1.000000   0.875129
   80        6.593909      7.762438   1.000000   0.445487
   81        6.630773      7.855102   1.000000   0.115169
   82        6.687130      7.923829   1.000000  -0.006060
   83        6.704795      7.959430   1.000000  -0.029520
   84        6.705165      8.071002   1.000000  -0.022734
   85        6.752291      8.082294   1.000000  -0.020169
   86        6.811768      8.108239   1.000000  -0.014695
   87        6.814126      8.167598   1.000000  -0.005909
   88        6.859850      8.195413   1.000000  -0.003563
   89        6.879469      8.244268   1.000000  -0.001302
   90        6.924294      8.246491   1.000000  -0.001239
   91        6.941423      8.273942   1.000000  -0.000661
   92        7.022089      8.334824   1.000002  -0.000140
   93        7.291342      8.397016   1.002797  -0.000023
   94        7.337797      8.433152   1.006580  -0.000007
   95        7.466797      8.526444   1.031252  -0.000000
   96        7.501566      8.639078   1.035421  -0.000000
   97        7.550625      8.647204   1.024612  -0.000000
   98        7.600221      8.689097   0.975200  -0.000000
   99        7.631579      8.714091   0.915575  -0.000000
  100        7.754263      8.731499   0.480224  -0.000000
  101        7.817143      8.789382   0.231315  -0.000000
  102        7.919326      8.791399  -0.001432  -0.000000
  103        7.994926      8.830428  -0.035457  -0.000000
  104        8.058848      8.914845  -0.025542  -0.000000
  105        8.093553      8.948645  -0.017695  -0.000000
  106        8.177447      9.031275  -0.004971  -0.000000
  107        8.240867      9.042736  -0.001405  -0.000000
  108        8.279931      9.118112  -0.000573  -0.000000
  109        8.279986      9.150665  -0.000572  -0.000000
  110        8.365099      9.214212  -0.000060  -0.000000
  111        8.528324      9.257012  -0.000000  -0.000000
  112        8.745960      9.271971  -0.000000  -0.000000
  113        8.880356      9.315433  -0.000000  -0.000000
  114        8.928684      9.378446  -0.000000  -0.000000
  115        9.010772      9.689902  -0.000000  -0.000000
  116        9.094274      9.697152  -0.000000  -0.000000
  117        9.262625      9.817119  -0.000000  -0.000000
  118        9.473108      9.934235  -0.000000  -0.000000
  119        9.576210      9.952187  -0.000000  -0.000000
  120        9.611732     10.067419  -0.000000  -0.000000
  121        9.704117     10.177138  -0.000000  -0.000000
  122        9.728101     10.531223  -0.000000  -0.000000
 
  0.0000000E+00  0.2000000E+00  0.0000000E+00  0.1333333E-01
    1       -2.454689     -2.407382   1.000000   1.000000
    2       -1.129380     -1.080795   1.000000   1.000000
    3       -0.291148     -0.253926   1.000000   1.000000
    4       -0.272795     -0.204796   1.000000   1.000000
    5       -0.056581     -0.067014   1.000000   1.000000
    6        0.535924      0.593513   1.000000   1.000000
    7        0.860816      0.898544   1.000000   1.000000
    8        0.888963      0.950606   1.000000   1.000000
    9        0.906274      0.986131   1.000000   1.000000
   10        1.384469      1.476371   1.000000   1.000000
   11        1.418129      1.517533   1.000000   1.000000
   12        1.432961      1.573584   1.000000   1.000000
   13        1.853331      1.997859   1.000000   1.000000
   14        2.233955      2.370900   1.000000   1.000000
   15        2.238707      2.392448   1.000000   1.000000
   16        2.272884      2.399264   1.000000   1.000000
   17        2.273284      2.415915   1.000000   1.000000
   18        2.759535      2.914798   1.000000   1.000000
   19        3.113084      3.354467   1.000000   1.000000
   20        3.137630      3.425533   1.000000   1.000000
   21        3.517501      3.672190   1.000000   1.000000
   22        3.563896      3.749810   1.000000   1.000000
   23        3.681388      3.815035   1.000000   1.000000
   24        3.997184      4.274386   1.000000   1.000000
   25        4.052255      4.331970   1.000000   1.000000
   26        4.126506      4.408219   1.000000   1.000000
   27        4.220398      4.466175   1.000000   1.000000
   28        4.226451      4.675492   1.000000   1.000000
   29        4.400960      4.726265   1.000000   1.000000
   30        4.406530      4.798143   1.000000   1.000000
   31        4.427704      4.821902   1.000000   1.000000
   32        4.478434      4.861787   1.000000   1.000000
   33        4.521009      4.889615   1.000000   1.000000
   34        4.563331      5.046490   1.000000   1.000000
   35        4.692894      5.051716   1.000000   1.000000
   36        4.779918      5.143383   1.000000   1.000000
   37        4.788803      5.171153   1.000000   1.000000
   38        4.835675      5.269643   1.000000   1.000000
   39        4.851451      5.299033   1.000000   1.000000
   40        4.864304      5.351547   1.000000   1.000000
   41        4.965001      5.366064   1.000000   1.000000
   42        5.151569      5.460396   1.000000   1.000000
   43        5.175403      5.548746   1.000000   1.000000
   44        5.178883      5.606710   1.000000   1.000000
   45        5.233739      5.692329   1.000000   1.000000
   46        5.246580      5.808849   1.000000   1.000000
   47        5.332467      5.826894   1.000000   1.000000
   48        5.366127      5.880312   1.000000   1.000000
   49        5.366226      5.915092   1.000000   1.000000
   50        5.457723      6.082731   1.000000   1.000000
   51        5.459249      6.139222   1.000000   1.000000
   52        5.501611      6.229888   1.000000   1.000000
   53        5.524888      6.280078   1.000000   1.000000
   54        5.573294      6.296325   1.000000   1.000000
   55        5.628358      6.381736   1.000000   1.000000
   56        5.717874      6.391953   1.000000   1.000000
   57        5.725263      6.423800   1.000000   1.000000
   58        5.734417      6.465948   1.000000   1.000000
   59        5.805144      6.502806   1.000000   1.000000
   60        5.847777      6.514863   1.000000   1.000000
   61        5.887840      6.534446   1.000000   1.000000
   62        5.910503      6.610744   1.000000   1.000000
   63        5.965511      6.680674   1.000000   1.000000
   64        6.029972      6.688201   1.000000   1.000000
   65        6.089198      6.735592   1.000000   1.000000
   66        6.145936      6.804329   1.000000   1.000000
   67        6.245156      6.811049   1.000000   1.000000
   68        6.270488      6.897792   1.000000   1.000000
   69        6.333112      6.971100   1.000000   1.000000
   70        6.350510      6.991772   1.000000   1.000001
   71        6.364761      7.162730   1.000000   1.000134
   72        6.387686      7.235194   1.000000   1.000835
   73        6.417405      7.311471   1.000000   1.004121
   74        6.438831      7.340866   1.000000   1.006928
   75        6.464341      7.399804   1.000000   1.016479
   76        6.518998      7.468883   1.000000   1.031641
   77        6.526249      7.549504   1.000000   1.025163
   78        6.562537      7.549931   1.000000   1.024959
   79        6.582634      7.715302   1.000000   0.642739
   80        6.642873      7.762291   1.000000   0.446747
   81        6.678893      7.814559   1.000000   0.240365
   82        6.712667      7.918377   1.000000  -0.000464
   83        6.737718      7.960111   1.000000  -0.029767
   84        6.759778      8.056185   1.000000  -0.026158
   85        6.760983      8.088116   1.000000  -0.018856
   86        6.824323      8.170008   1.000000  -0.005664
   87        6.853481      8.178300   1.000000  -0.004893
   88        6.924455      8.241929   1.000000  -0.001373
   89        6.949427      8.259298   1.000000  -0.000930
   90        6.984139      8.353102   1.000000  -0.000085
   91        7.108152      8.370682   1.000028  -0.000051
   92        7.178922      8.400265   1.000207  -0.000021
   93        7.182137      8.454961   1.000226  -0.000004
   94        7.368446      8.512871   1.010714  -0.000000
   95        7.403884      8.550876   1.017320  -0.000000
   96        7.489450      8.578447   1.034657  -0.000000
   97        7.501424      8.658839   1.035419  -0.000000
   98        7.537722      8.718260   1.030240  -0.000000
   99        7.606063      8.776769   0.965838  -0.000000
  100        7.628260      8.789160   0.923009  -0.000000
  101        7.971955      8.850577  -0.033175  -0.000000
  102        7.978607      8.908533  -0.034370  -0.000000
  103        7.993868      8.949813  -0.035456  -0.000000
  104        8.046389      8.954775  -0.028355  -0.000000
  105        8.047610      8.982130  -0.028078  -0.000000
  106        8.154245      8.983578  -0.007409  -0.000000
  107        8.248163      9.033663  -0.001195  -0.000000
  108        8.252525      9.044330  -0.001085  -0.000000
  109        8.305702      9.122169  -0.000302  -0.000000
  110        8.456762      9.141951  -0.000003  -0.000000
  111        8.477237      9.144993  -0.000002  -0.000000
  112        8.649071      9.164583  -0.000000  -0.000000
  113        8.742179      9.193547  -0.000000  -0.000000
  114        8.760354      9.195016  -0.000000  -0.000000
  115        8.839076      9.248451  -0.000000  -0.000000
  116        9.051056      9.434882  -0.000000  -0.000000
  117        9.104429      9.571655  -0.000000  -0.000000
  118        9.127828      9.671383  -0.000000  -0.000000
  119        9.141267      9.752228  -0.000000  -0.000000
  120        9.252541      9.927224  -0.000000  -0.000000
  121        9.498362     10.094266  -0.000000  -0.000000
  122        9.696249     10.181609  -0.000000  -0.000000
 
  0.2000000E+00  0.2000000E+00  0.0000000E+00  0.1333333E-01
    1       -2.364408     -2.317251   1.000000   1.000000
    2       -1.050312     -1.005760   1.000000   1.000000
    3       -1.037014     -0.983191   1.000000   1.000000
    4        0.007719      0.000118   1.000000   1.000000
    5        0.196204      0.255411   1.000000   1.000000
    6        0.608257      0.662908   1.000000   1.000000
    7        0.621486      0.685676   1.000000   1.000000
    8        0.911005      0.957723   1.000000   1.000000
    9        0.933870      0.971904   1.000000   1.000000
   10        1.510619      1.665072   1.000000   1.000000
   11        1.691458      1.779332   1.000000   1.000000
   12        1.713755      1.808314   1.000000   1.000000
   13        1.795783      1.895843   1.000000   1.000000
   14        1.904482      2.055520   1.000000   1.000000
   15        1.921127      2.075808   1.000000   1.000000
   16        2.713482      2.924060   1.000000   1.000000
   17        2.737484      2.967739   1.000000   1.000000
   18        2.779048      2.975618   1.000000   1.000000
   19        2.825612      2.992028   1.000000   1.000000
   20        2.853636      3.017571   1.000000   1.000000