       N       E                     dE             d eps       ncg     rms          ort
DAV:   1     0.133008816440E+04    0.13301E+04   -0.60084E+04  6344   0.134E+03
DAV:   2    -0.849090387448E+02   -0.14150E+04   -0.13658E+04  6344   0.402E+02
DAV:   3    -0.244484035818E+03   -0.15957E+03   -0.13834E+03  6344   0.149E+02
DAV:   4    -0.267515129484E+03   -0.23031E+02   -0.20125E+02  6344   0.631E+01
DAV:   5    -0.269404884869E+03   -0.18898E+01   -0.18065E+01  6344   0.178E+01
DAV:   6    -0.269540197503E+03   -0.13531E+00   -0.13338E+00  6344   0.442E+00
DAV:   7    -0.269553601813E+03   -0.13404E-01   -0.13324E-01  6344   0.119E+00
DAV:   8    -0.269554637178E+03   -0.10354E-02   -0.10319E-02  6344   0.324E-01
SDA:   9    -0.616330071176E+02    0.20792E+03   -0.10319E-02  6344   0.229E+04 0.000E+00
CGA:  10    -0.206035243705E+03   -0.14440E+03   -0.14108E+03  6344   0.168E+03 0.426E+03
CGA:  11    -0.218056810406E+03   -0.12022E+02   -0.12130E+02  6344   0.561E+02 0.217E+01
CGA:  12    -0.226188782097E+03   -0.81320E+01   -0.81007E+01  6344   0.940E+02-0.151E+00
CGA:  13    -0.233416441678E+03   -0.72277E+01   -0.73512E+01  6344   0.153E+02-0.653E-01
CGA:  14    -0.234503359716E+03   -0.10869E+01   -0.11017E+01  6344   0.566E+01-0.105E+00
CGA:  15    -0.235081066424E+03   -0.57771E+00   -0.58131E+00  6344   0.685E+01-0.660E-02
CGA:  16    -0.235743484977E+03   -0.66242E+00   -0.66544E+00  6344   0.251E+01-0.272E-02
CGA:  17    -0.235942249070E+03   -0.19876E+00   -0.19898E+00  6344   0.103E+01 0.611E-03
CGA:  18    -0.236081578000E+03   -0.13933E+00   -0.13951E+00  6344   0.123E+01 0.165E-02
CGA:  19    -0.236199300697E+03   -0.11772E+00   -0.11813E+00  6344   0.537E+00-0.209E-02
CGA:  20    -0.236243820143E+03   -0.44519E-01   -0.44784E-01  6344   0.234E+00-0.171E-02
CGA:  21    -0.236276339737E+03   -0.32520E-01   -0.32538E-01  6344   0.337E+00 0.463E-03
CGA:  22    -0.236313553057E+03   -0.37213E-01   -0.37327E-01  6344   0.148E+00 0.237E-03
CGA:  23    -0.236326543983E+03   -0.12991E-01   -0.12995E-01  6344   0.618E-01-0.129E-03
CGA:  24    -0.236334144230E+03   -0.76002E-02   -0.76044E-02  6344   0.631E-01-0.223E-04
CGA:  25    -0.236343155504E+03   -0.90113E-02   -0.90105E-02  6344   0.473E-01-0.224E-03
CGA:  26    -0.236347783302E+03   -0.46278E-02   -0.46328E-02  6344   0.339E-01-0.123E-03
CGA:  27    -0.236352157254E+03   -0.43740E-02   -0.43728E-02  6344   0.306E-01-0.965E-04
CGA:  28    -0.236355247969E+03   -0.30907E-02   -0.30892E-02  6344   0.155E-01-0.257E-04
CGA:  29    -0.236356721569E+03   -0.14736E-02   -0.14735E-02  6344   0.807E-02 0.845E-05
CGA:  30    -0.236357915314E+03   -0.11937E-02   -0.11937E-02  6344   0.929E-02 0.126E-04
CGA:  31    -0.236359016065E+03   -0.11008E-02   -0.11008E-02  6344   0.615E-02 0.593E-05
CGA:  32    -0.236359730166E+03   -0.71410E-03   -0.71401E-03  6344   0.526E-02 0.266E-06
CGA:  33    -0.236360393987E+03   -0.66382E-03   -0.66391E-03  6344   0.413E-02 0.912E-05
CGA:  34    -0.236360917150E+03   -0.52316E-03   -0.52336E-03  6344   0.254E-02 0.279E-04
CGA:  35    -0.236361195047E+03   -0.27790E-03   -0.27843E-03  6344   0.191E-02 0.234E-04
CGA:  36    -0.236361460213E+03   -0.26517E-03   -0.26510E-03  6344   0.146E-02 0.261E-04
CGA:  37    -0.236361642107E+03   -0.18189E-03   -0.18202E-03  6344   0.134E-02 0.122E-04
CGA:  38    -0.236361819808E+03   -0.17770E-03   -0.17775E-03  6344   0.134E-02 0.160E-04
CGA:  39    -0.236361979819E+03   -0.16001E-03   -0.16027E-03  6344   0.869E-03 0.166E-04
SDA:  40    -0.236362065438E+03   -0.85619E-04   -0.86053E-04  6344   0.367E-03 0.124E-04
CGA:  41    -0.236362103977E+03   -0.38539E-04   -0.38493E-04  6344   0.519E-03-0.169E-05
CGA:  42    -0.236362183753E+03   -0.79776E-04   -0.79931E-04  6344   0.242E-03-0.643E-05
CGA:  43    -0.236362210477E+03   -0.26725E-04   -0.26642E-04  6344   0.270E-03-0.410E-05
CGA:  44    -0.236362253904E+03   -0.43427E-04   -0.43644E-04  6344   0.206E-03-0.640E-05
CGA:  45    -0.236362271469E+03   -0.17565E-04   -0.17482E-04  6344   0.137E-03-0.179E-05
CGA:  46    -0.236362305948E+03   -0.34479E-04   -0.34437E-04  6344   0.167E-03 0.346E-06
CGA:  47    -0.236362322055E+03   -0.16106E-04   -0.16094E-04  6344   0.124E-03-0.381E-06
CGA:  48    -0.236362342614E+03   -0.20560E-04   -0.20601E-04  6344   0.160E-03-0.111E-05
CGA:  49    -0.236362358659E+03   -0.16045E-04   -0.16086E-04  6344   0.935E-04 0.114E-05
CGA:  50    -0.236362375071E+03   -0.16411E-04   -0.16221E-04  6344   0.717E-04 0.501E-05
CGA:  51    -0.236362382687E+03   -0.76165E-05   -0.77015E-05  6344   0.505E-04 0.254E-05
CGA:  52    -0.236362393291E+03   -0.10603E-04   -0.10454E-04  6344   0.728E-04 0.226E-05
CGA:  53    -0.236362399355E+03   -0.60642E-05   -0.61310E-05  6344   0.341E-04 0.117E-05
CGA:  54    -0.236362405672E+03   -0.63171E-05   -0.62631E-05  6344   0.595E-04 0.117E-05
CGA:  55    -0.236362412291E+03   -0.66191E-05   -0.66621E-05  6344   0.135E-04 0.147E-05
CGA:  56    -0.236362413803E+03   -0.15117E-05   -0.15144E-05  6344   0.147E-04 0.662E-07
CGA:  57    -0.236362417737E+03   -0.39345E-05   -0.40495E-05  6344   0.153E-04-0.819E-06
CGA:  58    -0.236362419127E+03   -0.13894E-05   -0.13493E-05  6344   0.119E-04-0.834E-06
CGA:  59    -0.236362420875E+03   -0.17480E-05   -0.17686E-05  6344   0.121E-04-0.114E-05
CGA:  60    -0.236362421958E+03   -0.10836E-05   -0.10717E-05  6344   0.669E-05-0.288E-06
CGA:  61    -0.236362422715E+03   -0.75728E-06   -0.76718E-06  6344   0.423E-05 0.480E-06
CGA:  62    -0.236362423081E+03   -0.36562E-06   -0.38272E-06  6344   0.266E-05 0.327E-06
CGA:  63    -0.236362423709E+03   -0.62791E-06   -0.60869E-06  6344   0.173E-05 0.265E-06
CGA:  64    -0.236362423924E+03   -0.21473E-06   -0.21450E-06  6344   0.152E-05 0.133E-07
CGA:  65    -0.236362424168E+03   -0.24452E-06   -0.24461E-06  6344   0.161E-05 0.276E-07
CGA:  66    -0.236362424293E+03   -0.12475E-06   -0.12936E-06  6344   0.568E-06 0.769E-07
CGA:  67    -0.236362424364E+03   -0.71479E-07   -0.71852E-07  6344   0.534E-06 0.866E-07
   1 F= -.23636242E+03 E0= -.23637118E+03  d E =0.262754E-01  mag=    18.9472
