 vasp.5.4.4.18Apr17-6-g9f103f2a35 (build Dec 20 2018 12:05:58) complex          
  
 executed on             LinuxIFC date 2019.06.20  14:53:42
 running on   32 total cores
 distrk:  each k-point on    8 cores,    4 groups
 distr:  one band on NCORES_PER_BAND=   4 cores,    2 groups


--------------------------------------------------------------------------------------------------------


 INCAR:
 POTCAR:    PAW_PBE Al 04Jan2001                  
 POTCAR:    PAW_PBE Mn 06Sep2000                  

 ----------------------------------------------------------------------------- 
|                                                                             |
|           W    W    AA    RRRRR   N    N  II  N    N   GGGG   !!!           |
|           W    W   A  A   R    R  NN   N  II  NN   N  G    G  !!!           |
|           W    W  A    A  R    R  N N  N  II  N N  N  G       !!!           |
|           W WW W  AAAAAA  RRRRR   N  N N  II  N  N N  G  GGG   !            |
|           WW  WW  A    A  R   R   N   NN  II  N   NN  G    G                |
|           W    W  A    A  R    R  N    N  II  N    N   GGGG   !!!           |
|                                                                             |
|      You have enabled k-point parallelism (KPAR>1).                         |
|      This developmental code was originally  written by Paul Kent at ORNL,  |
|      and carefully double checked in Vienna.                                |
|      GW as well as linear response parallelism added by Martijn Marsman     |
|      and Georg Kresse.                                                      |
|      Carefully verify results versus KPAR=1.                                |
|      Report problems to Paul Kent and Vienna.                               |
|                                                                             |
 ----------------------------------------------------------------------------- 

 POTCAR:    PAW_PBE Al 04Jan2001                  
   VRHFIN =Al: s2p1                                                             
   LEXCH  = PE                                                                  
   EATOM  =    53.5387 eV,    3.9350 Ry                                         
                                                                                
   TITEL  = PAW_PBE Al 04Jan2001                                                
   LULTRA =        F    use ultrasoft PP ?                                      
   IUNSCR =        1    unscreen: 0-lin 1-nonlin 2-no                           
   RPACOR =    1.500    partial core radius                                     
   POMASS =   26.981; ZVAL   =    3.000    mass and valenz                      
   RCORE  =    1.900    outmost cutoff radius                                   
   RWIGS  =    2.650; RWIGS  =    1.402    wigner-seitz radius (au A)           
   ENMAX  =  240.300; ENMIN  =  180.225 eV                                      
   ICORE  =        2    local potential                                         
   LCOR   =        T    correct aug charges                                     
   LPAW   =        T    paw PP                                                  
   EAUG   =  291.052                                                            
   DEXC   =    0.000                                                            
   RMAX   =    1.939    core radius for proj-oper                               
   RAUG   =    1.300    factor for augmentation sphere                          
   RDEP   =    1.966    radius for radial grids                                 
   RDEPT  =    1.856    core radius for aug-charge                              
                                                                                
   Atomic configuration                                                         
    6 entries                                                                   
     n  l   j            E        occ.                                          
     1  0  0.50     -1511.1048   2.0000                                         
     2  0  0.50      -108.1629   2.0000                                         
     2  1  1.50       -69.6402   6.0000                                         
     3  0  0.50        -7.7528   2.0000                                         
     3  1  1.50        -2.7121   1.0000                                         
     3  2  2.50        -2.7212   0.0000                                         
   Description                                                                  
     l       E           TYP  RCUT    TYP  RCUT                                 
     0     -7.7528455     23  1.900                                             
     0     -3.3096929     23  1.900                                             
     1     -2.7120682     23  1.900                                             
     1     13.6058260     23  1.900                                             
     2     -2.7211652      7  1.900                                             
  local pseudopotential read in
  partial core-charges read in
  partial kinetic energy density read in
  atomic valenz-charges read in
  non local Contribution for L=           0  read in
    real space projection operators read in
  non local Contribution for L=           0  read in
    real space projection operators read in
  non local Contribution for L=           1  read in
    real space projection operators read in
  non local Contribution for L=           1  read in
    real space projection operators read in
    PAW grid and wavefunctions read in
 
   number of l-projection  operators is LMAX  =           4
   number of lm-projection operators is LMMAX =           8
 
 POTCAR:    PAW_PBE Mn 06Sep2000                  
   VRHFIN =Mn: d6 s1                                                            
   LEXCH  = PE                                                                  
   EATOM  =   416.7541 eV,   30.6306 Ry                                         
                                                                                
   TITEL  = PAW_PBE Mn 06Sep2000                                                
   LULTRA =        F    use ultrasoft PP ?                                      
   IUNSCR =        1    unscreen: 0-lin 1-nonlin 2-no                           
   RPACOR =    2.000    partial core radius                                     
   POMASS =   54.938; ZVAL   =    7.000    mass and valenz                      
   RCORE  =    2.300    outmost cutoff radius                                   
   RWIGS  =    2.500; RWIGS  =    1.323    wigner-seitz radius (au A)           
   ENMAX  =  269.864; ENMIN  =  202.398 eV                                      
   RCLOC  =    1.725    cutoff for local pot                                    
   LCOR   =        T    correct aug charges                                     
   LPAW   =        T    paw PP                                                  
   EAUG   =  500.711                                                            
   DEXC   =    0.000                                                            
   RMAX   =    2.343    core radius for proj-oper                               
   RAUG   =    1.300    factor for augmentation sphere                          
   RDEP   =    2.338    radius for radial grids                                 
   RDEPT  =    1.911    core radius for aug-charge                              
                                                                                
   Atomic configuration                                                         
    9 entries                                                                   
     n  l   j            E        occ.                                          
     1  0  0.50     -6424.8288   2.0000                                         
     2  0  0.50      -739.1154   2.0000                                         
     2  1  1.50      -625.3949   6.0000                                         
     3  0  0.50       -81.6100   2.0000                                         
     3  1  1.50       -50.4667   6.0000                                         
     3  2  2.50        -3.3745   6.0000                                         
     4  0  0.50        -4.1331   1.0000                                         
     4  1  0.50        -4.0817   0.0000                                         
     4  3  2.50        -1.3606   0.0000                                         
   Description                                                                  
     l       E           TYP  RCUT    TYP  RCUT                                 
     2     -3.3744664     23  2.300                                             
     2     -4.7350490     23  2.300                                             
     0     -4.1331408     23  2.300                                             
     0      7.6656614     23  2.300                                             
     1     -2.7211652     23  2.300                                             
     1     20.4087390     23  2.300                                             
  local pseudopotential read in
  partial core-charges read in
  partial kinetic energy density read in
  atomic valenz-charges read in
  non local Contribution for L=           2  read in
    real space projection operators read in
  non local Contribution for L=           2  read in
    real space projection operators read in
  non local Contribution for L=           0  read in
    real space projection operators read in
  non local Contribution for L=           0  read in
    real space projection operators read in
  non local Contribution for L=           1  read in
    real space projection operators read in
  non local Contribution for L=           1  read in
    real space projection operators read in
    PAW grid and wavefunctions read in
 
   number of l-projection  operators is LMAX  =           6
   number of lm-projection operators is LMMAX =          18
 

 ----------------------------------------------------------------------------- 
|                                                                             |
|  ADVICE TO THIS USER RUNNING 'VASP/VAMP'   (HEAR YOUR MASTER'S VOICE ...):  |
|                                                                             |
|      You have a (more or less) 'large supercell' and for larger cells       |
|      it might be more efficient to use real space projection opertators     |
|      So try LREAL= Auto  in the INCAR   file.                               |
|      Mind:          For very  accurate calculation you might also keep the  |
|      reciprocal projection scheme          (i.e. LREAL=.FALSE.)             |
|                                                                             |
 ----------------------------------------------------------------------------- 

  PAW_PBE Al 04Jan2001                  :
 energy of atom  1       EATOM=  -53.5387
 kinetic energy error for atom=    0.0005 (will be added to EATOM!!)
  PAW_PBE Mn 06Sep2000                  :
 energy of atom  2       EATOM= -416.7541
 kinetic energy error for atom=    0.0080 (will be added to EATOM!!)
 
 
 POSCAR: NewRef: 18, @ ['Mn', array([1.37502469, 
  positions in cartesian coordinates
  velocities in cartesian coordinates
  No initial velocities read in
 exchange correlation table for  LEXCH =        8
   RHO(1)=    0.500       N(1)  =     2000
   RHO(2)=  100.500       N(2)  =     4000
 


--------------------------------------------------------------------------------------------------------


 ion  position               nearest neighbor table
   1  0.000  0.000  0.000-  20 2.61  24 2.61  32 2.61  36 2.61  31 2.61  23 2.61  35 2.61  19 2.61
                             3 2.75   7 2.75   5 2.75  13 2.75
   2  0.000  0.000  0.500-  19 2.61  23 2.61  31 2.61  35 2.61  20 2.61  32 2.61  24 2.61  36 2.61
                             4 2.75   8 2.75   6 2.75  14 2.75
   3  0.000  0.333  0.000-  20 2.61  32 2.61  22 2.61  34 2.61  19 2.61  31 2.61  33 2.61  21 2.61
                             9 2.75   1 2.75   5 2.75  15 2.75
   4  0.000  0.333  0.500-  19 2.61  31 2.61  21 2.61  33 2.61  32 2.61  20 2.61  22 2.61  34 2.61
                            10 2.75   2 2.75   6 2.75  16 2.75
   5  0.000  0.667  0.000-  22 2.61  34 2.61  24 2.61  36 2.61  21 2.61  33 2.61  35 2.61  23 2.61
                             3 2.75  11 2.75   1 2.75  17 2.75
   6  0.000  0.667  0.500-  21 2.61  33 2.61  23 2.61  35 2.61  34 2.61  22 2.61  24 2.61  36 2.61
                             4 2.75  12 2.75   2 2.75  18 2.75
   7  0.333  0.000  0.000-  20 2.61  24 2.61  26 2.61  30 2.61  23 2.61  19 2.61  29 2.61  25 2.61
                            13 2.75   1 2.75   9 2.75  11 2.75
   8  0.333  0.000  0.500-  19 2.61  23 2.61  25 2.61  29 2.61  20 2.61  24 2.61  26 2.61  30 2.61
                            14 2.75   2 2.75  10 2.75  12 2.75
   9  0.333  0.333  0.000-  20 2.61  22 2.61  26 2.61  19 2.61  28 2.61  21 2.61  25 2.61  27 2.61
                             3 2.75   7 2.75  11 2.75  15 2.75
  10  0.333  0.333  0.500-  19 2.61  21 2.61  25 2.61  20 2.61  27 2.61  26 2.61  22 2.61  28 2.61
                             4 2.75   8 2.75  12 2.75  16 2.75
  11  0.333  0.667  0.000-  22 2.61  24 2.61  28 2.61  21 2.61  30 2.61  23 2.61  27 2.61  29 2.61
                            17 2.75   5 2.75   9 2.75   7 2.75
  12  0.333  0.667  0.500-  21 2.61  23 2.61  27 2.61  22 2.61  29 2.61  28 2.61  24 2.61  30 2.61
                            18 2.75   6 2.75  10 2.75   8 2.75
  13  0.667  0.000  0.000-  26 2.61  30 2.61  32 2.61  36 2.61  29 2.61  25 2.61  35 2.61  31 2.61
                             7 2.75  15 2.75   1 2.75  17 2.75
  14  0.667  0.000  0.500-  25 2.61  29 2.61  31 2.61  35 2.61  26 2.61  30 2.61  32 2.61  36 2.61
                             8 2.75  16 2.75   2 2.75  18 2.75
  15  0.667  0.333  0.000-  26 2.61  28 2.61  32 2.61  25 2.61  34 2.61  27 2.61  31 2.61  33 2.61
                            17 2.75   9 2.75  13 2.75   3 2.75
  16  0.667  0.333  0.500-  25 2.61  27 2.61  31 2.61  26 2.61  33 2.61  32 2.61  28 2.61  34 2.61
                            18 2.75  10 2.75  14 2.75   4 2.75
  17  0.667  0.667  0.000-  28 2.61  30 2.61  34 2.61  27 2.61  36 2.61  29 2.61  33 2.61  35 2.61
                            11 2.75  15 2.75  13 2.75   5 2.75
  18  0.667  0.667  0.500-  27 2.61  29 2.61  33 2.61  28 2.61  35 2.61  34 2.61  30 2.61  36 2.61
                            12 2.75  16 2.75  14 2.75   6 2.75
  19  0.167  0.167  0.250-  10 2.61   8 2.61   4 2.61   9 2.61   2 2.61   7 2.61   3 2.61   1 2.61
                            21 2.75  25 2.75  23 2.75  31 2.75
  20  0.167  0.167  0.750-   9 2.61   7 2.61   3 2.61  10 2.61   1 2.61   4 2.61   8 2.61   2 2.61
                            22 2.75  26 2.75  24 2.75  32 2.75
  21  0.167  0.500  0.250-  12 2.61  10 2.61   6 2.61  11 2.61   4 2.61   9 2.61   5 2.61   3 2.61
                            19 2.75  23 2.75  27 2.75  33 2.75
  22  0.167  0.500  0.750-  11 2.61   9 2.61   5 2.61  12 2.61   3 2.61   6 2.61  10 2.61   4 2.61
                            20 2.75  24 2.75  28 2.75  34 2.75
  23  0.167  0.833  0.250-   8 2.61  12 2.61   2 2.61   6 2.61  11 2.61   7 2.61   5 2.61   1 2.61
                            21 2.75  29 2.75  19 2.75  35 2.75
  24  0.167  0.833  0.750-   7 2.61  11 2.61   1 2.61   5 2.61   8 2.61  12 2.61   2 2.61   6 2.61
                            22 2.75  30 2.75  20 2.75  36 2.75
  25  0.500  0.167  0.250-  16 2.61  14 2.61  10 2.61  15 2.61   8 2.61  13 2.61   9 2.61   7 2.61
                            19 2.75  27 2.75  31 2.75  29 2.75
  26  0.500  0.167  0.750-  15 2.61  13 2.61   9 2.61  16 2.61   7 2.61  10 2.61  14 2.61   8 2.61
                            20 2.75  28 2.75  32 2.75  30 2.75
  27  0.500  0.500  0.250-  18 2.61  16 2.61  12 2.61  17 2.61  10 2.61  15 2.61  11 2.61   9 2.61
                            21 2.75  25 2.75  29 2.75  33 2.75
  28  0.500  0.500  0.750-  17 2.61  15 2.61  11 2.61  18 2.61   9 2.61  12 2.61  16 2.61  10 2.61
                            22 2.75  26 2.75  30 2.75  34 2.75
  29  0.500  0.833  0.250-  14 2.61  18 2.61   8 2.61  12 2.61  17 2.61  13 2.61  11 2.61   7 2.61
                            23 2.75  27 2.75  35 2.75  25 2.75
  30  0.500  0.833  0.750-  13 2.61  17 2.61   7 2.61  11 2.61  14 2.61  18 2.61   8 2.61  12 2.61
                            24 2.75  28 2.75  36 2.75  26 2.75
  31  0.833  0.167  0.250-   4 2.61  16 2.61  14 2.61   2 2.61  15 2.61   3 2.61  13 2.61   1 2.61
                            25 2.75  33 2.75  19 2.75  35 2.75
  32  0.833  0.167  0.750-   3 2.61  15 2.61  13 2.61   1 2.61   4 2.61  16 2.61   2 2.61  14 2.61
                            26 2.75  34 2.75  20 2.75  36 2.75
  33  0.833  0.500  0.250-   6 2.61  18 2.61  16 2.61   4 2.61  17 2.61   5 2.61  15 2.61   3 2.61
                            27 2.75  31 2.75  35 2.75  21 2.75
  34  0.833  0.500  0.750-   5 2.61  17 2.61  15 2.61   3 2.61   6 2.61  18 2.61   4 2.61  16 2.61
                            28 2.75  32 2.75  36 2.75  22 2.75
  35  0.833  0.833  0.250-   2 2.61   6 2.61  14 2.61  18 2.61  13 2.61   5 2.61  17 2.61   1 2.61
                            29 2.75  33 2.75  31 2.75  23 2.75
  36  0.833  0.833  0.750-   1 2.61   5 2.61  13 2.61  17 2.61   2 2.61  14 2.61   6 2.61  18 2.61
                            30 2.75  34 2.75  32 2.75  24 2.75
 
  LATTYP: Found a simple tetragonal cell.
 ALAT       =     8.2501481662
 C/A-ratio  =     0.8428059861
  
  Lattice vectors:
  
 A1 = (   8.2501481662,   0.0000000000,   0.0000000000)
 A2 = (   0.0000000000,   8.2501481662,   0.0000000000)
 A3 = (   0.0000000000,   0.0000000000,   6.9532742610)


Analysis of symmetry for initial positions (statically):
=====================================================================
 Subroutine PRICEL returns following result:
 
  LATTYP: Found a simple tetragonal cell.
 ALAT       =     2.7500493888
 C/A-ratio  =     1.2642089792
  
  Lattice vectors:
  
 A1 = (   2.7500493888,   0.0000000000,   0.0000000000)
 A2 = (   0.0000000000,   2.7500493888,   0.0000000000)
 A3 = (   0.0000000000,   0.0000000000,   3.4766371305)
 
  18 primitive cells build up your supercell.
 

 Routine SETGRP: Setting up the symmetry group for a 
 simple tetragonal supercell.


 Subroutine GETGRP returns: Found 16 space group operations
 (whereof 16 operations were pure point group operations)
 out of a pool of 16 trial point group operations.


The static configuration has the point symmetry D_4h.


Analysis of symmetry for dynamics (positions and initial velocities):
=====================================================================
 Subroutine PRICEL returns following result:
 
  LATTYP: Found a simple tetragonal cell.
 ALAT       =     2.7500493888
 C/A-ratio  =     1.2642089792
  
  Lattice vectors:
  
 A1 = (   2.7500493888,   0.0000000000,   0.0000000000)
 A2 = (   0.0000000000,   2.7500493888,   0.0000000000)
 A3 = (   0.0000000000,   0.0000000000,   3.4766371305)
 
  18 primitive cells build up your supercell.
 

 Routine SETGRP: Setting up the symmetry group for a 
 simple tetragonal supercell.


 Subroutine GETGRP returns: Found 16 space group operations
 (whereof 16 operations were pure point group operations)
 out of a pool of 16 trial point group operations.


The dynamic configuration has the point symmetry D_4h.


Analysis of structural, dynamic, and magnetic symmetry:
=====================================================================
 Subroutine PRICEL returns:
 Original cell was already a primitive cell.
 

 Routine SETGRP: Setting up the symmetry group for a 
 simple tetragonal supercell.


 Subroutine GETGRP returns: Found  2 space group operations
 (whereof  1 operations were pure point group operations)
 out of a pool of 16 trial point group operations.


The magnetic configuration has the point symmetry C_1 .
 The point group associated with its full space group is C_1h.


 Subroutine INISYM returns: Found  2 space group operations
 (whereof  1 operations are pure point group operations),
 and found     1 'primitive' translations

 
 
 KPOINTS: automatic KPOINTS                       

Automatic generation of k-mesh.
 generate k-points for:    5    5    6
Space group operators:
 irot       det(A)        alpha          n_x          n_y          n_z        tau_x        tau_y        tau_z
    1     1.000000     0.000001     1.000000     0.000000     0.000000     0.000000     0.000000     0.000000
    2    -1.000000   179.999999     0.000000     0.000000     1.000000     0.000000     0.000000     0.500000
 
 Subroutine IBZKPT returns following result:
 ===========================================
 
 Found     52 irreducible k-points:
 
 Following reciprocal coordinates:
            Coordinates               Weight
  0.000000  0.000000  0.000000      1.000000
  0.200000  0.000000  0.000000      2.000000
  0.400000  0.000000  0.000000      2.000000
  0.000000  0.200000  0.000000      2.000000
  0.200000  0.200000  0.000000      2.000000
  0.400000  0.200000  0.000000      2.000000
 -0.400000  0.200000  0.000000      2.000000
 -0.200000  0.200000  0.000000      2.000000
  0.000000  0.400000  0.000000      2.000000
  0.200000  0.400000  0.000000      2.000000
  0.400000  0.400000  0.000000      2.000000
 -0.400000  0.400000  0.000000      2.000000
 -0.200000  0.400000  0.000000      2.000000
  0.000000  0.000000  0.166667      2.000000
  0.200000  0.000000  0.166667      4.000000
  0.400000  0.000000  0.166667      4.000000
  0.000000  0.200000  0.166667      4.000000
  0.200000  0.200000  0.166667      4.000000
  0.400000  0.200000  0.166667      4.000000
 -0.400000  0.200000  0.166667      4.000000
 -0.200000  0.200000  0.166667      4.000000
  0.000000  0.400000  0.166667      4.000000
  0.200000  0.400000  0.166667      4.000000
  0.400000  0.400000  0.166667      4.000000
 -0.400000  0.400000  0.166667      4.000000
 -0.200000  0.400000  0.166667      4.000000
  0.000000  0.000000  0.333333      2.000000
  0.200000  0.000000  0.333333      4.000000
  0.400000  0.000000  0.333333      4.000000
  0.000000  0.200000  0.333333      4.000000
  0.200000  0.200000  0.333333      4.000000
  0.400000  0.200000  0.333333      4.000000
 -0.400000  0.200000  0.333333      4.000000
 -0.200000  0.200000  0.333333      4.000000
  0.000000  0.400000  0.333333      4.000000
  0.200000  0.400000  0.333333      4.000000
  0.400000  0.400000  0.333333      4.000000
 -0.400000  0.400000  0.333333      4.000000
 -0.200000  0.400000  0.333333      4.000000
  0.000000  0.000000  0.500000      1.000000
  0.200000  0.000000  0.500000      2.000000
  0.400000  0.000000  0.500000      2.000000
  0.000000  0.200000  0.500000      2.000000
  0.200000  0.200000  0.500000      2.000000
  0.400000  0.200000  0.500000      2.000000
 -0.400000  0.200000  0.500000      2.000000
 -0.200000  0.200000  0.500000      2.000000
  0.000000  0.400000  0.500000      2.000000
  0.200000  0.400000  0.500000      2.000000
  0.400000  0.400000  0.500000      2.000000
 -0.400000  0.400000  0.500000      2.000000
 -0.200000  0.400000  0.500000      2.000000
 
 Following cartesian coordinates:
            Coordinates               Weight
  0.000000  0.000000  0.000000      1.000000
  0.024242  0.000000  0.000000      2.000000
  0.048484  0.000000  0.000000      2.000000
  0.000000  0.024242  0.000000      2.000000
  0.024242  0.024242  0.000000      2.000000
  0.048484  0.024242  0.000000      2.000000
 -0.048484  0.024242  0.000000      2.000000
 -0.024242  0.024242  0.000000      2.000000
  0.000000  0.048484  0.000000      2.000000
  0.024242  0.048484  0.000000      2.000000
  0.048484  0.048484  0.000000      2.000000
 -0.048484  0.048484  0.000000      2.000000
 -0.024242  0.048484  0.000000      2.000000
  0.000000  0.000000  0.023970      2.000000
  0.024242  0.000000  0.023970      4.000000
  0.048484  0.000000  0.023970      4.000000
  0.000000  0.024242  0.023970      4.000000
  0.024242  0.024242  0.023970      4.000000
  0.048484  0.024242  0.023970      4.000000
 -0.048484  0.024242  0.023970      4.000000
 -0.024242  0.024242  0.023970      4.000000
  0.000000  0.048484  0.023970      4.000000
  0.024242  0.048484  0.023970      4.000000
  0.048484  0.048484  0.023970      4.000000
 -0.048484  0.048484  0.023970      4.000000
 -0.024242  0.048484  0.023970      4.000000
  0.000000  0.000000  0.047939      2.000000
  0.024242  0.000000  0.047939      4.000000
  0.048484  0.000000  0.047939      4.000000
  0.000000  0.024242  0.047939      4.000000
  0.024242  0.024242  0.047939      4.000000
  0.048484  0.024242  0.047939      4.000000
 -0.048484  0.024242  0.047939      4.000000
 -0.024242  0.024242  0.047939      4.000000
  0.000000  0.048484  0.047939      4.000000
  0.024242  0.048484  0.047939      4.000000
  0.048484  0.048484  0.047939      4.000000
 -0.048484  0.048484  0.047939      4.000000
 -0.024242  0.048484  0.047939      4.000000
  0.000000  0.000000  0.071909      1.000000
  0.024242  0.000000  0.071909      2.000000
  0.048484  0.000000  0.071909      2.000000
  0.000000  0.024242  0.071909      2.000000
  0.024242  0.024242  0.071909      2.000000
  0.048484  0.024242  0.071909      2.000000
 -0.048484  0.024242  0.071909      2.000000
 -0.024242  0.024242  0.071909      2.000000
  0.000000  0.048484  0.071909      2.000000
  0.024242  0.048484  0.071909      2.000000
  0.048484  0.048484  0.071909      2.000000
 -0.048484  0.048484  0.071909      2.000000
 -0.024242  0.048484  0.071909      2.000000
 


--------------------------------------------------------------------------------------------------------




 Dimension of arrays:
   k-points           NKPTS =     52   k-points in BZ     NKDIM =     52   number of bands    NBANDS=    122
   number of dos      NEDOS =    301   number of ions     NIONS =     36
   non local maximal  LDIM  =      6   non local SUM 2l+1 LMDIM =     18
   total plane-waves  NPLWV = 139968
   max r-space proj   IRMAX =      1   max aug-charges    IRDMAX=  92271
   dimension x,y,z NGX =    54 NGY =   54 NGZ =   48
   dimension x,y,z NGXF=   108 NGYF=  108 NGZF=   96
   support grid    NGXF=   216 NGYF=  216 NGZF=  192
   ions per type =              18  18
   NGX,Y,Z   is equivalent  to a cutoff of  10.88, 10.88, 11.48 a.u.
   NGXF,Y,Z  is equivalent  to a cutoff of  21.76, 21.76, 22.95 a.u.

 SYSTEM =  AlMn_pv                                 
 POSCAR =  NewRef: 18, @ ['Mn', array([1.37502469, 

 Startparameter for this run:
   NWRITE =      2    write-flag & timer
   PREC   = accura    normal or accurate (medium, high low for compatibility)
   ISTART =      0    job   : 0-new  1-cont  2-samecut
   ICHARG =      2    charge: 1-file 2-atom 10-const
   ISPIN  =      2    spin polarized calculation?
   LNONCOLLINEAR =      F non collinear calculations
   LSORBIT =      F    spin-orbit coupling
   INIWAV =      1    electr: 0-lowe 1-rand  2-diag
   LASPH  =      F    aspherical Exc in radial PAW
   METAGGA=      F    non-selfconsistent MetaGGA calc.

 Electronic Relaxation 1
   ENCUT  =  404.8 eV  29.75 Ry    5.45 a.u.  13.53 13.53 11.41*2*pi/ulx,y,z
   ENINI  =  404.8     initial cutoff
   ENAUG  =  500.7 eV  augmentation charge cutoff
   NELM   =    100;   NELMIN=  4; NELMDL= -8     # of ELM steps 
   EDIFF  = 0.1E-06   stopping-criterion for ELM
   LREAL  =      F    real-space projection
   NLSPLINE    = F    spline interpolate recip. space projectors
   LCOMPAT=      F    compatible to vasp.4.4
   GGA_COMPAT  = T    GGA compatible to vasp.4.4-vasp.4.6
   LMAXPAW     = -100 max onsite density
   LMAXMIX     =    2 max onsite mixed and CHGCAR
   VOSKOWN=      0    Vosko Wilk Nusair interpolation
   ROPT   =    0.00000   0.00000
 Ionic relaxation
   EDIFFG = 0.1E-05   stopping-criterion for IOM
   NSW    =      0    number of steps for IOM
   NBLOCK =      1;   KBLOCK =      1    inner block; outer block 
   IBRION =     -1    ionic relax: 0-MD 1-quasi-New 2-CG
   NFREE  =      0    steps in history (QN), initial steepest desc. (CG)
   ISIF   =      2    stress and relaxation
   IWAVPR =     10    prediction:  0-non 1-charg 2-wave 3-comb
   ISYM   =      2    0-nonsym 1-usesym 2-fastsym
   LCORR  =      T    Harris-Foulkes like correction to forces

   POTIM  = 0.2000    time-step for ionic-motion
   TEIN   =    0.0    initial temperature
   TEBEG  =    0.0;   TEEND  =   0.0 temperature during run
   SMASS  =  -3.00    Nose mass-parameter (am)
   estimated Nose-frequenzy (Omega)   =  0.10E-29 period in steps =****** mass=  -0.156E-26a.u.
   SCALEE = 1.0000    scale energy and forces
   NPACO  =    256;   APACO  = 16.0  distance and # of slots for P.C.
   PSTRESS=    0.0 pullay stress

  Mass of Ions in am
   POMASS =  26.98 54.94
  Ionic Valenz
   ZVAL   =   3.00  7.00
  Atomic Wigner-Seitz radii
   RWIGS  =  -1.00 -1.00
  virtual crystal weights 
   VCA    =   1.00  1.00
   NELECT =     180.0000    total number of electrons
   NUPDOWN=      -1.0000    fix difference up-down

 DOS related values:
   EMIN   =  10.00;   EMAX   =-10.00  energy-range for DOS
   EFERMI =   0.00
   ISMEAR =     1;   SIGMA  =   0.20  broadening in eV -4-tet -1-fermi 0-gaus

 Electronic relaxation 2 (details)
   IALGO  =     58    algorithm
   LDIAG  =      T    sub-space diagonalisation (order eigenvalues)
   LSUBROT=      F    optimize rotation matrix (better conditioning)
   TURBO    =      0    0=normal 1=particle mesh
   IRESTART =      0    0=no restart 2=restart with 2 vectors
   NREBOOT  =      0    no. of reboots
   NMIN     =      0    reboot dimension
   EREF     =   0.00    reference energy to select bands
   IMIX   =      4    mixing-type and parameters
     AMIX     =   0.40;   BMIX     =  1.00
     AMIX_MAG =   1.60;   BMIX_MAG =  1.00
     AMIN     =   0.10
     WC   =   100.;   INIMIX=   1;  MIXPRE=   1;  MAXMIX= -45

 Intra band minimization:
   WEIMIN = 0.0000     energy-eigenvalue tresh-hold
   EBREAK =  0.20E-09  absolut break condition
   DEPER  =   0.30     relativ break condition  

   TIME   =   0.40     timestep for ELM

  volume/ion in A,a.u.               =      13.15        88.72
  Fermi-wavevector in a.u.,A,eV,Ry     =   1.186118  2.241439 19.141722  1.406877
  Thomas-Fermi vector in A             =   2.322298
 
 Write flags
   LWAVE        =      F    write WAVECAR
   LDOWNSAMPLE  =      F    k-point downsampling of WAVECAR
   LCHARG       =      F    write CHGCAR
   LVTOT        =      F    write LOCPOT, total local potential
   LVHAR        =      F    write LOCPOT, Hartree potential only
   LELF         =      F    write electronic localiz. function (ELF)
   LORBIT       =     10    0 simple, 1 ext, 2 COOP (PROOUT), +10 PAW based schemes


 Dipole corrections
   LMONO  =      F    monopole corrections only (constant potential shift)
   LDIPOL =      F    correct potential (dipole corrections)
   IDIPOL =      0    1-x, 2-y, 3-z, 4-all directions 
   EPSILON=  1.0000000 bulk dielectric constant

 Exchange correlation treatment:
   GGA     =    --    GGA type
   LEXCH   =     8    internal setting for exchange type
   VOSKOWN=      0    Vosko Wilk Nusair interpolation
   LHFCALC =     F    Hartree Fock is set to
   LHFONE  =     F    Hartree Fock one center treatment
   AEXX    =    0.0000 exact exchange contribution

 Linear response parameters
   LEPSILON=     F    determine dielectric tensor
   LRPA    =     F    only Hartree local field effects (RPA)
   LNABLA  =     F    use nabla operator in PAW spheres
   LVEL    =     F    velocity operator in full k-point grid
   LINTERFAST=   F  fast interpolation
   KINTER  =     0    interpolate to denser k-point grid
   CSHIFT  =0.1000    complex shift for real part using Kramers Kronig
   OMEGAMAX=  -1.0    maximum frequency
   DEG_THRESHOLD= 0.2000000E-02 threshold for treating states as degnerate
   RTIME   =   -0.100 relaxation time in fs
  (WPLASMAI=    0.000 imaginary part of plasma frequency in eV, 0.658/RTIME)
   DFIELD  = 0.0000000 0.0000000 0.0000000 field for delta impulse in time
 
 Orbital magnetization related:
   ORBITALMAG=     F  switch on orbital magnetization
   LCHIMAG   =     F  perturbation theory with respect to B field
   DQ        =  0.001000  dq finite difference perturbation B field
   LLRAUG    =     F  two centre corrections for induced B field



--------------------------------------------------------------------------------------------------------


 Static calculation
 charge density and potential will be updated during run
 spin polarized calculation
 Conjugate gradient for all bands (Freysoldt, et al. PRB 79, 241103 (2009))
 preconditioned conjugated gradient                                        
 perform sub-space diagonalisation
    before iterative eigenvector-optimisation
 modified Broyden-mixing scheme, WC =      100.0
 initial mixing is a Kerker type mixing with AMIX =  0.4000 and BMIX =      1.0000
 Hartree-type preconditioning will be used
 using additional bands           32
 reciprocal scheme for non local part
 use partial core corrections
 no Harris-corrections to forces 
 use gradient corrections 
 use of overlap-Matrix (Vanderbilt PP)
 Methfessel and Paxton  Order N= 1 SIGMA  =   0.20


--------------------------------------------------------------------------------------------------------


  energy-cutoff  :      404.80
  volume of cell :      473.27
      direct lattice vectors                 reciprocal lattice vectors
     8.250148166  0.000000000  0.000000000     0.121209944  0.000000000  0.000000000
     0.000000000  8.250148166  0.000000000     0.000000000  0.121209944  0.000000000
     0.000000000  0.000000000  6.953274261     0.000000000  0.000000000  0.143817137

  length of vectors
     8.250148166  8.250148166  6.953274261     0.121209944  0.121209944  0.143817137


 
 k-points in units of 2pi/SCALE and weight: automatic KPOINTS                       
   0.00000000  0.00000000  0.00000000       0.007
   0.02424199  0.00000000  0.00000000       0.013
   0.04848398  0.00000000  0.00000000       0.013
   0.00000000  0.02424199  0.00000000       0.013
   0.02424199  0.02424199  0.00000000       0.013
   0.04848398  0.02424199  0.00000000       0.013
  -0.04848398  0.02424199  0.00000000       0.013
  -0.02424199  0.02424199  0.00000000       0.013
   0.00000000  0.04848398  0.00000000       0.013
   0.02424199  0.04848398  0.00000000       0.013
   0.04848398  0.04848398  0.00000000       0.013
  -0.04848398  0.04848398  0.00000000       0.013
  -0.02424199  0.04848398  0.00000000       0.013
   0.00000000  0.00000000  0.02396952       0.013
   0.02424199  0.00000000  0.02396952       0.027
   0.04848398  0.00000000  0.02396952       0.027
   0.00000000  0.02424199  0.02396952       0.027
   0.02424199  0.02424199  0.02396952       0.027
   0.04848398  0.02424199  0.02396952       0.027
  -0.04848398  0.02424199  0.02396952       0.027
  -0.02424199  0.02424199  0.02396952       0.027
   0.00000000  0.04848398  0.02396952       0.027
   0.02424199  0.04848398  0.02396952       0.027
   0.04848398  0.04848398  0.02396952       0.027
  -0.04848398  0.04848398  0.02396952       0.027
  -0.02424199  0.04848398  0.02396952       0.027
   0.00000000  0.00000000  0.04793905       0.013
   0.02424199  0.00000000  0.04793905       0.027
   0.04848398  0.00000000  0.04793905       0.027
   0.00000000  0.02424199  0.04793905       0.027
   0.02424199  0.02424199  0.04793905       0.027
   0.04848398  0.02424199  0.04793905       0.027
  -0.04848398  0.02424199  0.04793905       0.027
  -0.02424199  0.02424199  0.04793905       0.027
   0.00000000  0.04848398  0.04793905       0.027
   0.02424199  0.04848398  0.04793905       0.027
   0.04848398  0.04848398  0.04793905       0.027
  -0.04848398  0.04848398  0.04793905       0.027
  -0.02424199  0.04848398  0.04793905       0.027
   0.00000000  0.00000000  0.07190857       0.007
   0.02424199  0.00000000  0.07190857       0.013
   0.04848398  0.00000000  0.07190857       0.013
   0.00000000  0.02424199  0.07190857       0.013
   0.02424199  0.02424199  0.07190857       0.013
   0.04848398  0.02424199  0.07190857       0.013
  -0.04848398  0.02424199  0.07190857       0.013
  -0.02424199  0.02424199  0.07190857       0.013
   0.00000000  0.04848398  0.07190857       0.013
   0.02424199  0.04848398  0.07190857       0.013
   0.04848398  0.04848398  0.07190857       0.013
  -0.04848398  0.04848398  0.07190857       0.013
  -0.02424199  0.04848398  0.07190857       0.013
 
 k-points in reciprocal lattice and weights: automatic KPOINTS                       
   0.00000000  0.00000000  0.00000000       0.007
   0.20000000  0.00000000  0.00000000       0.013
   0.40000000  0.00000000  0.00000000       0.013
   0.00000000  0.20000000  0.00000000       0.013
   0.20000000  0.20000000  0.00000000       0.013
   0.40000000  0.20000000  0.00000000       0.013
  -0.40000000  0.20000000  0.00000000       0.013
  -0.20000000  0.20000000  0.00000000       0.013
   0.00000000  0.40000000  0.00000000       0.013
   0.20000000  0.40000000  0.00000000       0.013
   0.40000000  0.40000000  0.00000000       0.013
  -0.40000000  0.40000000  0.00000000       0.013
  -0.20000000  0.40000000  0.00000000       0.013
   0.00000000  0.00000000  0.16666667       0.013
   0.20000000  0.00000000  0.16666667       0.027
   0.40000000  0.00000000  0.16666667       0.027
   0.00000000  0.20000000  0.16666667       0.027
   0.20000000  0.20000000  0.16666667       0.027
   0.40000000  0.20000000  0.16666667       0.027
  -0.40000000  0.20000000  0.16666667       0.027
  -0.20000000  0.20000000  0.16666667       0.027
   0.00000000  0.40000000  0.16666667       0.027
   0.20000000  0.40000000  0.16666667       0.027
   0.40000000  0.40000000  0.16666667       0.027
  -0.40000000  0.40000000  0.16666667       0.027
  -0.20000000  0.40000000  0.16666667       0.027
   0.00000000  0.00000000  0.33333333       0.013
   0.20000000  0.00000000  0.33333333       0.027
   0.40000000  0.00000000  0.33333333       0.027
   0.00000000  0.20000000  0.33333333       0.027
   0.20000000  0.20000000  0.33333333       0.027
   0.40000000  0.20000000  0.33333333       0.027
  -0.40000000  0.20000000  0.33333333       0.027
  -0.20000000  0.20000000  0.33333333       0.027
   0.00000000  0.40000000  0.33333333       0.027
   0.20000000  0.40000000  0.33333333       0.027
   0.40000000  0.40000000  0.33333333       0.027
  -0.40000000  0.40000000  0.33333333       0.027
  -0.20000000  0.40000000  0.33333333       0.027
   0.00000000  0.00000000  0.50000000       0.007
   0.20000000  0.00000000  0.50000000       0.013
   0.40000000  0.00000000  0.50000000       0.013
   0.00000000  0.20000000  0.50000000       0.013
   0.20000000  0.20000000  0.50000000       0.013
   0.40000000  0.20000000  0.50000000       0.013
  -0.40000000  0.20000000  0.50000000       0.013
  -0.20000000  0.20000000  0.50000000       0.013
   0.00000000  0.40000000  0.50000000       0.013
   0.20000000  0.40000000  0.50000000       0.013
   0.40000000  0.40000000  0.50000000       0.013
  -0.40000000  0.40000000  0.50000000       0.013
  -0.20000000  0.40000000  0.50000000       0.013
 
 position of ions in fractional coordinates (direct lattice) 
   0.00000000  0.00000000  0.00000000
   0.00000000  0.00000000  0.50000000
   0.00000000  0.33333333  0.00000000
   0.00000000  0.33333333  0.50000000
   0.00000000  0.66666667  0.00000000
   0.00000000  0.66666667  0.50000000
   0.33333333  0.00000000  0.00000000
   0.33333333  0.00000000  0.50000000
   0.33333333  0.33333333  0.00000000
   0.33333333  0.33333333  0.50000000
   0.33333333  0.66666667  0.00000000
   0.33333333  0.66666667  0.50000000
   0.66666667  0.00000000  0.00000000
   0.66666667  0.00000000  0.50000000
   0.66666667  0.33333333  0.00000000
   0.66666667  0.33333333  0.50000000
   0.66666667  0.66666667  0.00000000
   0.66666667  0.66666667  0.50000000
   0.16666667  0.16666667  0.25000000
   0.16666667  0.16666667  0.75000000
   0.16666667  0.50000000  0.25000000
   0.16666667  0.50000000  0.75000000
   0.16666667  0.83333333  0.25000000
   0.16666667  0.83333333  0.75000000
   0.50000000  0.16666667  0.25000000
   0.50000000  0.16666667  0.75000000
   0.50000000  0.50000000  0.25000000
   0.50000000  0.50000000  0.75000000
   0.50000000  0.83333333  0.25000000
   0.50000000  0.83333333  0.75000000
   0.83333333  0.16666667  0.25000000
   0.83333333  0.16666667  0.75000000
   0.83333333  0.50000000  0.25000000
   0.83333333  0.50000000  0.75000000
   0.83333333  0.83333333  0.25000000
   0.83333333  0.83333333  0.75000000
 
 position of ions in cartesian coordinates  (Angst):
   0.00000000  0.00000000  0.00000000
   0.00000000  0.00000000  3.47663713
   0.00000000  2.75004939  0.00000000
   0.00000000  2.75004939  3.47663713
   0.00000000  5.50009878  0.00000000
   0.00000000  5.50009878  3.47663713
   2.75004939  0.00000000  0.00000000
   2.75004939  0.00000000  3.47663713
   2.75004939  2.75004939  0.00000000
   2.75004939  2.75004939  3.47663713
   2.75004939  5.50009878  0.00000000
   2.75004939  5.50009878  3.47663713
   5.50009878  0.00000000  0.00000000
   5.50009878  0.00000000  3.47663713
   5.50009878  2.75004939  0.00000000
   5.50009878  2.75004939  3.47663713
   5.50009878  5.50009878  0.00000000
   5.50009878  5.50009878  3.47663713
   1.37502469  1.37502469  1.73831857
   1.37502469  1.37502469  5.21495570
   1.37502469  4.12507408  1.73831857
   1.37502469  4.12507408  5.21495570
   1.37502469  6.87512347  1.73831857
   1.37502469  6.87512347  5.21495570
   4.12507408  1.37502469  1.73831857
   4.12507408  1.37502469  5.21495570
   4.12507408  4.12507408  1.73831857
   4.12507408  4.12507408  5.21495570
   4.12507408  6.87512347  1.73831857
   4.12507408  6.87512347  5.21495570
   6.87512347  1.37502469  1.73831857
   6.87512347  1.37502469  5.21495570
   6.87512347  4.12507408  1.73831857
   6.87512347  4.12507408  5.21495570
   6.87512347  6.87512347  1.73831857
   6.87512347  6.87512347  5.21495570
 


--------------------------------------------------------------------------------------------------------


 k-point  1 :   0.0000 0.0000 0.0000  plane waves:    8799
 k-point  2 :   0.2000 0.0000 0.0000  plane waves:    8753
 k-point  3 :   0.4000 0.0000 0.0000  plane waves:    8757
 k-point  4 :   0.0000 0.2000 0.0000  plane waves:    8753
 k-point  5 :   0.2000 0.2000 0.0000  plane waves:    8767
 k-point  6 :   0.4000 0.2000 0.0000  plane waves:    8761
 k-point  7 :  -0.4000 0.2000 0.0000  plane waves:    8761
 k-point  8 :  -0.2000 0.2000 0.0000  plane waves:    8767
 k-point  9 :   0.0000 0.4000 0.0000  plane waves:    8757
 k-point 10 :   0.2000 0.4000 0.0000  plane waves:    8761
 k-point 11 :   0.4000 0.4000 0.0000  plane waves:    8731
 k-point 12 :  -0.4000 0.4000 0.0000  plane waves:    8731
 k-point 13 :  -0.2000 0.4000 0.0000  plane waves:    8761
 k-point 14 :   0.0000 0.0000 0.1667  plane waves:    8763
 k-point 15 :   0.2000 0.0000 0.1667  plane waves:    8771
 k-point 16 :   0.4000 0.0000 0.1667  plane waves:    8747
 k-point 17 :   0.0000 0.2000 0.1667  plane waves:    8771
 k-point 18 :   0.2000 0.2000 0.1667  plane waves:    8764
 k-point 19 :   0.4000 0.2000 0.1667  plane waves:    8768
 k-point 20 :  -0.4000 0.2000 0.1667  plane waves:    8768
 k-point 21 :  -0.2000 0.2000 0.1667  plane waves:    8764
 k-point 22 :   0.0000 0.4000 0.1667  plane waves:    8747
 k-point 23 :   0.2000 0.4000 0.1667  plane waves:    8768
 k-point 24 :   0.4000 0.4000 0.1667  plane waves:    8740
 k-point 25 :  -0.4000 0.4000 0.1667  plane waves:    8740
 k-point 26 :  -0.2000 0.4000 0.1667  plane waves:    8768
 k-point 27 :   0.0000 0.0000 0.3333  plane waves:    8743
 k-point 28 :   0.2000 0.0000 0.3333  plane waves:    8736
 k-point 29 :   0.4000 0.0000 0.3333  plane waves:    8753
 k-point 30 :   0.0000 0.2000 0.3333  plane waves:    8736
 k-point 31 :   0.2000 0.2000 0.3333  plane waves:    8753
 k-point 32 :   0.4000 0.2000 0.3333  plane waves:    8743
 k-point 33 :  -0.4000 0.2000 0.3333  plane waves:    8743
 k-point 34 :  -0.2000 0.2000 0.3333  plane waves:    8753
 k-point 35 :   0.0000 0.4000 0.3333  plane waves:    8753
 k-point 36 :   0.2000 0.4000 0.3333  plane waves:    8743
 k-point 37 :   0.4000 0.4000 0.3333  plane waves:    8755
 k-point 38 :  -0.4000 0.4000 0.3333  plane waves:    8755
 k-point 39 :  -0.2000 0.4000 0.3333  plane waves:    8743
 k-point 40 :   0.0000 0.0000 0.5000  plane waves:    8742
 k-point 41 :   0.2000 0.0000 0.5000  plane waves:    8756
 k-point 42 :   0.4000 0.0000 0.5000  plane waves:    8744
 k-point 43 :   0.0000 0.2000 0.5000  plane waves:    8756
 k-point 44 :   0.2000 0.2000 0.5000  plane waves:    8762
 k-point 45 :   0.4000 0.2000 0.5000  plane waves:    8732
 k-point 46 :  -0.4000 0.2000 0.5000  plane waves:    8732
 k-point 47 :  -0.2000 0.2000 0.5000  plane waves:    8762
 k-point 48 :   0.0000 0.4000 0.5000  plane waves:    8744
 k-point 49 :   0.2000 0.4000 0.5000  plane waves:    8732
 k-point 50 :   0.4000 0.4000 0.5000  plane waves:    8736
 k-point 51 :  -0.4000 0.4000 0.5000  plane waves:    8736
 k-point 52 :  -0.2000 0.4000 0.5000  plane waves:    8732

 maximum and minimum number of plane-waves per node :      2210     2164

 maximum number of plane-waves:      8799
 maximum index in each direction: 
   IXMAX=   13   IYMAX=   13   IZMAX=   11
   IXMIN=  -13   IYMIN=  -13   IZMIN=  -11


 parallel 3D FFT for wavefunctions:
    minimum data exchange during FFTs selected (reduces bandwidth)
 parallel 3D FFT for charge:
    minimum data exchange during FFTs selected (reduces bandwidth)


 total amount of memory used by VASP MPI-rank0   809947. kBytes
=======================================================================

   base      :      30000. kBytes
   nonl-proj :      34307. kBytes
   fftplans  :      21726. kBytes
   grid      :      14732. kBytes
   one-center:        279. kBytes
   wavefun   :     708903. kBytes
 
     INWAV:  cpu time    0.0000: real time    0.0000
 Broyden mixing: mesh for mixing (old mesh)
   NGX = 27   NGY = 27   NGZ = 23
  (NGX  =108   NGY  =108   NGZ  = 96)
  gives a total of  16767 points

 initial charge density was supplied:
 charge density of overlapping atoms calculated
 number of electron     180.0000000 magnetization      24.0000000
 keeping initial charge density in first step


--------------------------------------------------------------------------------------------------------


 Maximum index for augmentation-charges        11261 (set IRDMAX)


--------------------------------------------------------------------------------------------------------


 First call to EWALD:  gamma=   0.227
 Maximum number of real-space cells 3x 3x 3
 Maximum number of reciprocal cells 3x 3x 3

    FEWALD:  cpu time    0.0025: real time    0.0025


--------------------------------------- Iteration      1(   1)  ---------------------------------------


    POTLOK:  cpu time    0.2525: real time    0.2531
    SETDIJ:  cpu time    0.3747: real time    0.3761
    TRIAL :  cpu time   20.8981: real time   23.0651
    CORREC:  cpu time    0.0072: real time    0.0081
    --------------------------------------------
      LOOP:  cpu time   21.7709: real time   23.9502

 eigenvalue-minimisations  : 25376
 total energy-change (2. order) : 0.1330088E+04  (-0.6008433E+04)
 number of electron     180.0000000 magnetization      24.0000000
 augmentation part      180.0000000 magnetization      24.0000000

 Free energy of the ion-electron system (eV)
  ---------------------------------------------------
  alpha Z        PSCENC =       532.25742704
  Ewald energy   TEWEN  =     -8601.05107233
  -Hartree energ DENC   =     -1903.73857242
  -exchange      EXHF   =         0.00000000
  -V(xc)+E(xc)   XCENC  =      -664.51165884
  PAW double counting   =      8494.55058411    -7650.81563588
  entropy T*S    EENTRO =        -0.00272463
  eigenvalues    EBANDS =      2658.28380889
  atomic energy  EATOM  =      8465.11600846
  ---------------------------------------------------
  free energy    TOTEN  =      1330.08816440 eV

  energy without entropy =     1330.09088903  energy(sigma->0) =     1330.08907261


--------------------------------------------------------------------------------------------------------




--------------------------------------- Iteration      1(   2)  ---------------------------------------


    TRIAL :  cpu time   20.4218: real time   21.3377
    CORREC:  cpu time    0.0088: real time    0.0089
    --------------------------------------------
      LOOP:  cpu time   20.4319: real time   21.3499

 eigenvalue-minimisations  : 25376
 total energy-change (2. order) :-0.1414997E+04  (-0.1365811E+04)
 number of electron     180.0000000 magnetization      24.0000000
 augmentation part      180.0000000 magnetization      24.0000000

 Free energy of the ion-electron system (eV)
  ---------------------------------------------------
  alpha Z        PSCENC =       532.25742704
  Ewald energy   TEWEN  =     -8601.05107233
  -Hartree energ DENC   =     -1903.73857242
  -exchange      EXHF   =         0.00000000
  -V(xc)+E(xc)   XCENC  =      -664.51165884
  PAW double counting   =      8494.55058411    -7650.81563588
  entropy T*S    EENTRO =         0.00164372
  eigenvalues    EBANDS =      1243.28223740
  atomic energy  EATOM  =      8465.11600846
  ---------------------------------------------------
  free energy    TOTEN  =       -84.90903874 eV

  energy without entropy =      -84.91068246  energy(sigma->0) =      -84.90958665


--------------------------------------------------------------------------------------------------------




--------------------------------------- Iteration      1(   3)  ---------------------------------------


    TRIAL :  cpu time   29.4145: real time   31.0816
    CORREC:  cpu time    0.0101: real time    0.0110
    --------------------------------------------
      LOOP:  cpu time   29.4258: real time   31.0961

 eigenvalue-minimisations  : 38028
 total energy-change (2. order) :-0.1595750E+03  (-0.1383377E+03)
 number of electron     180.0000000 magnetization      24.0000000
 augmentation part      180.0000000 magnetization      24.0000000

 Free energy of the ion-electron system (eV)
  ---------------------------------------------------
  alpha Z        PSCENC =       532.25742704
  Ewald energy   TEWEN  =     -8601.05107233
  -Hartree energ DENC   =     -1903.73857242
  -exchange      EXHF   =         0.00000000
  -V(xc)+E(xc)   XCENC  =      -664.51165884
  PAW double counting   =      8494.55058411    -7650.81563588
  entropy T*S    EENTRO =         0.00819271
  eigenvalues    EBANDS =      1083.70069133
  atomic energy  EATOM  =      8465.11600846
  ---------------------------------------------------
  free energy    TOTEN  =      -244.48403582 eV

  energy without entropy =     -244.49222852  energy(sigma->0) =     -244.48676672


--------------------------------------------------------------------------------------------------------




--------------------------------------- Iteration      1(   4)  ---------------------------------------


    TRIAL :  cpu time   29.7449: real time   31.4374
    CORREC:  cpu time    0.0105: real time    0.0113
    --------------------------------------------
      LOOP:  cpu time   29.7565: real time   31.4524

 eigenvalue-minimisations  : 40952
 total energy-change (2. order) :-0.2303109E+02  (-0.2012526E+02)
 number of electron     180.0000000 magnetization      24.0000000
 augmentation part      180.0000000 magnetization      24.0000000

 Free energy of the ion-electron system (eV)
  ---------------------------------------------------
  alpha Z        PSCENC =       532.25742704
  Ewald energy   TEWEN  =     -8601.05107233
  -Hartree energ DENC   =     -1903.73857242
  -exchange      EXHF   =         0.00000000
  -V(xc)+E(xc)   XCENC  =      -664.51165884
  PAW double counting   =      8494.55058411    -7650.81563588
  entropy T*S    EENTRO =         0.01926861
  eigenvalues    EBANDS =      1060.65852176
  atomic energy  EATOM  =      8465.11600846
  ---------------------------------------------------
  free energy    TOTEN  =      -267.51512948 eV

  energy without entropy =     -267.53439809  energy(sigma->0) =     -267.52155235


--------------------------------------------------------------------------------------------------------




--------------------------------------- Iteration      1(   5)  ---------------------------------------


    TRIAL :  cpu time   30.0991: real time   31.6941
    CORREC:  cpu time    0.0107: real time    0.0115
    --------------------------------------------
      LOOP:  cpu time   30.1112: real time   31.7092

 eigenvalue-minimisations  : 41280
 total energy-change (2. order) :-0.1889755E+01  (-0.1806512E+01)
 number of electron     180.0000000 magnetization      24.0000000
 augmentation part      180.0000000 magnetization      24.0000000

 Free energy of the ion-electron system (eV)
  ---------------------------------------------------
  alpha Z        PSCENC =       532.25742704
  Ewald energy   TEWEN  =     -8601.05107233
  -Hartree energ DENC   =     -1903.73857242
  -exchange      EXHF   =         0.00000000
  -V(xc)+E(xc)   XCENC  =      -664.51165884
  PAW double counting   =      8494.55058411    -7650.81563588
  entropy T*S    EENTRO =         0.02078411
  eigenvalues    EBANDS =      1058.76725088
  atomic energy  EATOM  =      8465.11600846
  ---------------------------------------------------
  free energy    TOTEN  =      -269.40488487 eV

  energy without entropy =     -269.42566898  energy(sigma->0) =     -269.41181290


--------------------------------------------------------------------------------------------------------




--------------------------------------- Iteration      1(   6)  ---------------------------------------


    TRIAL :  cpu time   30.5159: real time   32.0054
    CORREC:  cpu time    0.0105: real time    0.0114
    --------------------------------------------
      LOOP:  cpu time   30.5273: real time   32.0204

 eigenvalue-minimisations  : 41200
 total energy-change (2. order) :-0.1353126E+00  (-0.1333831E+00)
 number of electron     180.0000000 magnetization      24.0000000
 augmentation part      180.0000000 magnetization      24.0000000

 Free energy of the ion-electron system (eV)
  ---------------------------------------------------
  alpha Z        PSCENC =       532.25742704
  Ewald energy   TEWEN  =     -8601.05107233
  -Hartree energ DENC   =     -1903.73857242
  -exchange      EXHF   =         0.00000000
  -V(xc)+E(xc)   XCENC  =      -664.51165884
  PAW double counting   =      8494.55058411    -7650.81563588
  entropy T*S    EENTRO =         0.02096037
  eigenvalues    EBANDS =      1058.63176198
  atomic energy  EATOM  =      8465.11600846
  ---------------------------------------------------
  free energy    TOTEN  =      -269.54019750 eV

  energy without entropy =     -269.56115788  energy(sigma->0) =     -269.54718429


--------------------------------------------------------------------------------------------------------




--------------------------------------- Iteration      1(   7)  ---------------------------------------


    TRIAL :  cpu time   31.4210: real time   33.1303
    CORREC:  cpu time    0.0106: real time    0.0113
    --------------------------------------------
      LOOP:  cpu time   31.4325: real time   33.1447

 eigenvalue-minimisations  : 41936
 total energy-change (2. order) :-0.1340431E-01  (-0.1332404E-01)
 number of electron     180.0000000 magnetization      24.0000000
 augmentation part      180.0000000 magnetization      24.0000000

 Free energy of the ion-electron system (eV)
  ---------------------------------------------------
  alpha Z        PSCENC =       532.25742704
  Ewald energy   TEWEN  =     -8601.05107233
  -Hartree energ DENC   =     -1903.73857242
  -exchange      EXHF   =         0.00000000
  -V(xc)+E(xc)   XCENC  =      -664.51165884
  PAW double counting   =      8494.55058411    -7650.81563588
  entropy T*S    EENTRO =         0.02097451
  eigenvalues    EBANDS =      1058.61834353
  atomic energy  EATOM  =      8465.11600846
  ---------------------------------------------------
  free energy    TOTEN  =      -269.55360181 eV

  energy without entropy =     -269.57457632  energy(sigma->0) =     -269.56059332


--------------------------------------------------------------------------------------------------------




--------------------------------------- Iteration      1(   8)  ---------------------------------------


    TRIAL :  cpu time   29.5841: real time   31.2376
    CORREC:  cpu time    0.0110: real time    0.0111
    CHARGE:  cpu time    1.1395: real time    1.1520
    --------------------------------------------
      LOOP:  cpu time   30.7363: real time   32.4043

 eigenvalue-minimisations  : 40640
 total energy-change (2. order) :-0.1035365E-02  (-0.1031916E-02)
 number of electron     179.9999997 magnetization      17.0434192
 augmentation part       42.5991939 magnetization       9.9491512

 Free energy of the ion-electron system (eV)
  ---------------------------------------------------
  alpha Z        PSCENC =       532.25742704
  Ewald energy   TEWEN  =     -8601.05107233
  -Hartree energ DENC   =     -1903.73857242
  -exchange      EXHF   =         0.00000000
  -V(xc)+E(xc)   XCENC  =      -664.51165884
  PAW double counting   =      8494.55058411    -7650.81563588
  entropy T*S    EENTRO =         0.02098509
  eigenvalues    EBANDS =      1058.61729759
  atomic energy  EATOM  =      8465.11600846
  ---------------------------------------------------
  free energy    TOTEN  =      -269.55463718 eV

  energy without entropy =     -269.57562227  energy(sigma->0) =     -269.56163221


--------------------------------------------------------------------------------------------------------




--------------------------------------- Iteration      1(   9)  ---------------------------------------


    POTLOK:  cpu time    0.2538: real time    0.2538
    SETDIJ:  cpu time    0.3377: real time    0.3378
    TRIAL :  cpu time   10.6156: real time   11.3437
    CORREC:  cpu time    3.7220: real time    3.7587
    CHARGE:  cpu time    1.2893: real time    1.9352
    --------------------------------------------
      LOOP:  cpu time   16.2198: real time   17.6312

 eigenvalue-minimisations  :     0
 total energy-change (2. order) : 0.2079216E+03  (-0.1410832E+03)
 number of electron     179.9999997 magnetization      17.9370493
 augmentation part       53.8573782 magnetization      11.6121120

 Free energy of the ion-electron system (eV)
  ---------------------------------------------------
  alpha Z        PSCENC =       532.25742704
  Ewald energy   TEWEN  =     -8601.05107233
  -Hartree energ DENC   =      -844.27421971
  -exchange      EXHF   =         0.00000000
  -V(xc)+E(xc)   XCENC  =      -694.64685262
  PAW double counting   =     12756.99928088   -11810.18715078
  entropy T*S    EENTRO =         0.01099982
  eigenvalues    EBANDS =       134.13258686
  atomic energy  EATOM  =      8465.11600846
  ---------------------------------------------------
  free energy    TOTEN  =       -61.63300712 eV

  energy without entropy =      -61.64400694  energy(sigma->0) =      -61.63667372


--------------------------------------------------------------------------------------------------------




--------------------------------------- Iteration      1(  10)  ---------------------------------------


    POTLOK:  cpu time    0.2494: real time    0.2494
    SETDIJ:  cpu time    0.3378: real time    0.3379
    TRIAL :  cpu time   10.8082: real time   11.3190
    CORREC:  cpu time    3.7857: real time    3.8038
    CHARGE:  cpu time    1.1450: real time    1.1452
    --------------------------------------------
      LOOP:  cpu time   16.3287: real time   16.8583

 eigenvalue-minimisations  :     0
 total energy-change (2. order) :-0.1444022E+03  (-0.1212950E+02)
 number of electron     179.9999996 magnetization      18.0569621
 augmentation part       57.4501544 magnetization      12.2040458

 Free energy of the ion-electron system (eV)
  ---------------------------------------------------
  alpha Z        PSCENC =       532.25742704
  Ewald energy   TEWEN  =     -8601.05107233
  -Hartree energ DENC   =     -1347.94048641
  -exchange      EXHF   =         0.00000000
  -V(xc)+E(xc)   XCENC  =      -677.46329727
  PAW double counting   =     13531.74225608   -12694.74758435
  entropy T*S    EENTRO =         0.01187265
  eigenvalues    EBANDS =       586.04050527
  atomic energy  EATOM  =      8465.11600846
  ---------------------------------------------------
  free energy    TOTEN  =      -206.03524371 eV

  energy without entropy =     -206.04711636  energy(sigma->0) =     -206.03920126


--------------------------------------------------------------------------------------------------------




--------------------------------------- Iteration      1(  11)  ---------------------------------------


    POTLOK:  cpu time    0.2577: real time    0.3149
    SETDIJ:  cpu time    0.3198: real time    0.3199
    TRIAL :  cpu time   10.5674: real time   11.2693
    CORREC:  cpu time    3.7224: real time    3.7344
    CHARGE:  cpu time    1.1559: real time    1.2138
    --------------------------------------------
      LOOP:  cpu time   16.0267: real time   16.8583

 eigenvalue-minimisations  :     0
 total energy-change (2. order) :-0.1202157E+02  (-0.8100670E+01)
 number of electron     179.9999996 magnetization      18.5299099
 augmentation part       59.0500515 magnetization      12.7604679

 Free energy of the ion-electron system (eV)
  ---------------------------------------------------
  alpha Z        PSCENC =       532.25742704
  Ewald energy   TEWEN  =     -8601.05107233
  -Hartree energ DENC   =     -1548.56351690
  -exchange      EXHF   =         0.00000000
  -V(xc)+E(xc)   XCENC  =      -670.25523166
  PAW double counting   =     14382.34264979   -13582.93178323
  entropy T*S    EENTRO =         0.01511039
  eigenvalues    EBANDS =       805.01683578
  atomic energy  EATOM  =      8465.11600846
  ---------------------------------------------------
  free energy    TOTEN  =      -218.05681041 eV

  energy without entropy =     -218.07192080  energy(sigma->0) =     -218.06184720


--------------------------------------------------------------------------------------------------------




--------------------------------------- Iteration      1(  12)  ---------------------------------------


    POTLOK:  cpu time    0.2511: real time    0.2511
    SETDIJ:  cpu time    0.3198: real time    0.3205
    TRIAL :  cpu time   10.2508: real time   11.0374
    CORREC:  cpu time    3.7475: real time    3.7511
    CHARGE:  cpu time    1.1377: real time    1.1380
    --------------------------------------------
      LOOP:  cpu time   15.7121: real time   16.5048

 eigenvalue-minimisations  :     0
 total energy-change (2. order) :-0.8131972E+01  (-0.7351199E+01)
 number of electron     179.9999996 magnetization      18.5846221
 augmentation part       58.3970120 magnetization      12.9345899

 Free energy of the ion-electron system (eV)
  ---------------------------------------------------
  alpha Z        PSCENC =       532.25742704
  Ewald energy   TEWEN  =     -8601.05107233
  -Hartree energ DENC   =     -1687.15725337
  -exchange      EXHF   =         0.00000000
  -V(xc)+E(xc)   XCENC  =      -665.72946690
  PAW double counting   =     14459.59758227   -13665.31140261
  entropy T*S    EENTRO =         0.01903250
  eigenvalues    EBANDS =       936.07428496
  atomic energy  EATOM  =      8465.11600846
  ---------------------------------------------------
  free energy    TOTEN  =      -226.18878210 eV

  energy without entropy =     -226.20781459  energy(sigma->0) =     -226.19512626


--------------------------------------------------------------------------------------------------------




--------------------------------------- Iteration      1(  13)  ---------------------------------------


    POTLOK:  cpu time    0.2491: real time    0.2492
    SETDIJ:  cpu time    0.3386: real time    0.3386
    TRIAL :  cpu time   10.5720: real time   12.0050
    CORREC:  cpu time    3.7669: real time    3.7846
    CHARGE:  cpu time    1.1396: real time    1.1517
    --------------------------------------------
      LOOP:  cpu time   16.0686: real time   17.5328

 eigenvalue-minimisations  :     0
 total energy-change (2. order) :-0.7227660E+01  (-0.1101740E+01)
 number of electron     179.9999997 magnetization      18.5704033
 augmentation part       57.5148144 magnetization      12.8242963

 Free energy of the ion-electron system (eV)
  ---------------------------------------------------
  alpha Z        PSCENC =       532.25742704
  Ewald energy   TEWEN  =     -8601.05107233
  -Hartree energ DENC   =     -1710.08328240
  -exchange      EXHF   =         0.00000000
  -V(xc)+E(xc)   XCENC  =      -665.44104928
  PAW double counting   =     14169.47747902   -13350.85954398
  entropy T*S    EENTRO =         0.02073195
  eigenvalues    EBANDS =       927.14855930
  atomic energy  EATOM  =      8465.11600846
  ---------------------------------------------------
  free energy    TOTEN  =      -233.41644168 eV

  energy without entropy =     -233.43717363  energy(sigma->0) =     -233.42335233


--------------------------------------------------------------------------------------------------------




--------------------------------------- Iteration      1(  14)  ---------------------------------------


    POTLOK:  cpu time    0.2482: real time    0.2485
    SETDIJ:  cpu time    0.3283: real time    0.3287
    TRIAL :  cpu time   10.2021: real time   10.9982
    CORREC:  cpu time    3.6758: real time    3.6781
    CHARGE:  cpu time    1.1405: real time    1.1409
    --------------------------------------------
      LOOP:  cpu time   15.6211: real time   16.4220

 eigenvalue-minimisations  :     0
 total energy-change (2. order) :-0.1086918E+01  (-0.5813069E+00)
 number of electron     179.9999997 magnetization      18.5666864
 augmentation part       57.2581404 magnetization      12.7359553

 Free energy of the ion-electron system (eV)
  ---------------------------------------------------
  alpha Z        PSCENC =       532.25742704
  Ewald energy   TEWEN  =     -8601.05107233
  -Hartree energ DENC   =     -1666.66055916
  -exchange      EXHF   =         0.00000000
  -V(xc)+E(xc)   XCENC  =      -667.05204871
  PAW double counting   =     13884.56539322   -13052.40858413
  entropy T*S    EENTRO =         0.01972395
  eigenvalues    EBANDS =       870.70934394
  atomic energy  EATOM  =      8465.11600846
  ---------------------------------------------------
  free energy    TOTEN  =      -234.50335972 eV

  energy without entropy =     -234.52308367  energy(sigma->0) =     -234.50993437


--------------------------------------------------------------------------------------------------------




--------------------------------------- Iteration      1(  15)  ---------------------------------------


    POTLOK:  cpu time    0.2486: real time    0.2486
    SETDIJ:  cpu time    0.3220: real time    0.3221
    TRIAL :  cpu time   10.2420: real time   11.0109
    CORREC:  cpu time    3.6997: real time    3.7582
    CHARGE:  cpu time    1.1370: real time    1.1372
    --------------------------------------------
      LOOP:  cpu time   15.6505: real time   16.4801

 eigenvalue-minimisations  :     0
 total energy-change (2. order) :-0.5777067E+00  (-0.6654361E+00)
 number of electron     179.9999996 magnetization      18.5315954
 augmentation part       57.6068931 magnetization      12.6814488

 Free energy of the ion-electron system (eV)
  ---------------------------------------------------
  alpha Z        PSCENC =       532.25742704
  Ewald energy   TEWEN  =     -8601.05107233
  -Hartree energ DENC   =     -1646.77430988
  -exchange      EXHF   =         0.00000000
  -V(xc)+E(xc)   XCENC  =      -667.68773676
  PAW double counting   =     13533.10069661   -12695.79330299
  entropy T*S    EENTRO =         0.02082959
  eigenvalues    EBANDS =       845.73149947
  atomic energy  EATOM  =      8465.11600846
  ---------------------------------------------------
  free energy    TOTEN  =      -235.08106642 eV

  energy without entropy =     -235.10189602  energy(sigma->0) =     -235.08800962


--------------------------------------------------------------------------------------------------------




--------------------------------------- Iteration      1(  16)  ---------------------------------------


    POTLOK:  cpu time    0.2485: real time    0.2486
    SETDIJ:  cpu time    0.3395: real time    0.3396
    TRIAL :  cpu time   10.1858: real time   10.9871
    CORREC:  cpu time    3.7009: real time    3.7324
    CHARGE:  cpu time    1.1232: real time    1.1476
    --------------------------------------------
      LOOP:  cpu time   15.6088: real time   16.4676

 eigenvalue-minimisations  :     0
 total energy-change (2. order) :-0.6624186E+00  (-0.1989832E+00)
 number of electron     179.9999996 magnetization      18.5193452
 augmentation part       58.0170781 magnetization      12.7342793

 Free energy of the ion-electron system (eV)
  ---------------------------------------------------
  alpha Z        PSCENC =       532.25742704
  Ewald energy   TEWEN  =     -8601.05107233
  -Hartree energ DENC   =     -1652.98838955
  -exchange      EXHF   =         0.00000000
  -V(xc)+E(xc)   XCENC  =      -667.26364187
  PAW double counting   =     13127.82995803   -12291.85060197
  entropy T*S    EENTRO =         0.02123977
  eigenvalues    EBANDS =       852.18599763
  atomic energy  EATOM  =      8465.11600846
  ---------------------------------------------------
  free energy    TOTEN  =      -235.74348498 eV

  energy without entropy =     -235.76472475  energy(sigma->0) =     -235.75056490


--------------------------------------------------------------------------------------------------------




--------------------------------------- Iteration      1(  17)  ---------------------------------------


    POTLOK:  cpu time    0.2486: real time    0.2486
    SETDIJ:  cpu time    0.3387: real time    0.3399
    TRIAL :  cpu time   10.8409: real time   11.6665
    CORREC:  cpu time    3.6703: real time    3.6926
    CHARGE:  cpu time    1.2141: real time    1.2147
    --------------------------------------------
      LOOP:  cpu time   16.3154: real time   17.1660

 eigenvalue-minimisations  :     0
 total energy-change (2. order) :-0.1987641E+00  (-0.1395068E+00)
 number of electron     179.9999996 magnetization      18.5096467
 augmentation part       58.2299085 magnetization      12.8306966

 Free energy of the ion-electron system (eV)
  ---------------------------------------------------
  alpha Z        PSCENC =       532.25742704
  Ewald energy   TEWEN  =     -8601.05107233
  -Hartree energ DENC   =     -1670.27169654
  -exchange      EXHF   =         0.00000000
  -V(xc)+E(xc)   XCENC  =      -666.52433130
  PAW double counting   =     13044.25897119   -12212.35060387
  entropy T*S    EENTRO =         0.02247250
  eigenvalues    EBANDS =       872.60180852
  atomic energy  EATOM  =      8465.11600846
  ---------------------------------------------------
  free energy    TOTEN  =      -235.94224907 eV

  energy without entropy =     -235.96472157  energy(sigma->0) =     -235.94973990


--------------------------------------------------------------------------------------------------------




--------------------------------------- Iteration      1(  18)  ---------------------------------------


    POTLOK:  cpu time    0.2487: real time    0.2489
    SETDIJ:  cpu time    0.3453: real time    0.3454
    TRIAL :  cpu time   10.1742: real time   10.9748
    CORREC:  cpu time    3.6757: real time    3.7293
    CHARGE:  cpu time    1.1401: real time    1.1407
    --------------------------------------------
      LOOP:  cpu time   15.5879: real time   16.4429

 eigenvalue-minimisations  :     0
 total energy-change (2. order) :-0.1393289E+00  (-0.1181270E+00)
 number of electron     179.9999996 magnetization      18.5150499
 augmentation part       58.1490907 magnetization      12.9137228

 Free energy of the ion-electron system (eV)
  ---------------------------------------------------
  alpha Z        PSCENC =       532.25742704
  Ewald energy   TEWEN  =     -8601.05107233
  -Hartree energ DENC   =     -1678.77081303
  -exchange      EXHF   =         0.00000000
  -V(xc)+E(xc)   XCENC  =      -666.03335659
  PAW double counting   =     13012.50406256   -12183.02370965
  entropy T*S    EENTRO =         0.02241275
  eigenvalues    EBANDS =       882.89740304
  atomic energy  EATOM  =      8465.11600846
  ---------------------------------------------------
  free energy    TOTEN  =      -236.08157800 eV

  energy without entropy =     -236.10399075  energy(sigma->0) =     -236.08904892


--------------------------------------------------------------------------------------------------------




--------------------------------------- Iteration      1(  19)  ---------------------------------------


    POTLOK:  cpu time    0.2489: real time    0.2490
    SETDIJ:  cpu time    0.3419: real time    0.3420
    TRIAL :  cpu time   10.2269: real time   11.0263
    CORREC:  cpu time    3.7354: real time    3.7587
    CHARGE:  cpu time    1.1383: real time    1.1387
    --------------------------------------------
      LOOP:  cpu time   15.6935: real time   16.5175

 eigenvalue-minimisations  :     0
 total energy-change (2. order) :-0.1177227E+00  (-0.4478438E-01)
 number of electron     179.9999996 magnetization      18.5111506
 augmentation part       57.9704371 magnetization      12.9393483

 Free energy of the ion-electron system (eV)
  ---------------------------------------------------
  alpha Z        PSCENC =       532.25742704
  Ewald energy   TEWEN  =     -8601.05107233
  -Hartree energ DENC   =     -1672.88816183
  -exchange      EXHF   =         0.00000000
  -V(xc)+E(xc)   XCENC  =      -666.07406502
  PAW double counting   =     12989.85600131   -12159.67041972
  entropy T*S    EENTRO =         0.02343551
  eigenvalues    EBANDS =       876.23256864
  atomic energy  EATOM  =      8465.11600846
  ---------------------------------------------------
  free energy    TOTEN  =      -236.19930070 eV

  energy without entropy =     -236.22273621  energy(sigma->0) =     -236.20711253


--------------------------------------------------------------------------------------------------------




--------------------------------------- Iteration      1(  20)  ---------------------------------------


    POTLOK:  cpu time    0.2491: real time    0.2493
    SETDIJ:  cpu time    0.3369: real time    0.3370
    TRIAL :  cpu time   11.1292: real time   11.9399
    CORREC:  cpu time    3.7075: real time    3.7267
    CHARGE:  cpu time    1.2107: real time    1.2235
    --------------------------------------------
      LOOP:  cpu time   16.6522: real time   17.4974

 eigenvalue-minimisations  :     0
 total energy-change (2. order) :-0.4451945E-01  (-0.3253768E-01)
 number of electron     179.9999996 magnetization      18.5016374
 augmentation part       57.8618316 magnetization      12.9568500

 Free energy of the ion-electron system (eV)
  ---------------------------------------------------
  alpha Z        PSCENC =       532.25742704
  Ewald energy   TEWEN  =     -8601.05107233
  -Hartree energ DENC   =     -1663.64453837
  -exchange      EXHF   =         0.00000000
  -V(xc)+E(xc)   XCENC  =      -666.32568040
  PAW double counting   =     12977.60192926   -12145.60600476
  entropy T*S    EENTRO =         0.02351982
  eigenvalues    EBANDS =       865.38467544
  atomic energy  EATOM  =      8465.11600846
  ---------------------------------------------------
  free energy    TOTEN  =      -236.24382014 eV

  energy without entropy =     -236.26733997  energy(sigma->0) =     -236.25166008


--------------------------------------------------------------------------------------------------------




--------------------------------------- Iteration      1(  21)  ---------------------------------------


    POTLOK:  cpu time    0.2487: real time    0.2487
    SETDIJ:  cpu time    0.3493: real time    0.3494
    TRIAL :  cpu time   10.2572: real time   11.0127
    CORREC:  cpu time    3.6869: real time    3.7550
    CHARGE:  cpu time    1.1400: real time    1.1415
    --------------------------------------------
      LOOP:  cpu time   15.6838: real time   16.5098

 eigenvalue-minimisations  :     0
 total energy-change (2. order) :-0.3251959E-01  (-0.3732715E-01)
 number of electron     179.9999996 magnetization      18.5232930
 augmentation part       57.8676019 magnetization      13.0060828

 Free energy of the ion-electron system (eV)
  ---------------------------------------------------
  alpha Z        PSCENC =       532.25742704
  Ewald energy   TEWEN  =     -8601.05107233
  -Hartree energ DENC   =     -1659.32220292
  -exchange      EXHF   =         0.00000000
  -V(xc)+E(xc)   XCENC  =      -666.41608049
  PAW double counting   =     12976.21029056   -12143.26906356
  entropy T*S    EENTRO =         0.02464101
  eigenvalues    EBANDS =       860.17483368
  atomic energy  EATOM  =      8465.11600846
  ---------------------------------------------------
  free energy    TOTEN  =      -236.27633974 eV

  energy without entropy =     -236.30098075  energy(sigma->0) =     -236.28455341


--------------------------------------------------------------------------------------------------------




--------------------------------------- Iteration      1(  22)  ---------------------------------------


    POTLOK:  cpu time    0.2480: real time    0.2483
    SETDIJ:  cpu time    0.3411: real time    0.3414
    TRIAL :  cpu time   10.5816: real time   11.3351
    CORREC:  cpu time    3.6705: real time    3.7219
    CHARGE:  cpu time    1.2273: real time    1.2360
    --------------------------------------------
      LOOP:  cpu time   16.0703: real time   16.8850

 eigenvalue-minimisations  :     0
 total energy-change (2. order) :-0.3721332E-01  (-0.1299465E-01)
 number of electron     179.9999996 magnetization      18.5265844
 augmentation part       57.9476693 magnetization      13.0308917

 Free energy of the ion-electron system (eV)
  ---------------------------------------------------
  alpha Z        PSCENC =       532.25742704
  Ewald energy   TEWEN  =     -8601.05107233
  -Hartree energ DENC   =     -1661.84013378
  -exchange      EXHF   =         0.00000000
  -V(xc)+E(xc)   XCENC  =      -666.23978870
  PAW double counting   =     12990.21384686   -12157.71030202
  entropy T*S    EENTRO =         0.02486045
  eigenvalues    EBANDS =       862.91582041
  atomic energy  EATOM  =      8465.11600846
  ---------------------------------------------------
  free energy    TOTEN  =      -236.31355306 eV

  energy without entropy =     -236.33841351  energy(sigma->0) =     -236.32183987


--------------------------------------------------------------------------------------------------------




--------------------------------------- Iteration      1(  23)  ---------------------------------------


    POTLOK:  cpu time    0.2492: real time    0.2492
    SETDIJ:  cpu time    0.3207: real time    0.3208
    TRIAL :  cpu time   10.8788: real time   11.0028
    CORREC:  cpu time    3.6817: real time    3.6921
    CHARGE:  cpu time    1.1852: real time    1.1854
    --------------------------------------------
[...]
  8.439  14.381  -0.000  -0.000   0.000  -0.000  -0.000   0.001
 14.381  24.507  -0.000  -0.000   0.001  -0.000  -0.001   0.002
 -0.000  -0.000   1.996  -0.000   0.000   5.749  -0.000   0.000
 -0.000  -0.000  -0.000   1.996   0.000  -0.000   5.747   0.000
  0.000   0.001   0.000   0.000   1.996   0.000   0.000   5.749
 -0.000  -0.000   5.749  -0.000   0.000  16.475  -0.000   0.000
 -0.000  -0.001  -0.000   5.747   0.000  -0.000  16.470   0.001
  0.001   0.002   0.000   0.000   5.749   0.000   0.001  16.475
 total augmentation occupancy for first ion, spin component:           1
  4.367  -1.246  -0.000   0.001  -0.001  -0.000   0.000   0.001
 -1.246   0.375   0.000   0.001   0.000   0.000  -0.000  -0.000
 -0.000   0.000   1.389   0.001  -0.002  -0.100   0.000   0.000
  0.001   0.001   0.001   1.515   0.004   0.000  -0.102  -0.000
 -0.001   0.000  -0.002   0.004   1.406   0.000  -0.000  -0.100
 -0.000   0.000  -0.100   0.000   0.000   0.007  -0.000  -0.000
  0.000  -0.000   0.000  -0.102  -0.000  -0.000   0.007   0.000
  0.001  -0.000   0.000  -0.000  -0.100  -0.000   0.000   0.008
 total augmentation occupancy for first ion, spin component:           2
 -0.108   0.032   0.000   0.051  -0.037   0.000  -0.002   0.001
  0.032  -0.009   0.001   0.006  -0.004  -0.000  -0.001   0.000
  0.000   0.001  -0.030   0.001   0.000   0.002  -0.000  -0.000
  0.051   0.006   0.001  -0.068  -0.052  -0.000   0.003   0.001
 -0.037  -0.004   0.000  -0.052  -0.044  -0.000   0.001   0.003
  0.000  -0.000   0.002  -0.000  -0.000  -0.000   0.000  -0.000
 -0.002  -0.001  -0.000   0.003   0.001   0.000  -0.000   0.000
  0.001   0.000  -0.000   0.001   0.003  -0.000   0.000  -0.000


------------------------ aborting loop because EDIFF is reached ----------------------------------------


 


 total charge     
 
# of ion       s       p       d       tot
------------------------------------------
    1        0.405   0.426   0.000   0.831
    2        0.405   0.425   0.000   0.830
    3        0.405   0.430   0.000   0.835
    4        0.405   0.429   0.000   0.834
    5        0.404   0.430   0.000   0.834
    6        0.404   0.430   0.000   0.834
    7        0.404   0.425   0.000   0.829
    8        0.404   0.425   0.000   0.829
    9        0.404   0.428   0.000   0.832
   10        0.405   0.427   0.000   0.832
   11        0.405   0.426   0.000   0.831
   12        0.404   0.426   0.000   0.830
   13        0.404   0.429   0.000   0.834
   14        0.404   0.429   0.000   0.833
   15        0.406   0.428   0.000   0.835
   16        0.407   0.429   0.000   0.836
   17        0.406   0.428   0.000   0.833
   18        0.405   0.428   0.000   0.833
   19        0.335   0.350   5.137   5.821
   20        0.336   0.357   5.121   5.814
   21        0.331   0.357   5.129   5.817
   22        0.334   0.353   5.134   5.821
   23        0.335   0.353   5.132   5.820
   24        0.333   0.352   5.138   5.824
   25        0.333   0.359   5.117   5.810
   26        0.329   0.352   5.154   5.835
   27        0.330   0.344   5.161   5.834
   28        0.334   0.363   5.119   5.815
   29        0.334   0.353   5.134   5.821
   30        0.332   0.352   5.139   5.823
   31        0.334   0.353   5.135   5.821
   32        0.334   0.359   5.116   5.809
   33        0.329   0.359   5.134   5.822
   34        0.332   0.357   5.130   5.818
   35        0.335   0.353   5.131   5.818
   36        0.332   0.357   5.125   5.814
--------------------------------------------------
tot         13.278  14.081  92.385 119.744
 


 magnetization (x)
 
# of ion       s       p       d       tot
------------------------------------------
    1       -0.009  -0.015   0.000  -0.025
    2       -0.009  -0.015   0.000  -0.024
    3       -0.006  -0.009   0.000  -0.015
    4       -0.006  -0.008   0.000  -0.014
    5       -0.007  -0.010   0.000  -0.017
    6       -0.008  -0.011   0.000  -0.018
    7       -0.015  -0.026   0.000  -0.041
    8       -0.015  -0.026   0.000  -0.041
    9       -0.011  -0.018   0.000  -0.029
   10       -0.011  -0.017   0.000  -0.028
   11       -0.015  -0.027   0.000  -0.042
   12       -0.015  -0.027   0.000  -0.043
   13       -0.008  -0.010   0.000  -0.018
   14       -0.008  -0.010   0.000  -0.018
   15       -0.006  -0.010   0.000  -0.016
   16       -0.006  -0.009   0.000  -0.015
   17       -0.010  -0.019   0.000  -0.028
   18       -0.010  -0.020   0.000  -0.029
   19        0.024   0.013   2.422   2.459
   20        0.029   0.025   2.446   2.501
   21        0.005   0.016   2.218   2.238
   22       -0.028  -0.017  -2.381  -2.426
   23        0.022   0.021   2.351   2.393
   24        0.018   0.015   2.271   2.304
   25        0.014   0.035   2.344   2.393
   26       -0.031  -0.035  -1.909  -1.974
   27        0.015  -0.008   2.254   2.261
   28        0.034   0.048   2.224   2.306
   29        0.021   0.022   2.322   2.365
   30        0.018   0.013   2.281   2.312
   31       -0.018  -0.025  -2.284  -2.328
   32        0.023   0.030   2.461   2.514
   33        0.024   0.038   2.086   2.148
   34       -0.021  -0.032  -2.218  -2.271
   35       -0.022  -0.019  -2.396  -2.436
   36        0.013   0.021   2.338   2.372
--------------------------------------------------
tot         -0.035  -0.125  18.829  18.670
 
    FORLOC:  cpu time    0.0282: real time    0.0282
    FORNL :  cpu time   14.0478: real time   14.9115
    STRESS:  cpu time   19.3761: real time   21.0435
    FORCOR:  cpu time    0.2731: real time    0.2731
    OFIELD:  cpu time    0.0013: real time    0.0013

  FORCE on cell =-STRESS in cart. coord.  units (eV):
  Direction    XX          YY          ZZ          XY          YZ          ZX
  --------------------------------------------------------------------------------------
  Alpha Z   532.25743   532.25743   532.25743
  Ewald   -2702.40749 -2702.40749 -3196.26924    -0.00000    -0.00000    -0.00000
  Hartree   721.71364   722.57130   222.62434     0.13531    -0.00000    -0.00000
  E(xc)    -760.12610  -760.28733  -759.76466    -0.07191    -0.00000    -0.00000
  Local     248.08951   245.43992  1267.53949    -0.46455     0.00000    -0.00000
  n-local  -110.87073  -111.08415  -121.36240    -0.40249    -0.27766    -0.06625
  augment   521.26288   521.93352   513.53414     0.27711     0.00001     0.00001
  Kinetic  1556.33934  1557.69287  1540.00265     0.59671     1.03245     0.00086
  Fock        0.00000     0.00000     0.00000     0.00000     0.00000     0.00000
  -------------------------------------------------------------------------------------
  Total       6.25846     6.11607    -1.43826     0.07018     0.00000     0.00000
  in kB      21.18680    20.70474    -4.86894     0.23758     0.00000     0.00000
  external pressure =       12.34 kB  Pullay stress =        0.00 kB


 VOLUME and BASIS-vectors are now :
 -----------------------------------------------------------------------------
  energy-cutoff  :      404.80
  volume of cell :      473.27
      direct lattice vectors                 reciprocal lattice vectors
     8.250148166  0.000000000  0.000000000     0.121209944  0.000000000  0.000000000
     0.000000000  8.250148166  0.000000000     0.000000000  0.121209944  0.000000000
     0.000000000  0.000000000  6.953274261     0.000000000  0.000000000  0.143817137

  length of vectors
     8.250148166  8.250148166  6.953274261     0.121209944  0.121209944  0.143817137


 FORCES acting on ions:
    Electron-Ion                     Ewald-Force                    Non-Local-Force
 -----------------------------------------------------------------------------------------------
   -.881E-01 0.115E-01 -.122E-01   -.239E-08 -.239E-08 0.411E-08   0.464E-01 0.189E-02 -.585E-01
   -.881E-01 0.115E-01 0.122E-01   -.239E-08 -.239E-08 0.411E-08   0.464E-01 0.189E-02 0.585E-01
   0.108E+00 0.147E+00 -.346E-01   -.239E-08 -.802E-09 0.411E-08   -.205E-01 -.292E-01 0.323E-01
   0.108E+00 0.147E+00 0.346E-01   -.239E-08 -.802E-09 0.411E-08   -.205E-01 -.292E-01 -.323E-01
   0.161E+00 -.170E+00 -.863E-02   -.239E-08 0.631E-08 0.411E-08   -.388E-01 0.373E-01 0.108E-01
   0.161E+00 -.170E+00 0.863E-02   -.239E-08 0.631E-08 0.411E-08   -.388E-01 0.373E-01 -.108E-01
   0.459E-01 -.239E-01 -.121E-01   -.802E-09 -.239E-08 0.411E-08   -.499E-01 -.119E-01 0.896E-03
   0.459E-01 -.239E-01 0.121E-01   -.802E-09 -.239E-08 0.411E-08   -.499E-01 -.119E-01 -.896E-03
   0.685E-01 -.130E-01 0.108E+00   -.802E-09 -.802E-09 0.411E-08   -.223E-02 -.301E-02 0.140E-01
   0.685E-01 -.130E-01 -.108E+00   -.802E-09 -.802E-09 0.411E-08   -.223E-02 -.301E-02 -.140E-01
   0.618E-01 0.441E-01 -.296E-01   -.802E-09 0.631E-08 0.411E-08   0.498E-01 0.111E-01 0.751E-01
   0.618E-01 0.441E-01 0.296E-01   -.802E-09 0.631E-08 0.411E-08   0.498E-01 0.111E-01 -.751E-01
   0.558E-01 -.146E+00 -.315E-01   0.631E-08 -.239E-08 0.411E-08   -.302E-01 0.424E-01 -.607E-01
   0.558E-01 -.146E+00 0.315E-01   0.631E-08 -.239E-08 0.411E-08   -.302E-01 0.424E-01 0.607E-01
   -.191E+00 0.263E+00 0.890E-01   0.631E-08 -.802E-09 0.411E-08   0.314E-01 -.840E-01 -.268E-01
   -.191E+00 0.263E+00 -.890E-01   0.631E-08 -.802E-09 0.411E-08   0.314E-01 -.840E-01 0.268E-01
   -.247E+00 -.880E-01 -.512E-01   0.631E-08 0.631E-08 0.411E-08   0.247E-01 0.162E-01 0.196E-01
   -.247E+00 -.880E-01 0.512E-01   0.631E-08 0.631E-08 0.411E-08   0.247E-01 0.162E-01 -.196E-01
   0.367E+00 0.394E-01 -.505E-08   -.169E-07 -.169E-07 -.411E-08   -.529E-01 0.160E-01 0.000E+00
   -.410E+00 -.413E+00 0.564E-09   -.169E-07 -.169E-07 -.411E-08   0.203E+00 0.831E-01 0.000E+00
   -.253E+00 0.107E-01 -.303E-08   -.169E-07 0.802E-09 -.411E-08   0.230E+00 0.142E-03 0.000E+00
   -.485E+00 -.981E-01 -.311E-09   -.169E-07 0.802E-09 -.411E-08   0.370E+00 0.623E-01 0.000E+00
   0.335E+00 -.178E-01 -.267E-08   -.169E-07 0.130E-07 -.411E-08   -.138E+00 -.605E-01 0.000E+00
   0.643E-01 0.380E+00 -.108E-08   -.169E-07 0.130E-07 -.411E-08   -.108E+00 -.175E+00 0.000E+00
   -.419E+00 0.266E-01 -.599E-08   0.802E-09 -.169E-07 -.411E-08   0.228E+00 -.491E-02 0.000E+00
   -.143E+00 -.772E-01 -.470E-09   0.802E-09 -.169E-07 -.411E-08   0.102E+00 0.222E+00 0.000E+00
   0.143E+00 0.641E-01 -.361E-08   0.802E-09 0.802E-09 -.411E-08   -.205E+00 -.847E-01 0.000E+00
   -.172E+00 0.611E+00 -.125E-08   0.802E-09 0.802E-09 -.411E-08   0.134E+00 -.261E+00 0.000E+00
   -.306E+00 -.102E+00 -.341E-08   0.802E-09 0.130E-07 -.411E-08   0.109E+00 0.131E+00 0.000E+00
   0.166E-01 -.497E+00 -.214E-08   0.802E-09 0.130E-07 -.411E-08   0.464E-01 0.317E+00 0.000E+00
   0.400E+00 -.613E+00 -.585E-08   0.130E-07 -.169E-07 -.411E-08   -.406E+00 0.300E+00 0.000E+00
   0.418E+00 -.541E+00 0.526E-09   0.130E-07 -.169E-07 -.411E-08   -.203E+00 0.197E+00 0.000E+00
   0.130E+00 0.101E+00 -.370E-08   0.130E-07 0.802E-09 -.411E-08   -.142E+00 -.858E-01 0.000E+00
   0.470E+00 -.607E-01 -.264E-09   0.130E-07 0.802E-09 -.411E-08   -.270E+00 -.123E-01 0.000E+00
   0.347E-01 0.631E+00 -.345E-08   0.130E-07 0.130E-07 -.411E-08   -.832E-01 -.350E+00 0.000E+00
   -.119E+00 0.498E+00 -.112E-08   0.130E-07 0.130E-07 -.411E-08   0.146E+00 -.251E+00 0.000E+00
 -----------------------------------------------------------------------------------------------
   0.198E-01 -.514E-02 -.790E-07   -.197E-14 0.275E-13 0.265E-14   -.198E-01 0.513E-02 0.000E+00
 
 
 POSITION                                       TOTAL-FORCE (eV/Angst)
 -----------------------------------------------------------------------------------
      0.00000      0.00000      0.00000        -0.047361      0.013487     -0.065179
      0.00000      0.00000      3.47664        -0.047361      0.013487      0.065179
      0.00000      2.75005      0.00000         0.088221      0.120751     -0.005601
      0.00000      2.75005      3.47664         0.088221      0.120751      0.005601
      0.00000      5.50010      0.00000         0.124720     -0.137536      0.000818
      0.00000      5.50010      3.47664         0.124720     -0.137536     -0.000818
      2.75005      0.00000      0.00000         0.001204     -0.033785     -0.012088
      2.75005      0.00000      3.47664         0.001204     -0.033785      0.012088
      2.75005      2.75005      0.00000         0.067096     -0.016379      0.118978
      2.75005      2.75005      3.47664         0.067096     -0.016379     -0.118978
      2.75005      5.50010      0.00000         0.107186      0.054079      0.037893
      2.75005      5.50010      3.47664         0.107186      0.054079     -0.037893
      5.50010      0.00000      0.00000         0.028817     -0.106294     -0.087252
      5.50010      0.00000      3.47664         0.028817     -0.106294      0.087252
      5.50010      2.75005      0.00000        -0.161664      0.186220      0.063283
      5.50010      2.75005      3.47664        -0.161664      0.186220     -0.063283
      5.50010      5.50010      0.00000        -0.223394     -0.073950     -0.034103
      5.50010      5.50010      3.47664        -0.223394     -0.073950      0.034103
      1.37502      1.37502      1.73832         0.326736      0.051565      0.000000
      1.37502      1.37502      5.21496        -0.214771     -0.338457      0.000000
      1.37502      4.12507      1.73832        -0.026428      0.011048      0.000000
      1.37502      4.12507      5.21496        -0.123254     -0.040819      0.000000
      1.37502      6.87512      1.73832         0.206801     -0.074133      0.000000
      1.37502      6.87512      5.21496        -0.040299      0.212296      0.000000
      4.12507      1.37502      1.73832        -0.194710      0.022241      0.000000
      4.12507      1.37502      5.21496        -0.042503      0.148059      0.000000
      4.12507      4.12507      1.73832        -0.058420     -0.017935      0.000000
      4.12507      4.12507      5.21496        -0.041831      0.362114      0.000000
      4.12507      6.87512      1.73832        -0.205151      0.026619      0.000000
      4.12507      6.87512      5.21496         0.059678     -0.191102      0.000000
      6.87512      1.37502      1.73832         0.001082     -0.321934      0.000000
      6.87512      1.37502      5.21496         0.217038     -0.351148      0.000000
      6.87512      4.12507      1.73832        -0.011210      0.017814      0.000000
      6.87512      4.12507      5.21496         0.201683     -0.077433      0.000000
      6.87512      6.87512      1.73832        -0.047773      0.293619      0.000000
      6.87512      6.87512      5.21496         0.023680      0.254397      0.000000
 -----------------------------------------------------------------------------------
    total drift:                               -0.000018     -0.000017     -0.000000


--------------------------------------------------------------------------------------------------------



  FREE ENERGIE OF THE ION-ELECTRON SYSTEM (eV)
  ---------------------------------------------------
  free  energy   TOTEN  =      -236.36242436 eV

  energy  without entropy=     -236.38869976  energy(sigma->0) =     -236.37118283
 


--------------------------------------------------------------------------------------------------------


    POTLOK:  cpu time    0.5834: real time    0.5835


--------------------------------------------------------------------------------------------------------


     LOOP+:  cpu time 1206.5314: real time 1274.0269
    4ORBIT:  cpu time    0.0000: real time    0.0000
 


 total charge     
 
# of ion       s       p       d       tot
------------------------------------------
    1        0.405   0.426   0.000   0.831
    2        0.405   0.425   0.000   0.830
    3        0.405   0.430   0.000   0.835
    4        0.405   0.429   0.000   0.834
    5        0.404   0.430   0.000   0.834
    6        0.404   0.430   0.000   0.834
    7        0.404   0.425   0.000   0.829
    8        0.404   0.425   0.000   0.829
    9        0.404   0.428   0.000   0.832
   10        0.405   0.427   0.000   0.832
   11        0.405   0.426   0.000   0.831
   12        0.404   0.426   0.000   0.830
   13        0.404   0.429   0.000   0.834
   14        0.404   0.429   0.000   0.833
   15        0.406   0.428   0.000   0.835
   16        0.407   0.429   0.000   0.836
   17        0.406   0.428   0.000   0.833
   18        0.405   0.428   0.000   0.833
   19        0.335   0.350   5.137   5.821
   20        0.336   0.357   5.121   5.814
   21        0.331   0.357   5.129   5.817
   22        0.334   0.353   5.134   5.821
   23        0.335   0.353   5.132   5.820
   24        0.333   0.352   5.138   5.824
   25        0.333   0.359   5.117   5.810
   26        0.329   0.352   5.154   5.835
   27        0.330   0.344   5.161   5.834
   28        0.334   0.363   5.119   5.815
   29        0.334   0.353   5.134   5.821
   30        0.332   0.352   5.139   5.823
   31        0.334   0.353   5.135   5.821
   32        0.334   0.359   5.116   5.809
   33        0.329   0.359   5.134   5.822
   34        0.332   0.357   5.130   5.818
   35        0.335   0.353   5.131   5.818
   36        0.332   0.357   5.125   5.814
--------------------------------------------------
tot         13.278  14.081  92.385 119.744
 


 magnetization (x)
 
# of ion       s       p       d       tot
------------------------------------------
    1       -0.009  -0.015   0.000  -0.025
    2       -0.009  -0.015   0.000  -0.024
    3       -0.006  -0.009   0.000  -0.015
    4       -0.006  -0.008   0.000  -0.014
    5       -0.007  -0.010   0.000  -0.017
    6       -0.008  -0.011   0.000  -0.018
    7       -0.015  -0.026   0.000  -0.041
    8       -0.015  -0.026   0.000  -0.041
    9       -0.011  -0.018   0.000  -0.029
   10       -0.011  -0.017   0.000  -0.028
   11       -0.015  -0.027   0.000  -0.042
   12       -0.015  -0.027   0.000  -0.043
   13       -0.008  -0.010   0.000  -0.018
   14       -0.008  -0.010   0.000  -0.018
   15       -0.006  -0.010   0.000  -0.016
   16       -0.006  -0.009   0.000  -0.015
   17       -0.010  -0.019   0.000  -0.028
   18       -0.010  -0.020   0.000  -0.029
   19        0.024   0.013   2.422   2.459
   20        0.029   0.025   2.446   2.501
   21        0.005   0.016   2.218   2.238
   22       -0.028  -0.017  -2.381  -2.426
   23        0.022   0.021   2.351   2.393
   24        0.018   0.015   2.271   2.304
   25        0.014   0.035   2.344   2.393
   26       -0.031  -0.035  -1.909  -1.974
   27        0.015  -0.008   2.254   2.261
   28        0.034   0.048   2.224   2.306
   29        0.021   0.022   2.322   2.365
   30        0.018   0.013   2.281   2.312
   31       -0.018  -0.025  -2.284  -2.328
   32        0.023   0.030   2.461   2.514
   33        0.024   0.038   2.086   2.148
   34       -0.021  -0.032  -2.218  -2.271
   35       -0.022  -0.019  -2.396  -2.436
   36        0.013   0.021   2.338   2.372
--------------------------------------------------
tot         -0.035  -0.125  18.829  18.670
 

 total amount of memory used by VASP MPI-rank0   809947. kBytes
=======================================================================

   base      :      30000. kBytes
   nonl-proj :      34307. kBytes
   fftplans  :      21726. kBytes
   grid      :      14732. kBytes
   one-center:        279. kBytes
   wavefun   :     708903. kBytes
 
  
  
 General timing and accounting informations for this job:
 ========================================================
  
                  Total CPU time used (sec):     1234.833
                            User time (sec):     1212.422
                          System time (sec):       22.410
                         Elapsed time (sec):     1306.423
  
                   Maximum memory used (kb):      956796.
                   Average memory used (kb):           0.
  
                          Minor page faults:       521980
                          Major page faults:           16
                 Voluntary context switches:         4071
