   36   36    1    2
  0.1314651E+02  0.8250148E-09  0.8250148E-09  0.6953274E-09  0.2000000E-15
  1.000000000000000E-004
  CAR 
 AlMn_pv                                 
    180     52    110
 
  0.0000000E+00  0.0000000E+00  0.0000000E+00  0.6666667E-02
    1       -2.522602     -2.517525   1.000000   1.000000
    2       -0.374448     -0.359976   1.000000   1.000000
    3       -0.356679     -0.345253   1.000000   1.000000
    4       -0.330698     -0.324642   1.000000   1.000000
    5       -0.294869     -0.306910   1.000000   1.000000
    6       -0.122616     -0.119122   1.000000   1.000000
    7        1.359712      1.356648   1.000000   1.000000
    8        1.384400      1.387167   1.000000   1.000000
    9        1.384526      1.392320   1.000000   1.000000
   10        1.397129      1.403163   1.000000   1.000000
   11        1.429668      1.450800   1.000000   1.000000
   12        1.557636      1.554976   1.000000   1.000000
   13        1.574577      1.579159   1.000000   1.000000
   14        1.597817      1.621826   1.000000   1.000000
   15        1.623106      1.624372   1.000000   1.000000
   16        2.743517      2.758837   1.000000   1.000000
   17        2.764065      2.765144   1.000000   1.000000
   18        2.810258      2.821412   1.000000   1.000000
   19        2.817994      2.831576   1.000000   1.000000
   20        3.471464      3.495591   1.000000   1.000000
   21        3.531480      3.537491   1.000000   1.000000
   22        3.544130      3.553486   1.000000   1.000000
   23        3.639923      3.631091   1.000000   1.000000
   24        4.103433      4.118490   1.000000   1.000000
   25        4.180271      4.242833   1.000000   1.000000
   26        4.350808      4.312464   1.000000   1.000000
   27        4.506221      4.521627   1.000000   1.000000
   28        4.536394      4.557939   1.000000   1.000000
   29        4.598425      4.617696   1.000000   1.000000
   30        4.616865      4.624530   1.000000   1.000000
   31        4.656898      4.676512   1.000000   1.000000
   32        4.736051      4.727546   1.000000   1.000000
   33        4.739424      4.744828   1.000000   1.000000
   34        4.792480      4.778614   1.000000   1.000000
   35        4.867617      4.901016   1.000000   1.000000
   36        4.888712      4.911329   1.000000   1.000000
   37        4.889112      4.935107   1.000000   1.000000
   38        4.928406      4.995898   1.000000   1.000000
   39        5.014546      5.071140   1.000000   1.000000
   40        5.127118      5.165044   1.000000   1.000000
   41        5.225396      5.315473   1.000000   1.000000
   42        5.315930      5.345931   1.000000   1.000000
   43        5.374439      5.384396   1.000000   1.000000
   44        5.389962      5.407612   1.000000   1.000000
   45        5.415441      5.439648   1.000000   1.000000
   46        5.467384      5.482854   1.000000   1.000000
   47        5.533879      5.524622   1.000000   1.000000
   48        5.551021      5.543113   1.000000   1.000000
   49        5.581140      5.600604   1.000000   1.000000
   50        5.605686      5.646361   1.000000   1.000000
   51        5.632738      5.663050   1.000000   1.000000
   52        5.699252      5.705346   1.000000   1.000000
   53        5.797959      5.831989   1.000000   1.000000
   54        5.810623      5.859589   1.000000   1.000000
   55        5.854359      5.898400   1.000000   1.000000
   56        5.859861      5.912732   1.000000   1.000000
   57        5.957911      5.934561   1.000000   1.000000
   58        5.985704      6.023015   1.000000   1.000000
   59        6.158255      6.125625   1.000000   1.000000
   60        6.174296      6.187764   1.000000   1.000000
   61        6.297187      6.251661   1.000000   1.000000
   62        6.347354      6.352742   1.000000   1.000000
   63        6.367456      6.386023   1.000000   1.000000
   64        6.371364      6.415199   1.000000   1.000000
   65        6.402723      6.443915   1.000000   1.000000
   66        6.493196      6.479592   1.000000   1.000000
   67        6.525629      6.488563   1.000000   1.000000
   68        6.555963      6.555838   1.000000   1.000000
   69        6.606907      6.586668   1.000000   1.000000
   70        6.628353      6.604618   1.000000   1.000000
   71        6.659519      6.650937   1.000000   1.000000
   72        6.664376      6.680463   1.000000   1.000000
   73        6.699029      6.752843   1.000000   1.000000
   74        6.785100      6.792485   1.000000   1.000000
   75        6.801557      6.808548   1.000000   1.000000
   76        6.830825      6.882031   1.000000   1.000000
   77        6.895058      6.903041   1.000000   1.000000
   78        6.949768      6.951774   1.000000   1.000000
   79        7.054995      7.240490   1.000004   1.000738
   80        7.228799      7.248810   1.000559   1.000895
   81        7.259127      7.272113   1.001131   1.001507
   82        7.275726      7.291849   1.001629   1.002284
   83        7.330466      7.294329   1.004808   1.002403
   84        7.382100      7.386731   1.011212   1.011992
   85        7.389733      7.484143   1.012515   1.032486
   86        7.460976      7.489094   1.027840   1.033280
   87        7.506233      7.566227   1.035168   1.021655
   88        7.611537      7.602224   0.973964   0.987356
   89        7.615251      7.622852   0.968085   0.954996
   90        7.674253      7.696320   0.828893   0.755421
   91        7.757822      7.736214   0.509882   0.600506
   92        7.961654      7.993196  -0.025933  -0.034872
   93        8.033912      8.038077  -0.032846  -0.032146
   94        8.089491      8.090760  -0.020928  -0.020634
   95        8.097095      8.091041  -0.019204  -0.020561
   96        8.145989      8.142561  -0.009967  -0.010497
   97        8.164365      8.188781  -0.007456  -0.004871
   98        8.208935      8.259694  -0.003360  -0.001168
   99        8.282577      8.293657  -0.000690  -0.000527
  100        8.373620      8.363109  -0.000061  -0.000086
  101        8.382116      8.420641  -0.000043  -0.000016
  102        8.443930      8.471926  -0.000003  -0.000002
  103        8.548611      8.519347  -0.000000  -0.000000
  104        8.570512      8.557126  -0.000000  -0.000000
  105        8.658237      8.663670  -0.000000  -0.000000
  106        8.661642      8.694233  -0.000000  -0.000000
  107        8.752679      8.756219  -0.000000  -0.000000
  108        8.802361      8.779352  -0.000000  -0.000000
  109        8.822646      8.841530  -0.000000  -0.000000
  110        8.890036      8.867979  -0.000000  -0.000000
 
  0.2000000E+00  0.0000000E+00  0.0000000E+00  0.1333333E-01
    1       -2.432178     -2.427073   1.000000   1.000000
    2       -1.105720     -1.100375   1.000000   1.000000
    3       -0.267319     -0.263247   1.000000   1.000000
    4       -0.246717     -0.240269   1.000000   1.000000
    5       -0.056939     -0.053380   1.000000   1.000000
    6        0.566214      0.569580   1.000000   1.000000
    7        0.883366      0.888093   1.000000   1.000000
    8        0.921250      0.927323   1.000000   1.000000
    9        0.940341      0.947061   1.000000   1.000000
   10        1.446702      1.454783   1.000000   1.000000
   11        1.463220      1.467387   1.000000   1.000000
   12        1.482477      1.489577   1.000000   1.000000
   13        1.925683      1.937661   1.000000   1.000000
   14        2.306558      2.315142   1.000000   1.000000
   15        2.318898      2.328726   1.000000   1.000000
   16        2.326498      2.333474   1.000000   1.000000
   17        2.336848      2.344634   1.000000   1.000000
   18        2.827413      2.836155   1.000000   1.000000
   19        3.241862      3.251176   1.000000   1.000000
   20        3.253702      3.272971   1.000000   1.000000
   21        3.603801      3.608453   1.000000   1.000000
   22        3.613074      3.623529   1.000000   1.000000
   23        3.736971      3.744552   1.000000   1.000000
   24        4.077906      4.089939   1.000000   1.000000
   25        4.145281      4.184268   1.000000   1.000000
   26        4.309522      4.301973   1.000000   1.000000
   27        4.315988      4.323557   1.000000   1.000000
   28        4.474209      4.501436   1.000000   1.000000
   29        4.534133      4.545469   1.000000   1.000000
   30        4.579955      4.602116   1.000000   1.000000
   31        4.626374      4.629577   1.000000   1.000000
   32        4.629342      4.639229   1.000000   1.000000
   33        4.691295      4.690603   1.000000   1.000000
   34        4.708380      4.749218   1.000000   1.000000
   35        4.812729      4.837074   1.000000   1.000000
   36        4.908309      4.913159   1.000000   1.000000
   37        4.994755      5.038533   1.000000   1.000000
   38        5.008061      5.047083   1.000000   1.000000
   39        5.071749      5.109792   1.000000   1.000000
   40        5.075213      5.123029   1.000000   1.000000
   41        5.112777      5.150113   1.000000   1.000000
   42        5.312873      5.327511   1.000000   1.000000
   43        5.340256      5.364941   1.000000   1.000000
   44        5.414057      5.395851   1.000000   1.000000
   45        5.415107      5.447348   1.000000   1.000000
   46        5.491236      5.459381   1.000000   1.000000
   47        5.496680      5.522381   1.000000   1.000000
   48        5.558225      5.607048   1.000000   1.000000
   49        5.568913      5.608727   1.000000   1.000000
   50        5.646113      5.666495   1.000000   1.000000
   51        5.680222      5.698921   1.000000   1.000000
   52        5.730010      5.761046   1.000000   1.000000
   53        5.816571      5.863499   1.000000   1.000000
   54        5.832793      5.870633   1.000000   1.000000
   55        5.886497      5.905961   1.000000   1.000000
   56        5.904652      5.912012   1.000000   1.000000
   57        5.950361      5.968010   1.000000   1.000000
   58        5.987818      6.052819   1.000000   1.000000
   59        6.142734      6.116044   1.000000   1.000000
   60        6.175253      6.231025   1.000000   1.000000
   61        6.288744      6.284898   1.000000   1.000000
   62        6.316512      6.319730   1.000000   1.000000
   63        6.352628      6.361644   1.000000   1.000000
   64        6.375522      6.412578   1.000000   1.000000
   65        6.397121      6.439058   1.000000   1.000000
   66        6.446529      6.441088   1.000000   1.000000
   67        6.460300      6.475863   1.000000   1.000000
   68        6.522227      6.495482   1.000000   1.000000
   69        6.565541      6.530052   1.000000   1.000000
   70        6.581926      6.585646   1.000000   1.000000
   71        6.633281      6.650509   1.000000   1.000000
   72        6.670703      6.658319   1.000000   1.000000
   73        6.728456      6.750152   1.000000   1.000000
   74        6.745425      6.778187   1.000000   1.000000
   75        6.820708      6.826259   1.000000   1.000000
   76        6.870031      6.876639   1.000000   1.000000
   77        6.876179      6.895200   1.000000   1.000000
   78        6.902981      6.942304   1.000000   1.000000
   79        7.079927      7.042793   1.000008   1.000002
   80        7.143983      7.186609   1.000059   1.000192
   81        7.198785      7.189866   1.000264   1.000209
   82        7.221560      7.243058   1.000468   1.000784
   83        7.292102      7.315382   1.002295   1.003635
   84        7.390618      7.477556   1.012668   1.031292
   85        7.426628      7.481442   1.019983   1.032014
   86        7.507949      7.547313   1.035266   1.030569
   87        7.528310      7.551094   1.034737   1.029197
   88        7.611669      7.590777   0.973772   1.001083
   89        7.660644      7.704932   0.868679   0.723934
   90        7.670128      7.709238   0.841433   0.707926
   91        7.827689      7.825108   0.231489   0.240494
   92        7.970372      7.958649  -0.029671  -0.024344
   93        7.971971      7.995532  -0.030230  -0.035081
   94        8.048263      8.030175  -0.030190  -0.033418
   95        8.079877      8.088204  -0.023124  -0.021212
   96        8.114451      8.134964  -0.015534  -0.011743
   97        8.160548      8.163532  -0.007933  -0.007560
   98        8.227224      8.275669  -0.002338  -0.000812
   99        8.275086      8.298791  -0.000823  -0.000468
  100        8.294743      8.384025  -0.000515  -0.000047
  101        8.374100      8.385494  -0.000063  -0.000045
  102        8.418706      8.432032  -0.000016  -0.000011
  103        8.519420      8.490039  -0.000000  -0.000002
  104        8.578226      8.546690  -0.000000  -0.000000
  105        8.653116      8.660065  -0.000000  -0.000000
  106        8.676527      8.663103  -0.000000  -0.000000
  107        8.724032      8.724338  -0.000000  -0.000000
  108        8.900218      8.909851  -0.000000  -0.000000
  109        8.943741      8.938261  -0.000000  -0.000000
  110        8.995657      8.952015  -0.000000  -0.000000
 
  0.4000000E+00  0.0000000E+00  0.0000000E+00  0.1333333E-01
    1       -2.163104     -2.157815   1.000000   1.000000
    2       -1.715592     -1.710688   1.000000   1.000000
    3       -0.022819     -0.018636   1.000000   1.000000
    4       -0.002662      0.004313   1.000000   1.000000
    5        0.137134      0.140858   1.000000   1.000000
    6        0.381697      0.385789   1.000000   1.000000
    7        0.402099      0.407847   1.000000   1.000000
    8        0.458606      0.462905   1.000000   1.000000
    9        1.578752      1.585017   1.000000   1.000000
   10        1.627202      1.635393   1.000000   1.000000
   11        1.646011      1.651498   1.000000   1.000000
   12        1.758101      1.765029   1.000000   1.000000
   13        1.936278      1.945014   1.000000   1.000000
   14        1.948699      1.954361   1.000000   1.000000
   15        2.228002      2.235754   1.000000   1.000000
   16        2.339133      2.351188   1.000000   1.000000
   17        2.677563      2.682777   1.000000   1.000000
   18        2.967400      2.983174   1.000000   1.000000
   19        2.975660      2.988321   1.000000   1.000000
   20        3.605301      3.618438   1.000000   1.000000
   21        3.631481      3.658798   1.000000   1.000000
   22        3.772736      3.777451   1.000000   1.000000
   23        3.783754      3.790801   1.000000   1.000000
   24        3.984014      3.994189   1.000000   1.000000
   25        4.023491      4.035669   1.000000   1.000000
   26        4.137459      4.148510   1.000000   1.000000
   27        4.159697      4.166396   1.000000   1.000000
   28        4.340537      4.377642   1.000000   1.000000
   29        4.364610      4.386612   1.000000   1.000000
   30        4.406254      4.422188   1.000000   1.000000
   31        4.431739      4.459559   1.000000   1.000000
   32        4.540577      4.546480   1.000000   1.000000
   33        4.717786      4.725313   1.000000   1.000000
   34        4.764375      4.754437   1.000000   1.000000
   35        4.837243      4.846921   1.000000   1.000000
   36        4.908616      4.906940   1.000000   1.000000
   37        4.963276      5.025193   1.000000   1.000000
   38        5.046078      5.084066   1.000000   1.000000
   39        5.114447      5.134664   1.000000   1.000000
   40        5.195413      5.232929   1.000000   1.000000
   41        5.203958      5.250971   1.000000   1.000000
   42        5.277568      5.308752   1.000000   1.000000
   43        5.286436      5.311650   1.000000   1.000000
   44        5.411121      5.405120   1.000000   1.000000
   45        5.456165      5.421510   1.000000   1.000000
   46        5.474830      5.458104   1.000000   1.000000
   47        5.510665      5.528192   1.000000   1.000000
   48        5.536053      5.566638   1.000000   1.000000
   49        5.575681      5.618105   1.000000   1.000000
   50        5.665181      5.708624   1.000000   1.000000
   51        5.696055      5.725984   1.000000   1.000000
   52        5.748080      5.796626   1.000000   1.000000
   53        5.826975      5.805415   1.000000   1.000000
   54        5.865865      5.855028   1.000000   1.000000
   55        5.887095      5.916195   1.000000   1.000000
   56        5.894123      5.920058   1.000000   1.000000
   57        5.963483      6.008247   1.000000   1.000000
   58        6.048030      6.088077   1.000000   1.000000
   59        6.077698      6.198059   1.000000   1.000000
   60        6.143966      6.201992   1.000000   1.000000
   61        6.220408      6.228850   1.000000   1.000000
   62        6.250447      6.266038   1.000000   1.000000
   63        6.321479      6.295961   1.000000   1.000000
   64        6.322448      6.328532   1.000000   1.000000
   65        6.355448      6.409916   1.000000   1.000000
   66        6.398922      6.444357   1.000000   1.000000
   67        6.405629      6.473485   1.000000   1.000000
   68        6.439949      6.478437   1.000000   1.000000
   69        6.473179      6.523584   1.000000   1.000000
   70        6.646932      6.534585   1.000000   1.000000
   71        6.660875      6.569494   1.000000   1.000000
   72        6.700145      6.688714   1.000000   1.000000
   73        6.701023      6.719826   1.000000   1.000000
   74        6.762105      6.791830   1.000000   1.000000
   75        6.812025      6.803931   1.000000   1.000000
   76        6.862460      6.892612   1.000000   1.000000
   77        6.890355      6.929176   1.000000   1.000000
   78        6.964612      6.976272   1.000000   1.000000
   79        7.036267      6.993838   1.000002   1.000000
   80        7.047257      7.065082   1.000003   1.000005
   81        7.094914      7.095036   1.000013   1.000013
   82        7.213063      7.161731   1.000379   1.000098
   83        7.241982      7.344004   1.000765   1.006108
   84        7.406564      7.452908   1.015694   1.026013
   85        7.510094      7.529038   1.035362   1.034644
   86        7.533597      7.549334   1.033981   1.029867
   87        7.618233      7.602981   0.963121   0.986357
   88        7.651817      7.630105   0.892071   0.941288
   89        7.652156      7.716202   0.891280   0.681103
   90        7.722165      7.774026   0.657552   0.441400
   91        7.776463      7.778950   0.431257   0.420991
   92        7.815479      7.893549   0.275611   0.052152
   93        7.977495      7.994750  -0.031945  -0.035015
   94        7.986076      7.995328  -0.033876  -0.035067
   95        8.060906      8.039892  -0.027465  -0.031816
   96        8.103770      8.130525  -0.017751  -0.012511
   97        8.191257      8.175085  -0.004677  -0.006229
   98        8.233787      8.240365  -0.002042  -0.001781
   99        8.247607      8.287012  -0.001524  -0.000620
  100        8.259491      8.302285  -0.001174  -0.000429
  101        8.317965      8.370575  -0.000289  -0.000069
  102        8.407423      8.414790  -0.000023  -0.000019
  103        8.414419      8.453247  -0.000019  -0.000005
  104        8.466930      8.461992  -0.000003  -0.000004
  105        8.560796      8.608359  -0.000000  -0.000000
  106        8.689992      8.657084  -0.000000  -0.000000
  107        8.729034      8.697722  -0.000000  -0.000000
  108        8.980365      8.978994  -0.000000  -0.000000
  109        9.072419      9.030331  -0.000000  -0.000000
  110        9.107323      9.057027  -0.000000  -0.000000
 
  0.0000000E+00  0.2000000E+00  0.0000000E+00  0.1333333E-01
    1       -2.432074     -2.426989   1.000000   1.000000
    2       -1.105977     -1.100830   1.000000   1.000000
    3       -0.290583     -0.270414   1.000000   1.000000
    4       -0.221448     -0.232126   1.000000   1.000000
    5       -0.056751     -0.053195   1.000000   1.000000
    6        0.563779      0.569460   1.000000   1.000000
    7        0.883902      0.888435   1.000000   1.000000
    8        0.907455      0.924625   1.000000   1.000000
    9        0.955130      0.949421   1.000000   1.000000
   10        1.425687      1.420617   1.000000   1.000000
   11        1.483177      1.490274   1.000000   1.000000
   12        1.484785      1.505446   1.000000   1.000000
   13        1.923951      1.931786   1.000000   1.000000
   14        2.296070      2.294062   1.000000   1.000000
   15        2.315866      2.313864   1.000000   1.000000
   16        2.328158      2.348572   1.000000   1.000000
   17        2.344609      2.363929   1.000000   1.000000
   18        2.824204      2.832250   1.000000   1.000000
   19        3.200561      3.224052   1.000000   1.000000
   20        3.301723      3.303052   1.000000   1.000000
   21        3.549150      3.569786   1.000000   1.000000
   22        3.679049      3.675672   1.000000   1.000000
   23        3.742824      3.747265   1.000000   1.000000
   24        4.085891      4.098764   1.000000   1.000000
   25        4.156913      4.203363   1.000000   1.000000
   26        4.252635      4.253145   1.000000   1.000000
   27        4.308645      4.319195   1.000000   1.000000
   28        4.520241      4.503824   1.000000   1.000000
   29        4.551953      4.565265   1.000000   1.000000
   30        4.571661      4.584260   1.000000   1.000000
   31        4.599599      4.604121   1.000000   1.000000
   32        4.659841      4.650554   1.000000   1.000000
   33        4.672114      4.710869   1.000000   1.000000
   34        4.698804      4.760927   1.000000   1.000000
   35        4.903094      4.930926   1.000000   1.000000
   36        4.962605      4.934298   1.000000   1.000000
   37        4.970698      4.985536   1.000000   1.000000
   38        5.001103      5.057146   1.000000   1.000000
   39        5.022942      5.067716   1.000000   1.000000
   40        5.065936      5.118037   1.000000   1.000000
   41        5.136991      5.153798   1.000000   1.000000
   42        5.223904      5.308926   1.000000   1.000000
   43        5.318658      5.321307   1.000000   1.000000
   44        5.330444      5.377041   1.000000   1.000000
   45        5.430401      5.450264   1.000000   1.000000
   46        5.493691      5.489725   1.000000   1.000000
   47        5.499452      5.541322   1.000000   1.000000
   48        5.540450      5.542106   1.000000   1.000000
   49        5.571664      5.590002   1.000000   1.000000
   50        5.663906      5.695410   1.000000   1.000000
   51        5.727734      5.759352   1.000000   1.000000
   52        5.768581      5.807705   1.000000   1.000000
   53        5.788454      5.813206   1.000000   1.000000
   54        5.828317      5.861099   1.000000   1.000000
   55        5.844610      5.872522   1.000000   1.000000
   56        5.929803      5.965736   1.000000   1.000000
   57        5.969540      5.973279   1.000000   1.000000
   58        6.046240      6.065450   1.000000   1.000000
   59        6.123325      6.069478   1.000000   1.000000
   60        6.173959      6.205353   1.000000   1.000000
   61        6.290653      6.258633   1.000000   1.000000
   62        6.308708      6.307475   1.000000   1.000000
   63        6.353623      6.354168   1.000000   1.000000
   64        6.389687      6.402692   1.000000   1.000000
   65        6.417600      6.406271   1.000000   1.000000
   66        6.438967      6.445140   1.000000   1.000000
   67        6.472396      6.484486   1.000000   1.000000
   68        6.476048      6.499796   1.000000   1.000000
   69        6.528768      6.521114   1.000000   1.000000
   70        6.612029      6.612832   1.000000   1.000000
   71        6.615265      6.667836   1.000000   1.000000
   72        6.659757      6.731010   1.000000   1.000000
   73        6.727716      6.754493   1.000000   1.000000
   74        6.764548      6.783608   1.000000   1.000000
   75        6.819942      6.814559   1.000000   1.000000
   76        6.836521      6.841906   1.000000   1.000000
   77        6.875316      6.907258   1.000000   1.000000
   78        6.913484      6.929832   1.000000   1.000000
   79        7.038333      6.998062   1.000002   1.000000
   80        7.115404      7.096566   1.000025   1.000014
   81        7.174104      7.218000   1.000137   1.000429
   82        7.245430      7.333522   1.000828   1.005079
   83        7.368972      7.336408   1.009198   1.005349
   84        7.409384      7.442844   1.016267   1.023704
   85        7.488029      7.511307   1.033114   1.035402
   86        7.501073      7.574578   1.034763   1.015936
   87        7.526364      7.575882   1.034940   1.014922
   88        7.602736      7.605975   0.986623   0.982213
   89        7.646064      7.665120   0.906269   0.856058
   90        7.673948      7.706636   0.829831   0.717633
   91        7.745130      7.783758   0.563332   0.400794
   92        7.979333      8.003309  -0.032455  -0.035446
   93        8.036499      8.063680  -0.032409  -0.026852
   94        8.054959      8.084368  -0.028786  -0.022083
   95        8.115394      8.145723  -0.015363  -0.010014
   96        8.119800      8.174486  -0.014488  -0.006294
   97        8.175135      8.194530  -0.006223  -0.004410
   98        8.248426      8.242851  -0.001493  -0.001689
   99        8.294562      8.274267  -0.000517  -0.000838
  100        8.360834      8.350443  -0.000088  -0.000122
  101        8.396261      8.354841  -0.000032  -0.000108
  102        8.475847      8.436622  -0.000002  -0.000009
  103        8.527477      8.509052  -0.000000  -0.000001
  104        8.559037      8.517410  -0.000000  -0.000001
  105        8.602206      8.643614  -0.000000  -0.000000
  106        8.652624      8.694505  -0.000000  -0.000000
  107        8.737854      8.706262  -0.000000  -0.000000
  108        8.809046      8.861004  -0.000000  -0.000000
  109        8.928336      8.944176  -0.000000  -0.000000
  110        8.934938      9.008306  -0.000000  -0.000000
 
  0.2000000E+00  0.2000000E+00  0.0000000E+00  0.1333333E-01
    1       -2.341929     -2.336810   1.000000   1.000000
    2       -1.028560     -1.024880   1.000000   1.000000
    3       -1.011346     -1.004558   1.000000   1.000000
    4        0.008809      0.012426   1.000000   1.000000
    5        0.223818      0.229424   1.000000   1.000000
    6        0.636429      0.640085   1.000000   1.000000
    7        0.652886      0.658803   1.000000   1.000000
    8        0.936469      0.941945   1.000000   1.000000
    9        0.958900      0.963021   1.000000   1.000000
   10        1.576523      1.582668   1.000000   1.000000
   11        1.722774      1.730284   1.000000   1.000000
   12        1.765633      1.772875   1.000000   1.000000
   13        1.843838      1.851842   1.000000   1.000000
   14        1.983802      1.994324   1.000000   1.000000
   15        1.996294      2.004646   1.000000   1.000000
   16        2.807383      2.816267   1.000000   1.000000
   17        2.858050      2.870418   1.000000   1.000000
   18        2.865111      2.877234   1.000000   1.000000
   19        2.883579      2.892328   1.000000   1.000000
   20        2.931539      2.941020   1.000000   1.000000
   21        3.653020      3.670950   1.000000   1.000000
   22        3.780532      3.790286   1.000000   1.000000
   23        3.791510      3.799340   1.000000   1.000000
   24        3.855557      3.863662   1.000000   1.000000
   25        4.117343      4.165499   1.000000   1.000000
   26        4.325144      4.300791   1.000000   1.000000
   27        4.351838      4.362393   1.000000   1.000000
   28        4.379665      4.377424   1.000000   1.000000
   29        4.407685      4.418140   1.000000   1.000000
   30        4.475359      4.497365   1.000000   1.000000
   31        4.487214      4.502644   1.000000   1.000000
   32        4.605359      4.613802   1.000000   1.000000
   33        4.662431      4.673839   1.000000   1.000000
   34        4.742872      4.798408   1.000000   1.000000
   35        4.803271      4.815990   1.000000   1.000000
   36        4.866361      4.907370   1.000000   1.000000
   37        4.897643      4.935100   1.000000   1.000000
   38        4.989881      5.000575   1.000000   1.000000
   39        5.098406      5.123706   1.000000   1.000000
   40        5.129243      5.169234   1.000000   1.000000
   41        5.257559      5.275192   1.000000   1.000000
   42        5.266027      5.334525   1.000000   1.000000
   43        5.338544      5.335358   1.000000   1.000000
   44        5.356753      5.360520   1.000000   1.000000
   45        5.419972      5.440942   1.000000   1.000000
   46        5.477895      5.475962   1.000000   1.000000
   47        5.512082      5.522206   1.000000   1.000000
   48        5.601247      5.630122   1.000000   1.000000
   49        5.617159      5.681372   1.000000   1.000000
   50        5.680667      5.708067   1.000000   1.000000
   51        5.740838      5.733346   1.000000   1.000000
   52        5.786133      5.843528   1.000000   1.000000
   53        5.793171      5.867622   1.000000   1.000000
   54        5.823303      5.894118   1.000000   1.000000
   55        5.886787      5.908179   1.000000   1.000000
   56        5.963637      5.952917   1.000000   1.000000
   57        5.985335      5.979283   1.000000   1.000000
   58        6.036200      6.043474   1.000000   1.000000
   59        6.088961      6.049440   1.000000   1.000000
   60        6.196627      6.238890   1.000000   1.000000
   61        6.269679      6.276757   1.000000   1.000000
   62        6.313089      6.297064   1.000000   1.000000
   63        6.331669      6.330590   1.000000   1.000000
   64        6.369371      6.404962   1.000000   1.000000
   65        6.402331      6.415123   1.000000   1.000000
   66        6.407782      6.431721   1.000000   1.000000
   67        6.451791      6.475986   1.000000   1.000000
   68        6.511174      6.527829   1.000000   1.000000