       N       E                     dE             d eps       ncg     rms          ort
DAV:   1     0.135214088419E+04    0.13521E+04   -0.58479E+04  5720   0.144E+03
DAV:   2    -0.561566413311E+02   -0.14083E+04   -0.13789E+04  5720   0.446E+02
DAV:   3    -0.236449987255E+03   -0.18029E+03   -0.16342E+03  5720   0.172E+02
DAV:   4    -0.265649431348E+03   -0.29199E+02   -0.26186E+02  5720   0.750E+01
DAV:   5    -0.269033955830E+03   -0.33845E+01   -0.32164E+01  5720   0.223E+01
DAV:   6    -0.269335429451E+03   -0.30147E+00   -0.29133E+00  5720   0.568E+00
DAV:   7    -0.269371635761E+03   -0.36206E-01   -0.35391E-01  5720   0.172E+00
DAV:   8    -0.269376114001E+03   -0.44782E-02   -0.44032E-02  5720   0.481E-01
SDA:   9    -0.596578337932E+02    0.20972E+03   -0.44032E-02  5720   0.238E+04 0.000E+00
CGA:  10    -0.204058104110E+03   -0.14440E+03   -0.14313E+03  5720   0.191E+03 0.457E+03
CGA:  11    -0.216611660162E+03   -0.12554E+02   -0.12513E+02  5720   0.547E+02 0.580E+01
CGA:  12    -0.224187587195E+03   -0.75759E+01   -0.75775E+01  5720   0.984E+02-0.375E-01
CGA:  13    -0.232225950687E+03   -0.80384E+01   -0.81833E+01  5720   0.201E+02-0.867E-01
CGA:  14    -0.233535529334E+03   -0.13096E+01   -0.13335E+01  5720   0.620E+01-0.195E+00
CGA:  15    -0.234122542114E+03   -0.58701E+00   -0.59142E+00  5720   0.684E+01-0.148E-01
CGA:  16    -0.234925253732E+03   -0.80271E+00   -0.80484E+00  5720   0.259E+01 0.743E-02
CGA:  17    -0.235151795294E+03   -0.22654E+00   -0.22683E+00  5720   0.134E+01 0.935E-04
CGA:  18    -0.235306946255E+03   -0.15515E+00   -0.15539E+00  5720   0.162E+01-0.159E-03
CGA:  19    -0.235479229851E+03   -0.17228E+00   -0.17287E+00  5720   0.676E+00-0.136E-02
CGA:  20    -0.235536372612E+03   -0.57143E-01   -0.57394E-01  5720   0.401E+00-0.178E-02
CGA:  21    -0.235592065429E+03   -0.55693E-01   -0.55733E-01  5720   0.546E+00 0.948E-03
CGA:  22    -0.235658375554E+03   -0.66310E-01   -0.66448E-01  5720   0.325E+00 0.799E-03
CGA:  23    -0.235684371069E+03   -0.25996E-01   -0.26093E-01  5720   0.146E+00-0.824E-03
CGA:  24    -0.235705456723E+03   -0.21086E-01   -0.21085E-01  5720   0.171E+00-0.272E-03
CGA:  25    -0.235728165429E+03   -0.22709E-01   -0.22713E-01  5720   0.136E+00-0.116E-03
CGA:  26    -0.235743308911E+03   -0.15143E-01   -0.15140E-01  5720   0.115E+00-0.259E-03
CGA:  27    -0.235759133690E+03   -0.15825E-01   -0.15825E-01  5720   0.987E-01 0.212E-04
CGA:  28    -0.235769299883E+03   -0.10166E-01   -0.10156E-01  5720   0.476E-01 0.106E-03
CGA:  29    -0.235774269626E+03   -0.49697E-02   -0.49741E-02  5720   0.372E-01 0.130E-03
CGA:  30    -0.235779970149E+03   -0.57005E-02   -0.56996E-02  5720   0.342E-01 0.119E-03
CGA:  31    -0.235784401665E+03   -0.44315E-02   -0.44330E-02  5720   0.249E-01 0.133E-03
CGA:  32    -0.235787736467E+03   -0.33348E-02   -0.33353E-02  5720   0.248E-01 0.825E-04
CGA:  33    -0.235790678202E+03   -0.29417E-02   -0.29442E-02  5720   0.171E-01 0.139E-03
CGA:  34    -0.235792563266E+03   -0.18851E-02   -0.18877E-02  5720   0.104E-01 0.985E-04
CGA:  35    -0.235793968384E+03   -0.14051E-02   -0.14054E-02  5720   0.879E-02 0.800E-04
CGA:  36    -0.235794909294E+03   -0.94091E-03   -0.94223E-03  5720   0.558E-02 0.376E-04
CGA:  37    -0.235795706832E+03   -0.79754E-03   -0.79738E-03  5720   0.584E-02 0.241E-04
CGA:  38    -0.235796620786E+03   -0.91395E-03   -0.91333E-03  5720   0.626E-02 0.286E-04
CGA:  39    -0.235797185487E+03   -0.56470E-03   -0.56577E-03  5720   0.237E-02 0.246E-04
SDA:  40    -0.235797429245E+03   -0.24376E-03   -0.24411E-03  5720   0.189E-02 0.108E-04
CGA:  41    -0.235797575300E+03   -0.14606E-03   -0.14576E-03  5720   0.179E-02-0.570E-05
CGA:  42    -0.235797907918E+03   -0.33262E-03   -0.33399E-03  5720   0.134E-02-0.245E-04
CGA:  43    -0.235798048235E+03   -0.14032E-03   -0.14012E-03  5720   0.116E-02-0.705E-05
CGA:  44    -0.235798212651E+03   -0.16442E-03   -0.16448E-03  5720   0.746E-03-0.597E-05
CGA:  45    -0.235798315485E+03   -0.10283E-03   -0.10288E-03  5720   0.924E-03-0.829E-05
CGA:  46    -0.235798438034E+03   -0.12255E-03   -0.12256E-03  5720   0.567E-03-0.129E-04
CGA:  47    -0.235798510624E+03   -0.72590E-04   -0.72581E-04  5720   0.657E-03-0.274E-05
CGA:  48    -0.235798613108E+03   -0.10248E-03   -0.10244E-03  5720   0.552E-03 0.153E-05
CGA:  49    -0.235798660722E+03   -0.47614E-04   -0.47656E-04  5720   0.405E-03 0.152E-05
CGA:  50    -0.235798740476E+03   -0.79754E-04   -0.79641E-04  5720   0.295E-03 0.234E-05
CGA:  51    -0.235798763963E+03   -0.23487E-04   -0.23562E-04  5720   0.149E-03 0.141E-05
CGA:  52    -0.235798790315E+03   -0.26352E-04   -0.26223E-04  5720   0.269E-03 0.328E-05
CGA:  53    -0.235798817299E+03   -0.26984E-04   -0.27125E-04  5720   0.898E-04 0.416E-05
CGA:  54    -0.235798833707E+03   -0.16408E-04   -0.16310E-04  5720   0.174E-03 0.219E-05
CGA:  55    -0.235798856880E+03   -0.23173E-04   -0.23181E-04  5720   0.530E-04 0.192E-05
CGA:  56    -0.235798860861E+03   -0.39811E-05   -0.39778E-05  5720   0.370E-04-0.295E-07
CGA:  57    -0.235798872823E+03   -0.11962E-04   -0.12307E-04  5720   0.514E-04-0.176E-05
CGA:  58    -0.235798877219E+03   -0.43962E-05   -0.44018E-05  5720   0.274E-04 0.840E-07
CGA:  59    -0.235798882436E+03   -0.52170E-05   -0.51576E-05  5720   0.353E-04 0.118E-05
CGA:  60    -0.235798886746E+03   -0.43104E-05   -0.43170E-05  5720   0.264E-04 0.276E-06
CGA:  61    -0.235798890045E+03   -0.32981E-05   -0.32873E-05  5720   0.152E-04-0.714E-06
CGA:  62    -0.235798891139E+03   -0.10948E-05   -0.10816E-05  5720   0.974E-05-0.195E-06
CGA:  63    -0.235798894136E+03   -0.29970E-05   -0.28965E-05  5720   0.133E-04 0.611E-06
CGA:  64    -0.235798895218E+03   -0.10816E-05   -0.10962E-05  5720   0.484E-05 0.196E-06
CGA:  65    -0.235798895952E+03   -0.73419E-06   -0.73456E-06  5720   0.640E-05 0.771E-07
CGA:  66    -0.235798896683E+03   -0.73072E-06   -0.72958E-06  5720   0.285E-05-0.361E-07
CGA:  67    -0.235798897059E+03   -0.37634E-06   -0.37696E-06  5720   0.435E-05-0.569E-08
CGA:  68    -0.235798897603E+03   -0.54407E-06   -0.54564E-06  5720   0.139E-05 0.123E-06
CGA:  69    -0.235798897744E+03   -0.14072E-06   -0.14995E-06  5720   0.103E-05 0.266E-06
CGA:  70    -0.235798897884E+03   -0.14048E-06   -0.14689E-06  5720   0.807E-06 0.388E-06
SDA:  71    -0.235798897991E+03   -0.10628E-06   -0.11455E-06  5720   0.694E-06 0.232E-06
CGA:  72    -0.235798898041E+03   -0.50437E-07   -0.48769E-07  5720   0.441E-06-0.215E-07
   1 F= -.23579890E+03 E0= -.23579987E+03  d E =0.292741E-02  mag=     0.4466
