 vasp.5.4.4.18Apr17-6-g9f103f2a35 (build Dec 20 2018 12:05:58) complex          
  
 executed on             LinuxIFC date 2019.06.20  14:18:51
 running on   32 total cores
 distrk:  each k-point on    8 cores,    4 groups
 distr:  one band on NCORES_PER_BAND=   4 cores,    2 groups


--------------------------------------------------------------------------------------------------------


 INCAR:
 POTCAR:    PAW_PBE Al 04Jan2001                  
 POTCAR:    PAW_PBE Mn 06Sep2000                  

 ----------------------------------------------------------------------------- 
|                                                                             |
|           W    W    AA    RRRRR   N    N  II  N    N   GGGG   !!!           |
|           W    W   A  A   R    R  NN   N  II  NN   N  G    G  !!!           |
|           W    W  A    A  R    R  N N  N  II  N N  N  G       !!!           |
|           W WW W  AAAAAA  RRRRR   N  N N  II  N  N N  G  GGG   !            |
|           WW  WW  A    A  R   R   N   NN  II  N   NN  G    G                |
|           W    W  A    A  R    R  N    N  II  N    N   GGGG   !!!           |
|                                                                             |
|      You have enabled k-point parallelism (KPAR>1).                         |
|      This developmental code was originally  written by Paul Kent at ORNL,  |
|      and carefully double checked in Vienna.                                |
|      GW as well as linear response parallelism added by Martijn Marsman     |
|      and Georg Kresse.                                                      |
|      Carefully verify results versus KPAR=1.                                |
|      Report problems to Paul Kent and Vienna.                               |
|                                                                             |
 ----------------------------------------------------------------------------- 

 POTCAR:    PAW_PBE Al 04Jan2001                  
   VRHFIN =Al: s2p1                                                             
   LEXCH  = PE                                                                  
   EATOM  =    53.5387 eV,    3.9350 Ry                                         
                                                                                
   TITEL  = PAW_PBE Al 04Jan2001                                                
   LULTRA =        F    use ultrasoft PP ?                                      
   IUNSCR =        1    unscreen: 0-lin 1-nonlin 2-no                           
   RPACOR =    1.500    partial core radius                                     
   POMASS =   26.981; ZVAL   =    3.000    mass and valenz                      
   RCORE  =    1.900    outmost cutoff radius                                   
   RWIGS  =    2.650; RWIGS  =    1.402    wigner-seitz radius (au A)           
   ENMAX  =  240.300; ENMIN  =  180.225 eV                                      
   ICORE  =        2    local potential                                         
   LCOR   =        T    correct aug charges                                     
   LPAW   =        T    paw PP                                                  
   EAUG   =  291.052                                                            
   DEXC   =    0.000                                                            
   RMAX   =    1.939    core radius for proj-oper                               
   RAUG   =    1.300    factor for augmentation sphere                          
   RDEP   =    1.966    radius for radial grids                                 
   RDEPT  =    1.856    core radius for aug-charge                              
                                                                                
   Atomic configuration                                                         
    6 entries                                                                   
     n  l   j            E        occ.                                          
     1  0  0.50     -1511.1048   2.0000                                         
     2  0  0.50      -108.1629   2.0000                                         
     2  1  1.50       -69.6402   6.0000                                         
     3  0  0.50        -7.7528   2.0000                                         
     3  1  1.50        -2.7121   1.0000                                         
     3  2  2.50        -2.7212   0.0000                                         
   Description                                                                  
     l       E           TYP  RCUT    TYP  RCUT                                 
     0     -7.7528455     23  1.900                                             
     0     -3.3096929     23  1.900                                             
     1     -2.7120682     23  1.900                                             
     1     13.6058260     23  1.900                                             
     2     -2.7211652      7  1.900                                             
  local pseudopotential read in
  partial core-charges read in
  partial kinetic energy density read in
  atomic valenz-charges read in
  non local Contribution for L=           0  read in
    real space projection operators read in
  non local Contribution for L=           0  read in
    real space projection operators read in
  non local Contribution for L=           1  read in
    real space projection operators read in
  non local Contribution for L=           1  read in
    real space projection operators read in
    PAW grid and wavefunctions read in
 
   number of l-projection  operators is LMAX  =           4
   number of lm-projection operators is LMMAX =           8
 
 POTCAR:    PAW_PBE Mn 06Sep2000                  
   VRHFIN =Mn: d6 s1                                                            
   LEXCH  = PE                                                                  
   EATOM  =   416.7541 eV,   30.6306 Ry                                         
                                                                                
   TITEL  = PAW_PBE Mn 06Sep2000                                                
   LULTRA =        F    use ultrasoft PP ?                                      
   IUNSCR =        1    unscreen: 0-lin 1-nonlin 2-no                           
   RPACOR =    2.000    partial core radius                                     
   POMASS =   54.938; ZVAL   =    7.000    mass and valenz                      
   RCORE  =    2.300    outmost cutoff radius                                   
   RWIGS  =    2.500; RWIGS  =    1.323    wigner-seitz radius (au A)           
   ENMAX  =  269.864; ENMIN  =  202.398 eV                                      
   RCLOC  =    1.725    cutoff for local pot                                    
   LCOR   =        T    correct aug charges                                     
   LPAW   =        T    paw PP                                                  
   EAUG   =  500.711                                                            
   DEXC   =    0.000                                                            
   RMAX   =    2.343    core radius for proj-oper                               
   RAUG   =    1.300    factor for augmentation sphere                          
   RDEP   =    2.338    radius for radial grids                                 
   RDEPT  =    1.911    core radius for aug-charge                              
                                                                                
   Atomic configuration                                                         
    9 entries                                                                   
     n  l   j            E        occ.                                          
     1  0  0.50     -6424.8288   2.0000                                         
     2  0  0.50      -739.1154   2.0000                                         
     2  1  1.50      -625.3949   6.0000                                         
     3  0  0.50       -81.6100   2.0000                                         
     3  1  1.50       -50.4667   6.0000                                         
     3  2  2.50        -3.3745   6.0000                                         
     4  0  0.50        -4.1331   1.0000                                         
     4  1  0.50        -4.0817   0.0000                                         
     4  3  2.50        -1.3606   0.0000                                         
   Description                                                                  
     l       E           TYP  RCUT    TYP  RCUT                                 
     2     -3.3744664     23  2.300                                             
     2     -4.7350490     23  2.300                                             
     0     -4.1331408     23  2.300                                             
     0      7.6656614     23  2.300                                             
     1     -2.7211652     23  2.300                                             
     1     20.4087390     23  2.300                                             
  local pseudopotential read in
  partial core-charges read in
  partial kinetic energy density read in
  atomic valenz-charges read in
  non local Contribution for L=           2  read in
    real space projection operators read in
  non local Contribution for L=           2  read in
    real space projection operators read in
  non local Contribution for L=           0  read in
    real space projection operators read in
  non local Contribution for L=           0  read in
    real space projection operators read in
  non local Contribution for L=           1  read in
    real space projection operators read in
  non local Contribution for L=           1  read in
    real space projection operators read in
    PAW grid and wavefunctions read in
 
   number of l-projection  operators is LMAX  =           6
   number of lm-projection operators is LMMAX =          18
 

 ----------------------------------------------------------------------------- 
|                                                                             |
|  ADVICE TO THIS USER RUNNING 'VASP/VAMP'   (HEAR YOUR MASTER'S VOICE ...):  |
|                                                                             |
|      You have a (more or less) 'large supercell' and for larger cells       |
|      it might be more efficient to use real space projection opertators     |
|      So try LREAL= Auto  in the INCAR   file.                               |
|      Mind:          For very  accurate calculation you might also keep the  |
|      reciprocal projection scheme          (i.e. LREAL=.FALSE.)             |
|                                                                             |
 ----------------------------------------------------------------------------- 

  PAW_PBE Al 04Jan2001                  :
 energy of atom  1       EATOM=  -53.5387
 kinetic energy error for atom=    0.0005 (will be added to EATOM!!)
  PAW_PBE Mn 06Sep2000                  :
 energy of atom  2       EATOM= -416.7541
 kinetic energy error for atom=    0.0080 (will be added to EATOM!!)
 
 
 POSCAR: NewRef: 18, @ ['Mn', array([1.37502469, 
  positions in cartesian coordinates
  velocities in cartesian coordinates
  No initial velocities read in
 exchange correlation table for  LEXCH =        8
   RHO(1)=    0.500       N(1)  =     2000
   RHO(2)=  100.500       N(2)  =     4000
 


--------------------------------------------------------------------------------------------------------


 ion  position               nearest neighbor table
   1  0.000  0.000  0.000-  20 2.61  24 2.61  32 2.61  36 2.61  31 2.61  23 2.61  35 2.61  19 2.61
                             3 2.75   7 2.75   5 2.75  13 2.75
   2  0.000  0.000  0.500-  19 2.61  23 2.61  31 2.61  35 2.61  20 2.61  32 2.61  24 2.61  36 2.61
                             4 2.75   8 2.75   6 2.75  14 2.75
   3  0.000  0.333  0.000-  20 2.61  32 2.61  22 2.61  34 2.61  19 2.61  31 2.61  33 2.61  21 2.61
                             9 2.75   1 2.75   5 2.75  15 2.75
   4  0.000  0.333  0.500-  19 2.61  31 2.61  21 2.61  33 2.61  32 2.61  20 2.61  22 2.61  34 2.61
                            10 2.75   2 2.75   6 2.75  16 2.75
   5  0.000  0.667  0.000-  22 2.61  34 2.61  24 2.61  36 2.61  21 2.61  33 2.61  35 2.61  23 2.61
                             3 2.75  11 2.75   1 2.75  17 2.75
   6  0.000  0.667  0.500-  21 2.61  33 2.61  23 2.61  35 2.61  34 2.61  22 2.61  24 2.61  36 2.61
                             4 2.75  12 2.75   2 2.75  18 2.75
   7  0.333  0.000  0.000-  20 2.61  24 2.61  26 2.61  30 2.61  23 2.61  19 2.61  29 2.61  25 2.61
                            13 2.75   1 2.75   9 2.75  11 2.75
   8  0.333  0.000  0.500-  19 2.61  23 2.61  25 2.61  29 2.61  20 2.61  24 2.61  26 2.61  30 2.61
                            14 2.75   2 2.75  10 2.75  12 2.75
   9  0.333  0.333  0.000-  20 2.61  22 2.61  26 2.61  19 2.61  28 2.61  21 2.61  25 2.61  27 2.61
                             3 2.75   7 2.75  11 2.75  15 2.75
  10  0.333  0.333  0.500-  19 2.61  21 2.61  25 2.61  20 2.61  27 2.61  26 2.61  22 2.61  28 2.61
                             4 2.75   8 2.75  12 2.75  16 2.75
  11  0.333  0.667  0.000-  22 2.61  24 2.61  28 2.61  21 2.61  30 2.61  23 2.61  27 2.61  29 2.61
                            17 2.75   5 2.75   9 2.75   7 2.75
  12  0.333  0.667  0.500-  21 2.61  23 2.61  27 2.61  22 2.61  29 2.61  28 2.61  24 2.61  30 2.61
                            18 2.75   6 2.75  10 2.75   8 2.75
  13  0.667  0.000  0.000-  26 2.61  30 2.61  32 2.61  36 2.61  29 2.61  25 2.61  35 2.61  31 2.61
                             7 2.75  15 2.75   1 2.75  17 2.75
  14  0.667  0.000  0.500-  25 2.61  29 2.61  31 2.61  35 2.61  26 2.61  30 2.61  32 2.61  36 2.61
                             8 2.75  16 2.75   2 2.75  18 2.75
  15  0.667  0.333  0.000-  26 2.61  28 2.61  32 2.61  25 2.61  34 2.61  27 2.61  31 2.61  33 2.61
                            17 2.75   9 2.75  13 2.75   3 2.75
  16  0.667  0.333  0.500-  25 2.61  27 2.61  31 2.61  26 2.61  33 2.61  32 2.61  28 2.61  34 2.61
                            18 2.75  10 2.75  14 2.75   4 2.75
  17  0.667  0.667  0.000-  28 2.61  30 2.61  34 2.61  27 2.61  36 2.61  29 2.61  33 2.61  35 2.61
                            11 2.75  15 2.75  13 2.75   5 2.75
  18  0.667  0.667  0.500-  27 2.61  29 2.61  33 2.61  28 2.61  35 2.61  34 2.61  30 2.61  36 2.61
                            12 2.75  16 2.75  14 2.75   6 2.75
  19  0.167  0.167  0.250-  10 2.61   8 2.61   4 2.61   9 2.61   2 2.61   7 2.61   3 2.61   1 2.61
                            21 2.75  25 2.75  23 2.75  31 2.75
  20  0.167  0.167  0.750-   9 2.61   7 2.61   3 2.61  10 2.61   1 2.61   4 2.61   8 2.61   2 2.61
                            22 2.75  26 2.75  24 2.75  32 2.75
  21  0.167  0.500  0.250-  12 2.61  10 2.61   6 2.61  11 2.61   4 2.61   9 2.61   5 2.61   3 2.61
                            19 2.75  23 2.75  27 2.75  33 2.75
  22  0.167  0.500  0.750-  11 2.61   9 2.61   5 2.61  12 2.61   3 2.61   6 2.61  10 2.61   4 2.61
                            20 2.75  24 2.75  28 2.75  34 2.75
  23  0.167  0.833  0.250-   8 2.61  12 2.61   2 2.61   6 2.61  11 2.61   7 2.61   5 2.61   1 2.61
                            21 2.75  29 2.75  19 2.75  35 2.75
  24  0.167  0.833  0.750-   7 2.61  11 2.61   1 2.61   5 2.61   8 2.61  12 2.61   2 2.61   6 2.61
                            22 2.75  30 2.75  20 2.75  36 2.75
  25  0.500  0.167  0.250-  16 2.61  14 2.61  10 2.61  15 2.61   8 2.61  13 2.61   9 2.61   7 2.61
                            19 2.75  27 2.75  31 2.75  29 2.75
  26  0.500  0.167  0.750-  15 2.61  13 2.61   9 2.61  16 2.61   7 2.61  10 2.61  14 2.61   8 2.61
                            20 2.75  28 2.75  32 2.75  30 2.75
  27  0.500  0.500  0.250-  18 2.61  16 2.61  12 2.61  17 2.61  10 2.61  15 2.61  11 2.61   9 2.61
                            21 2.75  25 2.75  29 2.75  33 2.75
  28  0.500  0.500  0.750-  17 2.61  15 2.61  11 2.61  18 2.61   9 2.61  12 2.61  16 2.61  10 2.61
                            22 2.75  26 2.75  30 2.75  34 2.75
  29  0.500  0.833  0.250-  14 2.61  18 2.61   8 2.61  12 2.61  17 2.61  13 2.61  11 2.61   7 2.61
                            23 2.75  27 2.75  35 2.75  25 2.75
  30  0.500  0.833  0.750-  13 2.61  17 2.61   7 2.61  11 2.61  14 2.61  18 2.61   8 2.61  12 2.61
                            24 2.75  28 2.75  36 2.75  26 2.75
  31  0.833  0.167  0.250-   4 2.61  16 2.61  14 2.61   2 2.61  15 2.61   3 2.61  13 2.61   1 2.61
                            25 2.75  33 2.75  19 2.75  35 2.75
  32  0.833  0.167  0.750-   3 2.61  15 2.61  13 2.61   1 2.61   4 2.61  16 2.61   2 2.61  14 2.61
                            26 2.75  34 2.75  20 2.75  36 2.75
  33  0.833  0.500  0.250-   6 2.61  18 2.61  16 2.61   4 2.61  17 2.61   5 2.61  15 2.61   3 2.61
                            27 2.75  31 2.75  35 2.75  21 2.75
  34  0.833  0.500  0.750-   5 2.61  17 2.61  15 2.61   3 2.61   6 2.61  18 2.61   4 2.61  16 2.61
                            28 2.75  32 2.75  36 2.75  22 2.75
  35  0.833  0.833  0.250-   2 2.61   6 2.61  14 2.61  18 2.61  13 2.61   5 2.61  17 2.61   1 2.61
                            29 2.75  33 2.75  31 2.75  23 2.75
  36  0.833  0.833  0.750-   1 2.61   5 2.61  13 2.61  17 2.61   2 2.61  14 2.61   6 2.61  18 2.61
                            30 2.75  34 2.75  32 2.75  24 2.75
 
  LATTYP: Found a simple tetragonal cell.
 ALAT       =     8.2501481662
 C/A-ratio  =     0.8428059861
  
  Lattice vectors:
  
 A1 = (   8.2501481662,   0.0000000000,   0.0000000000)
 A2 = (   0.0000000000,   8.2501481662,   0.0000000000)
 A3 = (   0.0000000000,   0.0000000000,   6.9532742610)


Analysis of symmetry for initial positions (statically):
=====================================================================
 Subroutine PRICEL returns following result:
 
  LATTYP: Found a simple tetragonal cell.
 ALAT       =     2.7500493888
 C/A-ratio  =     1.2642089792
  
  Lattice vectors:
  
 A1 = (   2.7500493888,   0.0000000000,   0.0000000000)
 A2 = (   0.0000000000,   2.7500493888,   0.0000000000)
 A3 = (   0.0000000000,   0.0000000000,   3.4766371305)
 
  18 primitive cells build up your supercell.
 

 Routine SETGRP: Setting up the symmetry group for a 
 simple tetragonal supercell.


 Subroutine GETGRP returns: Found 16 space group operations
 (whereof 16 operations were pure point group operations)
 out of a pool of 16 trial point group operations.


The static configuration has the point symmetry D_4h.


Analysis of symmetry for dynamics (positions and initial velocities):
=====================================================================
 Subroutine PRICEL returns following result:
 
  LATTYP: Found a simple tetragonal cell.
 ALAT       =     2.7500493888
 C/A-ratio  =     1.2642089792
  
  Lattice vectors:
  
 A1 = (   2.7500493888,   0.0000000000,   0.0000000000)
 A2 = (   0.0000000000,   2.7500493888,   0.0000000000)
 A3 = (   0.0000000000,   0.0000000000,   3.4766371305)
 
  18 primitive cells build up your supercell.
 

 Routine SETGRP: Setting up the symmetry group for a 
 simple tetragonal supercell.


 Subroutine GETGRP returns: Found 16 space group operations
 (whereof 16 operations were pure point group operations)
 out of a pool of 16 trial point group operations.


The dynamic configuration has the point symmetry D_4h.


Analysis of structural, dynamic, and magnetic symmetry:
=====================================================================
 Subroutine PRICEL returns:
 Original cell was already a primitive cell.
 

 Routine SETGRP: Setting up the symmetry group for a 
 simple tetragonal supercell.


 Subroutine GETGRP returns: Found  2 space group operations
 (whereof  1 operations were pure point group operations)
 out of a pool of 16 trial point group operations.


The magnetic configuration has the point symmetry C_1 .
 The point group associated with its full space group is C_1h.


 Subroutine INISYM returns: Found  2 space group operations
 (whereof  1 operations are pure point group operations),
 and found     1 'primitive' translations

 
 
 KPOINTS: automatic KPOINTS                       

Automatic generation of k-mesh.
 generate k-points for:    5    5    6
Space group operators:
 irot       det(A)        alpha          n_x          n_y          n_z        tau_x        tau_y        tau_z
    1     1.000000     0.000001     1.000000     0.000000     0.000000     0.000000     0.000000     0.000000
    2    -1.000000   179.999999     0.000000     0.000000     1.000000     0.000000     0.000000     0.500000
 
 Subroutine IBZKPT returns following result:
 ===========================================
 
 Found     52 irreducible k-points:
 
 Following reciprocal coordinates:
            Coordinates               Weight
  0.000000  0.000000  0.000000      1.000000
  0.200000  0.000000  0.000000      2.000000
  0.400000  0.000000  0.000000      2.000000
  0.000000  0.200000  0.000000      2.000000
  0.200000  0.200000  0.000000      2.000000
  0.400000  0.200000  0.000000      2.000000
 -0.400000  0.200000  0.000000      2.000000
 -0.200000  0.200000  0.000000      2.000000
  0.000000  0.400000  0.000000      2.000000
  0.200000  0.400000  0.000000      2.000000
  0.400000  0.400000  0.000000      2.000000
 -0.400000  0.400000  0.000000      2.000000
 -0.200000  0.400000  0.000000      2.000000
  0.000000  0.000000  0.166667      2.000000
  0.200000  0.000000  0.166667      4.000000
  0.400000  0.000000  0.166667      4.000000
  0.000000  0.200000  0.166667      4.000000
  0.200000  0.200000  0.166667      4.000000
  0.400000  0.200000  0.166667      4.000000
 -0.400000  0.200000  0.166667      4.000000
 -0.200000  0.200000  0.166667      4.000000
  0.000000  0.400000  0.166667      4.000000
  0.200000  0.400000  0.166667      4.000000
  0.400000  0.400000  0.166667      4.000000
 -0.400000  0.400000  0.166667      4.000000
 -0.200000  0.400000  0.166667      4.000000
  0.000000  0.000000  0.333333      2.000000
  0.200000  0.000000  0.333333      4.000000
  0.400000  0.000000  0.333333      4.000000
  0.000000  0.200000  0.333333      4.000000
  0.200000  0.200000  0.333333      4.000000
  0.400000  0.200000  0.333333      4.000000
 -0.400000  0.200000  0.333333      4.000000
 -0.200000  0.200000  0.333333      4.000000
  0.000000  0.400000  0.333333      4.000000
  0.200000  0.400000  0.333333      4.000000
  0.400000  0.400000  0.333333      4.000000
 -0.400000  0.400000  0.333333      4.000000
 -0.200000  0.400000  0.333333      4.000000
  0.000000  0.000000  0.500000      1.000000
  0.200000  0.000000  0.500000      2.000000
  0.400000  0.000000  0.500000      2.000000
  0.000000  0.200000  0.500000      2.000000
  0.200000  0.200000  0.500000      2.000000
  0.400000  0.200000  0.500000      2.000000
 -0.400000  0.200000  0.500000      2.000000
 -0.200000  0.200000  0.500000      2.000000
  0.000000  0.400000  0.500000      2.000000
  0.200000  0.400000  0.500000      2.000000
  0.400000  0.400000  0.500000      2.000000
 -0.400000  0.400000  0.500000      2.000000
 -0.200000  0.400000  0.500000      2.000000
 
 Following cartesian coordinates:
            Coordinates               Weight
  0.000000  0.000000  0.000000      1.000000
  0.024242  0.000000  0.000000      2.000000
  0.048484  0.000000  0.000000      2.000000
  0.000000  0.024242  0.000000      2.000000
  0.024242  0.024242  0.000000      2.000000
  0.048484  0.024242  0.000000      2.000000
 -0.048484  0.024242  0.000000      2.000000
 -0.024242  0.024242  0.000000      2.000000
  0.000000  0.048484  0.000000      2.000000
  0.024242  0.048484  0.000000      2.000000
  0.048484  0.048484  0.000000      2.000000
 -0.048484  0.048484  0.000000      2.000000
 -0.024242  0.048484  0.000000      2.000000
  0.000000  0.000000  0.023970      2.000000
  0.024242  0.000000  0.023970      4.000000
  0.048484  0.000000  0.023970      4.000000
  0.000000  0.024242  0.023970      4.000000
  0.024242  0.024242  0.023970      4.000000
  0.048484  0.024242  0.023970      4.000000
 -0.048484  0.024242  0.023970      4.000000
 -0.024242  0.024242  0.023970      4.000000
  0.000000  0.048484  0.023970      4.000000
  0.024242  0.048484  0.023970      4.000000
  0.048484  0.048484  0.023970      4.000000
 -0.048484  0.048484  0.023970      4.000000
 -0.024242  0.048484  0.023970      4.000000
  0.000000  0.000000  0.047939      2.000000
  0.024242  0.000000  0.047939      4.000000
  0.048484  0.000000  0.047939      4.000000
  0.000000  0.024242  0.047939      4.000000
  0.024242  0.024242  0.047939      4.000000
  0.048484  0.024242  0.047939      4.000000
 -0.048484  0.024242  0.047939      4.000000
 -0.024242  0.024242  0.047939      4.000000
  0.000000  0.048484  0.047939      4.000000
  0.024242  0.048484  0.047939      4.000000
  0.048484  0.048484  0.047939      4.000000
 -0.048484  0.048484  0.047939      4.000000
 -0.024242  0.048484  0.047939      4.000000
  0.000000  0.000000  0.071909      1.000000
  0.024242  0.000000  0.071909      2.000000
  0.048484  0.000000  0.071909      2.000000
  0.000000  0.024242  0.071909      2.000000
  0.024242  0.024242  0.071909      2.000000
  0.048484  0.024242  0.071909      2.000000
 -0.048484  0.024242  0.071909      2.000000
 -0.024242  0.024242  0.071909      2.000000
  0.000000  0.048484  0.071909      2.000000
  0.024242  0.048484  0.071909      2.000000
  0.048484  0.048484  0.071909      2.000000
 -0.048484  0.048484  0.071909      2.000000
 -0.024242  0.048484  0.071909      2.000000
 


--------------------------------------------------------------------------------------------------------




 Dimension of arrays:
   k-points           NKPTS =     52   k-points in BZ     NKDIM =     52   number of bands    NBANDS=    110
   number of dos      NEDOS =    301   number of ions     NIONS =     36
   non local maximal  LDIM  =      6   non local SUM 2l+1 LMDIM =     18
   total plane-waves  NPLWV = 139968
   max r-space proj   IRMAX =      1   max aug-charges    IRDMAX=  92271
   dimension x,y,z NGX =    54 NGY =   54 NGZ =   48
   dimension x,y,z NGXF=   108 NGYF=  108 NGZF=   96
   support grid    NGXF=   216 NGYF=  216 NGZF=  192
   ions per type =              18  18
   NGX,Y,Z   is equivalent  to a cutoff of  10.88, 10.88, 11.48 a.u.
   NGXF,Y,Z  is equivalent  to a cutoff of  21.76, 21.76, 22.95 a.u.

 SYSTEM =  AlMn_pv                                 
 POSCAR =  NewRef: 18, @ ['Mn', array([1.37502469, 

 Startparameter for this run:
   NWRITE =      2    write-flag & timer
   PREC   = accura    normal or accurate (medium, high low for compatibility)
   ISTART =      0    job   : 0-new  1-cont  2-samecut
   ICHARG =      2    charge: 1-file 2-atom 10-const
   ISPIN  =      2    spin polarized calculation?
   LNONCOLLINEAR =      F non collinear calculations
   LSORBIT =      F    spin-orbit coupling
   INIWAV =      1    electr: 0-lowe 1-rand  2-diag
   LASPH  =      F    aspherical Exc in radial PAW
   METAGGA=      F    non-selfconsistent MetaGGA calc.

 Electronic Relaxation 1
   ENCUT  =  404.8 eV  29.75 Ry    5.45 a.u.  13.53 13.53 11.41*2*pi/ulx,y,z
   ENINI  =  404.8     initial cutoff
   ENAUG  =  500.7 eV  augmentation charge cutoff
   NELM   =    100;   NELMIN=  4; NELMDL= -8     # of ELM steps 
   EDIFF  = 0.1E-06   stopping-criterion for ELM
   LREAL  =      F    real-space projection
   NLSPLINE    = F    spline interpolate recip. space projectors
   LCOMPAT=      F    compatible to vasp.4.4
   GGA_COMPAT  = T    GGA compatible to vasp.4.4-vasp.4.6
   LMAXPAW     = -100 max onsite density
   LMAXMIX     =    2 max onsite mixed and CHGCAR
   VOSKOWN=      0    Vosko Wilk Nusair interpolation
   ROPT   =    0.00000   0.00000
 Ionic relaxation
   EDIFFG = 0.1E-05   stopping-criterion for IOM
   NSW    =      0    number of steps for IOM
   NBLOCK =      1;   KBLOCK =      1    inner block; outer block 
   IBRION =     -1    ionic relax: 0-MD 1-quasi-New 2-CG
   NFREE  =      0    steps in history (QN), initial steepest desc. (CG)
   ISIF   =      2    stress and relaxation
   IWAVPR =     10    prediction:  0-non 1-charg 2-wave 3-comb
   ISYM   =      2    0-nonsym 1-usesym 2-fastsym
   LCORR  =      T    Harris-Foulkes like correction to forces

   POTIM  = 0.2000    time-step for ionic-motion
   TEIN   =    0.0    initial temperature
   TEBEG  =    0.0;   TEEND  =   0.0 temperature during run
   SMASS  =  -3.00    Nose mass-parameter (am)
   estimated Nose-frequenzy (Omega)   =  0.10E-29 period in steps =****** mass=  -0.156E-26a.u.
   SCALEE = 1.0000    scale energy and forces
   NPACO  =    256;   APACO  = 16.0  distance and # of slots for P.C.
   PSTRESS=    0.0 pullay stress

  Mass of Ions in am
   POMASS =  26.98 54.94
  Ionic Valenz
   ZVAL   =   3.00  7.00
  Atomic Wigner-Seitz radii
   RWIGS  =  -1.00 -1.00
  virtual crystal weights 
   VCA    =   1.00  1.00
   NELECT =     180.0000    total number of electrons
   NUPDOWN=      -1.0000    fix difference up-down

 DOS related values:
   EMIN   =  10.00;   EMAX   =-10.00  energy-range for DOS
   EFERMI =   0.00
   ISMEAR =     1;   SIGMA  =   0.20  broadening in eV -4-tet -1-fermi 0-gaus

 Electronic relaxation 2 (details)
   IALGO  =     58    algorithm
   LDIAG  =      T    sub-space diagonalisation (order eigenvalues)
   LSUBROT=      F    optimize rotation matrix (better conditioning)
   TURBO    =      0    0=normal 1=particle mesh
   IRESTART =      0    0=no restart 2=restart with 2 vectors
   NREBOOT  =      0    no. of reboots
   NMIN     =      0    reboot dimension
   EREF     =   0.00    reference energy to select bands
   IMIX   =      4    mixing-type and parameters
     AMIX     =   0.40;   BMIX     =  1.00
     AMIX_MAG =   1.60;   BMIX_MAG =  1.00
     AMIN     =   0.10
     WC   =   100.;   INIMIX=   1;  MIXPRE=   1;  MAXMIX= -45

 Intra band minimization:
   WEIMIN = 0.0000     energy-eigenvalue tresh-hold
   EBREAK =  0.23E-09  absolut break condition
   DEPER  =   0.30     relativ break condition  

   TIME   =   0.40     timestep for ELM

  volume/ion in A,a.u.               =      13.15        88.72
  Fermi-wavevector in a.u.,A,eV,Ry     =   1.186118  2.241439 19.141722  1.406877
  Thomas-Fermi vector in A             =   2.322298
 
 Write flags
   LWAVE        =      F    write WAVECAR
   LDOWNSAMPLE  =      F    k-point downsampling of WAVECAR
   LCHARG       =      F    write CHGCAR
   LVTOT        =      F    write LOCPOT, total local potential
   LVHAR        =      F    write LOCPOT, Hartree potential only
   LELF         =      F    write electronic localiz. function (ELF)
   LORBIT       =     10    0 simple, 1 ext, 2 COOP (PROOUT), +10 PAW based schemes


 Dipole corrections
   LMONO  =      F    monopole corrections only (constant potential shift)
   LDIPOL =      F    correct potential (dipole corrections)
   IDIPOL =      0    1-x, 2-y, 3-z, 4-all directions 
   EPSILON=  1.0000000 bulk dielectric constant

 Exchange correlation treatment:
   GGA     =    --    GGA type
   LEXCH   =     8    internal setting for exchange type
   VOSKOWN=      0    Vosko Wilk Nusair interpolation
   LHFCALC =     F    Hartree Fock is set to
   LHFONE  =     F    Hartree Fock one center treatment
   AEXX    =    0.0000 exact exchange contribution

 Linear response parameters
   LEPSILON=     F    determine dielectric tensor
   LRPA    =     F    only Hartree local field effects (RPA)
   LNABLA  =     F    use nabla operator in PAW spheres
   LVEL    =     F    velocity operator in full k-point grid
   LINTERFAST=   F  fast interpolation
   KINTER  =     0    interpolate to denser k-point grid
   CSHIFT  =0.1000    complex shift for real part using Kramers Kronig
   OMEGAMAX=  -1.0    maximum frequency
   DEG_THRESHOLD= 0.2000000E-02 threshold for treating states as degnerate
   RTIME   =   -0.100 relaxation time in fs
  (WPLASMAI=    0.000 imaginary part of plasma frequency in eV, 0.658/RTIME)
   DFIELD  = 0.0000000 0.0000000 0.0000000 field for delta impulse in time
 
 Orbital magnetization related:
   ORBITALMAG=     F  switch on orbital magnetization
   LCHIMAG   =     F  perturbation theory with respect to B field
   DQ        =  0.001000  dq finite difference perturbation B field
   LLRAUG    =     F  two centre corrections for induced B field



--------------------------------------------------------------------------------------------------------


 Static calculation
 charge density and potential will be updated during run
 spin polarized calculation
 Conjugate gradient for all bands (Freysoldt, et al. PRB 79, 241103 (2009))
 preconditioned conjugated gradient                                        
 perform sub-space diagonalisation
    before iterative eigenvector-optimisation
 modified Broyden-mixing scheme, WC =      100.0
 initial mixing is a Kerker type mixing with AMIX =  0.4000 and BMIX =      1.0000
 Hartree-type preconditioning will be used
 using additional bands           20
 reciprocal scheme for non local part
 use partial core corrections
 no Harris-corrections to forces 
 use gradient corrections 
 use of overlap-Matrix (Vanderbilt PP)
 Methfessel and Paxton  Order N= 1 SIGMA  =   0.20


--------------------------------------------------------------------------------------------------------


  energy-cutoff  :      404.80
  volume of cell :      473.27
      direct lattice vectors                 reciprocal lattice vectors
     8.250148166  0.000000000  0.000000000     0.121209944  0.000000000  0.000000000
     0.000000000  8.250148166  0.000000000     0.000000000  0.121209944  0.000000000
     0.000000000  0.000000000  6.953274261     0.000000000  0.000000000  0.143817137

  length of vectors
     8.250148166  8.250148166  6.953274261     0.121209944  0.121209944  0.143817137


 
 k-points in units of 2pi/SCALE and weight: automatic KPOINTS                       
   0.00000000  0.00000000  0.00000000       0.007
   0.02424199  0.00000000  0.00000000       0.013
   0.04848398  0.00000000  0.00000000       0.013
   0.00000000  0.02424199  0.00000000       0.013
   0.02424199  0.02424199  0.00000000       0.013
   0.04848398  0.02424199  0.00000000       0.013
  -0.04848398  0.02424199  0.00000000       0.013
  -0.02424199  0.02424199  0.00000000       0.013
   0.00000000  0.04848398  0.00000000       0.013
   0.02424199  0.04848398  0.00000000       0.013
   0.04848398  0.04848398  0.00000000       0.013
  -0.04848398  0.04848398  0.00000000       0.013
  -0.02424199  0.04848398  0.00000000       0.013
   0.00000000  0.00000000  0.02396952       0.013
   0.02424199  0.00000000  0.02396952       0.027
   0.04848398  0.00000000  0.02396952       0.027
   0.00000000  0.02424199  0.02396952       0.027
   0.02424199  0.02424199  0.02396952       0.027
   0.04848398  0.02424199  0.02396952       0.027
  -0.04848398  0.02424199  0.02396952       0.027
  -0.02424199  0.02424199  0.02396952       0.027
   0.00000000  0.04848398  0.02396952       0.027
   0.02424199  0.04848398  0.02396952       0.027
   0.04848398  0.04848398  0.02396952       0.027
  -0.04848398  0.04848398  0.02396952       0.027
  -0.02424199  0.04848398  0.02396952       0.027
   0.00000000  0.00000000  0.04793905       0.013
   0.02424199  0.00000000  0.04793905       0.027
   0.04848398  0.00000000  0.04793905       0.027
   0.00000000  0.02424199  0.04793905       0.027
   0.02424199  0.02424199  0.04793905       0.027
   0.04848398  0.02424199  0.04793905       0.027
  -0.04848398  0.02424199  0.04793905       0.027
  -0.02424199  0.02424199  0.04793905       0.027
   0.00000000  0.04848398  0.04793905       0.027
   0.02424199  0.04848398  0.04793905       0.027
   0.04848398  0.04848398  0.04793905       0.027
  -0.04848398  0.04848398  0.04793905       0.027
  -0.02424199  0.04848398  0.04793905       0.027
   0.00000000  0.00000000  0.07190857       0.007
   0.02424199  0.00000000  0.07190857       0.013
   0.04848398  0.00000000  0.07190857       0.013
   0.00000000  0.02424199  0.07190857       0.013
   0.02424199  0.02424199  0.07190857       0.013
   0.04848398  0.02424199  0.07190857       0.013
  -0.04848398  0.02424199  0.07190857       0.013
  -0.02424199  0.02424199  0.07190857       0.013
   0.00000000  0.04848398  0.07190857       0.013
   0.02424199  0.04848398  0.07190857       0.013
   0.04848398  0.04848398  0.07190857       0.013
  -0.04848398  0.04848398  0.07190857       0.013
  -0.02424199  0.04848398  0.07190857       0.013
 
 k-points in reciprocal lattice and weights: automatic KPOINTS                       
   0.00000000  0.00000000  0.00000000       0.007
   0.20000000  0.00000000  0.00000000       0.013
   0.40000000  0.00000000  0.00000000       0.013
   0.00000000  0.20000000  0.00000000       0.013
   0.20000000  0.20000000  0.00000000       0.013
   0.40000000  0.20000000  0.00000000       0.013
  -0.40000000  0.20000000  0.00000000       0.013
  -0.20000000  0.20000000  0.00000000       0.013
   0.00000000  0.40000000  0.00000000       0.013
   0.20000000  0.40000000  0.00000000       0.013
   0.40000000  0.40000000  0.00000000       0.013
  -0.40000000  0.40000000  0.00000000       0.013
  -0.20000000  0.40000000  0.00000000       0.013
   0.00000000  0.00000000  0.16666667       0.013
   0.20000000  0.00000000  0.16666667       0.027
   0.40000000  0.00000000  0.16666667       0.027
   0.00000000  0.20000000  0.16666667       0.027
   0.20000000  0.20000000  0.16666667       0.027
   0.40000000  0.20000000  0.16666667       0.027
  -0.40000000  0.20000000  0.16666667       0.027
  -0.20000000  0.20000000  0.16666667       0.027
   0.00000000  0.40000000  0.16666667       0.027
   0.20000000  0.40000000  0.16666667       0.027
   0.40000000  0.40000000  0.16666667       0.027
  -0.40000000  0.40000000  0.16666667       0.027
  -0.20000000  0.40000000  0.16666667       0.027
   0.00000000  0.00000000  0.33333333       0.013
   0.20000000  0.00000000  0.33333333       0.027
   0.40000000  0.00000000  0.33333333       0.027
   0.00000000  0.20000000  0.33333333       0.027
   0.20000000  0.20000000  0.33333333       0.027
   0.40000000  0.20000000  0.33333333       0.027
  -0.40000000  0.20000000  0.33333333       0.027
  -0.20000000  0.20000000  0.33333333       0.027
   0.00000000  0.40000000  0.33333333       0.027
   0.20000000  0.40000000  0.33333333       0.027
   0.40000000  0.40000000  0.33333333       0.027
  -0.40000000  0.40000000  0.33333333       0.027
  -0.20000000  0.40000000  0.33333333       0.027
   0.00000000  0.00000000  0.50000000       0.007
   0.20000000  0.00000000  0.50000000       0.013
   0.40000000  0.00000000  0.50000000       0.013
   0.00000000  0.20000000  0.50000000       0.013
   0.20000000  0.20000000  0.50000000       0.013
   0.40000000  0.20000000  0.50000000       0.013
  -0.40000000  0.20000000  0.50000000       0.013
  -0.20000000  0.20000000  0.50000000       0.013
   0.00000000  0.40000000  0.50000000       0.013
   0.20000000  0.40000000  0.50000000       0.013
   0.40000000  0.40000000  0.50000000       0.013
  -0.40000000  0.40000000  0.50000000       0.013
  -0.20000000  0.40000000  0.50000000       0.013
 
 position of ions in fractional coordinates (direct lattice) 
   0.00000000  0.00000000  0.00000000
   0.00000000  0.00000000  0.50000000
   0.00000000  0.33333333  0.00000000
   0.00000000  0.33333333  0.50000000
   0.00000000  0.66666667  0.00000000
   0.00000000  0.66666667  0.50000000
   0.33333333  0.00000000  0.00000000
   0.33333333  0.00000000  0.50000000
   0.33333333  0.33333333  0.00000000
   0.33333333  0.33333333  0.50000000
   0.33333333  0.66666667  0.00000000
   0.33333333  0.66666667  0.50000000
   0.66666667  0.00000000  0.00000000
   0.66666667  0.00000000  0.50000000
   0.66666667  0.33333333  0.00000000
   0.66666667  0.33333333  0.50000000
   0.66666667  0.66666667  0.00000000
   0.66666667  0.66666667  0.50000000
   0.16666667  0.16666667  0.25000000
   0.16666667  0.16666667  0.75000000
   0.16666667  0.50000000  0.25000000
   0.16666667  0.50000000  0.75000000
   0.16666667  0.83333333  0.25000000
   0.16666667  0.83333333  0.75000000
   0.50000000  0.16666667  0.25000000
   0.50000000  0.16666667  0.75000000
   0.50000000  0.50000000  0.25000000
   0.50000000  0.50000000  0.75000000
   0.50000000  0.83333333  0.25000000
   0.50000000  0.83333333  0.75000000
   0.83333333  0.16666667  0.25000000
   0.83333333  0.16666667  0.75000000
   0.83333333  0.50000000  0.25000000
   0.83333333  0.50000000  0.75000000
   0.83333333  0.83333333  0.25000000
   0.83333333  0.83333333  0.75000000
 
 position of ions in cartesian coordinates  (Angst):
   0.00000000  0.00000000  0.00000000
   0.00000000  0.00000000  3.47663713
   0.00000000  2.75004939  0.00000000
   0.00000000  2.75004939  3.47663713
   0.00000000  5.50009878  0.00000000
   0.00000000  5.50009878  3.47663713
   2.75004939  0.00000000  0.00000000
   2.75004939  0.00000000  3.47663713
   2.75004939  2.75004939  0.00000000
   2.75004939  2.75004939  3.47663713
   2.75004939  5.50009878  0.00000000
   2.75004939  5.50009878  3.47663713
   5.50009878  0.00000000  0.00000000
   5.50009878  0.00000000  3.47663713
   5.50009878  2.75004939  0.00000000
   5.50009878  2.75004939  3.47663713
   5.50009878  5.50009878  0.00000000
   5.50009878  5.50009878  3.47663713
   1.37502469  1.37502469  1.73831857
   1.37502469  1.37502469  5.21495570
   1.37502469  4.12507408  1.73831857
   1.37502469  4.12507408  5.21495570
   1.37502469  6.87512347  1.73831857
   1.37502469  6.87512347  5.21495570
   4.12507408  1.37502469  1.73831857
   4.12507408  1.37502469  5.21495570
   4.12507408  4.12507408  1.73831857
   4.12507408  4.12507408  5.21495570
   4.12507408  6.87512347  1.73831857
   4.12507408  6.87512347  5.21495570
   6.87512347  1.37502469  1.73831857
   6.87512347  1.37502469  5.21495570
   6.87512347  4.12507408  1.73831857
   6.87512347  4.12507408  5.21495570
   6.87512347  6.87512347  1.73831857
   6.87512347  6.87512347  5.21495570
 


--------------------------------------------------------------------------------------------------------


 k-point  1 :   0.0000 0.0000 0.0000  plane waves:    8799
 k-point  2 :   0.2000 0.0000 0.0000  plane waves:    8753
 k-point  3 :   0.4000 0.0000 0.0000  plane waves:    8757
 k-point  4 :   0.0000 0.2000 0.0000  plane waves:    8753
 k-point  5 :   0.2000 0.2000 0.0000  plane waves:    8767
 k-point  6 :   0.4000 0.2000 0.0000  plane waves:    8761
 k-point  7 :  -0.4000 0.2000 0.0000  plane waves:    8761
 k-point  8 :  -0.2000 0.2000 0.0000  plane waves:    8767
 k-point  9 :   0.0000 0.4000 0.0000  plane waves:    8757
 k-point 10 :   0.2000 0.4000 0.0000  plane waves:    8761
 k-point 11 :   0.4000 0.4000 0.0000  plane waves:    8731
 k-point 12 :  -0.4000 0.4000 0.0000  plane waves:    8731
 k-point 13 :  -0.2000 0.4000 0.0000  plane waves:    8761
 k-point 14 :   0.0000 0.0000 0.1667  plane waves:    8763
 k-point 15 :   0.2000 0.0000 0.1667  plane waves:    8771
 k-point 16 :   0.4000 0.0000 0.1667  plane waves:    8747
 k-point 17 :   0.0000 0.2000 0.1667  plane waves:    8771
 k-point 18 :   0.2000 0.2000 0.1667  plane waves:    8764
 k-point 19 :   0.4000 0.2000 0.1667  plane waves:    8768
 k-point 20 :  -0.4000 0.2000 0.1667  plane waves:    8768
 k-point 21 :  -0.2000 0.2000 0.1667  plane waves:    8764
 k-point 22 :   0.0000 0.4000 0.1667  plane waves:    8747
 k-point 23 :   0.2000 0.4000 0.1667  plane waves:    8768
 k-point 24 :   0.4000 0.4000 0.1667  plane waves:    8740
 k-point 25 :  -0.4000 0.4000 0.1667  plane waves:    8740
 k-point 26 :  -0.2000 0.4000 0.1667  plane waves:    8768
 k-point 27 :   0.0000 0.0000 0.3333  plane waves:    8743
 k-point 28 :   0.2000 0.0000 0.3333  plane waves:    8736
 k-point 29 :   0.4000 0.0000 0.3333  plane waves:    8753
 k-point 30 :   0.0000 0.2000 0.3333  plane waves:    8736
 k-point 31 :   0.2000 0.2000 0.3333  plane waves:    8753
 k-point 32 :   0.4000 0.2000 0.3333  plane waves:    8743
 k-point 33 :  -0.4000 0.2000 0.3333  plane waves:    8743
 k-point 34 :  -0.2000 0.2000 0.3333  plane waves:    8753
 k-point 35 :   0.0000 0.4000 0.3333  plane waves:    8753
 k-point 36 :   0.2000 0.4000 0.3333  plane waves:    8743
 k-point 37 :   0.4000 0.4000 0.3333  plane waves:    8755
 k-point 38 :  -0.4000 0.4000 0.3333  plane waves:    8755
 k-point 39 :  -0.2000 0.4000 0.3333  plane waves:    8743
 k-point 40 :   0.0000 0.0000 0.5000  plane waves:    8742
 k-point 41 :   0.2000 0.0000 0.5000  plane waves:    8756
 k-point 42 :   0.4000 0.0000 0.5000  plane waves:    8744
 k-point 43 :   0.0000 0.2000 0.5000  plane waves:    8756
 k-point 44 :   0.2000 0.2000 0.5000  plane waves:    8762
 k-point 45 :   0.4000 0.2000 0.5000  plane waves:    8732
 k-point 46 :  -0.4000 0.2000 0.5000  plane waves:    8732
 k-point 47 :  -0.2000 0.2000 0.5000  plane waves:    8762
 k-point 48 :   0.0000 0.4000 0.5000  plane waves:    8744
 k-point 49 :   0.2000 0.4000 0.5000  plane waves:    8732
 k-point 50 :   0.4000 0.4000 0.5000  plane waves:    8736
 k-point 51 :  -0.4000 0.4000 0.5000  plane waves:    8736
 k-point 52 :  -0.2000 0.4000 0.5000  plane waves:    8732

 maximum and minimum number of plane-waves per node :      2210     2164

 maximum number of plane-waves:      8799
 maximum index in each direction: 
   IXMAX=   13   IYMAX=   13   IZMAX=   11
   IXMIN=  -13   IYMIN=  -13   IZMIN=  -11


 parallel 3D FFT for wavefunctions:
    minimum data exchange during FFTs selected (reduces bandwidth)
 parallel 3D FFT for charge:
    minimum data exchange during FFTs selected (reduces bandwidth)


 total amount of memory used by VASP MPI-rank0   740218. kBytes
=======================================================================

   base      :      30000. kBytes
   nonl-proj :      34307. kBytes
   fftplans  :      21726. kBytes
   grid      :      14732. kBytes
   one-center:        279. kBytes
   wavefun   :     639174. kBytes
 
     INWAV:  cpu time    0.0001: real time    0.0003
 Broyden mixing: mesh for mixing (old mesh)
   NGX = 27   NGY = 27   NGZ = 23
  (NGX  =108   NGY  =108   NGZ  = 96)
  gives a total of  16767 points

 initial charge density was supplied:
 charge density of overlapping atoms calculated
 number of electron     180.0000000 magnetization       0.0000000
 keeping initial charge density in first step


--------------------------------------------------------------------------------------------------------


 Maximum index for augmentation-charges        11261 (set IRDMAX)


--------------------------------------------------------------------------------------------------------


 First call to EWALD:  gamma=   0.227
 Maximum number of real-space cells 3x 3x 3
 Maximum number of reciprocal cells 3x 3x 3

    FEWALD:  cpu time    0.0098: real time    0.0098


--------------------------------------- Iteration      1(   1)  ---------------------------------------


    POTLOK:  cpu time    0.2525: real time    0.2525
    SETDIJ:  cpu time    0.3457: real time    0.3457
    TRIAL :  cpu time   18.2021: real time   18.3473
    CORREC:  cpu time    0.0065: real time    0.0066
    --------------------------------------------
      LOOP:  cpu time   19.0208: real time   19.1755

 eigenvalue-minimisations  : 22880
 total energy-change (2. order) : 0.1352141E+04  (-0.5847903E+04)
 number of electron     180.0000000 magnetization       0.0000000
 augmentation part      180.0000000 magnetization       0.0000000

 Free energy of the ion-electron system (eV)
  ---------------------------------------------------
  alpha Z        PSCENC =       532.25742704
  Ewald energy   TEWEN  =     -8601.05107233
  -Hartree energ DENC   =     -1903.73857242
  -exchange      EXHF   =         0.00000000
  -V(xc)+E(xc)   XCENC  =      -664.69889690
  PAW double counting   =      8494.55058411    -7650.81563588
  entropy T*S    EENTRO =         0.00121880
  eigenvalues    EBANDS =      2680.51982331
  atomic energy  EATOM  =      8465.11600846
  ---------------------------------------------------
  free energy    TOTEN  =      1352.14088419 eV

  energy without entropy =     1352.13966539  energy(sigma->0) =     1352.14047792


--------------------------------------------------------------------------------------------------------




--------------------------------------- Iteration      1(   2)  ---------------------------------------


    TRIAL :  cpu time   18.8681: real time   18.9909
    CORREC:  cpu time    0.0080: real time    0.0082
    --------------------------------------------
      LOOP:  cpu time   18.8771: real time   19.0016

 eigenvalue-minimisations  : 22880
 total energy-change (2. order) :-0.1408298E+04  (-0.1378924E+04)
 number of electron     180.0000000 magnetization       0.0000000
 augmentation part      180.0000000 magnetization       0.0000000

 Free energy of the ion-electron system (eV)
  ---------------------------------------------------
  alpha Z        PSCENC =       532.25742704
  Ewald energy   TEWEN  =     -8601.05107233
  -Hartree energ DENC   =     -1903.73857242
  -exchange      EXHF   =         0.00000000
  -V(xc)+E(xc)   XCENC  =      -664.69889690
  PAW double counting   =      8494.55058411    -7650.81563588
  entropy T*S    EENTRO =         0.00148342
  eigenvalues    EBANDS =      1272.22203316
  atomic energy  EATOM  =      8465.11600846
  ---------------------------------------------------
  free energy    TOTEN  =       -56.15664133 eV

  energy without entropy =      -56.15812476  energy(sigma->0) =      -56.15713581


--------------------------------------------------------------------------------------------------------




--------------------------------------- Iteration      1(   3)  ---------------------------------------


    TRIAL :  cpu time   25.1531: real time   26.8448
    CORREC:  cpu time    0.0095: real time    0.0104
    --------------------------------------------
      LOOP:  cpu time   25.1637: real time   26.8585

 eigenvalue-minimisations  : 35008
 total energy-change (2. order) :-0.1802933E+03  (-0.1634238E+03)
 number of electron     180.0000000 magnetization       0.0000000
 augmentation part      180.0000000 magnetization       0.0000000

 Free energy of the ion-electron system (eV)
  ---------------------------------------------------
  alpha Z        PSCENC =       532.25742704
  Ewald energy   TEWEN  =     -8601.05107233
  -Hartree energ DENC   =     -1903.73857242
  -exchange      EXHF   =         0.00000000
  -V(xc)+E(xc)   XCENC  =      -664.69889690
  PAW double counting   =      8494.55058411    -7650.81563588
  entropy T*S    EENTRO =         0.00262228
  eigenvalues    EBANDS =      1091.92754838
  atomic energy  EATOM  =      8465.11600846
  ---------------------------------------------------
  free energy    TOTEN  =      -236.44998726 eV

  energy without entropy =     -236.45260954  energy(sigma->0) =     -236.45086135


--------------------------------------------------------------------------------------------------------




--------------------------------------- Iteration      1(   4)  ---------------------------------------


    TRIAL :  cpu time   27.4442: real time   27.6056
    CORREC:  cpu time    0.0097: real time    0.0099
    --------------------------------------------
      LOOP:  cpu time   27.4547: real time   27.6184

 eigenvalue-minimisations  : 37448
 total energy-change (2. order) :-0.2919944E+02  (-0.2618632E+02)
 number of electron     180.0000000 magnetization       0.0000000
 augmentation part      180.0000000 magnetization       0.0000000

 Free energy of the ion-electron system (eV)
  ---------------------------------------------------
  alpha Z        PSCENC =       532.25742704
  Ewald energy   TEWEN  =     -8601.05107233
  -Hartree energ DENC   =     -1903.73857242
  -exchange      EXHF   =         0.00000000
  -V(xc)+E(xc)   XCENC  =      -664.69889690
  PAW double counting   =      8494.55058411    -7650.81563588
  entropy T*S    EENTRO =        -0.00625649
  eigenvalues    EBANDS =      1062.73698306
  atomic energy  EATOM  =      8465.11600846
  ---------------------------------------------------
  free energy    TOTEN  =      -265.64943135 eV

  energy without entropy =     -265.64317486  energy(sigma->0) =     -265.64734585


--------------------------------------------------------------------------------------------------------




--------------------------------------- Iteration      1(   5)  ---------------------------------------


    TRIAL :  cpu time   27.9540: real time   28.8582
    CORREC:  cpu time    0.0101: real time    0.0110
    --------------------------------------------
      LOOP:  cpu time   27.9650: real time   28.8725

 eigenvalue-minimisations  : 38584
 total energy-change (2. order) :-0.3384524E+01  (-0.3216362E+01)
 number of electron     180.0000000 magnetization       0.0000000
 augmentation part      180.0000000 magnetization       0.0000000

 Free energy of the ion-electron system (eV)
  ---------------------------------------------------
  alpha Z        PSCENC =       532.25742704
  Ewald energy   TEWEN  =     -8601.05107233
  -Hartree energ DENC   =     -1903.73857242
  -exchange      EXHF   =         0.00000000
  -V(xc)+E(xc)   XCENC  =      -664.69889690
  PAW double counting   =      8494.55058411    -7650.81563588
  entropy T*S    EENTRO =        -0.00844537
  eigenvalues    EBANDS =      1059.35464746
  atomic energy  EATOM  =      8465.11600846
  ---------------------------------------------------
  free energy    TOTEN  =      -269.03395583 eV

  energy without entropy =     -269.02551046  energy(sigma->0) =     -269.03114071


--------------------------------------------------------------------------------------------------------




--------------------------------------- Iteration      1(   6)  ---------------------------------------


    TRIAL :  cpu time   27.8366: real time   28.0411
    CORREC:  cpu time    0.0102: real time    0.0111
    --------------------------------------------
      LOOP:  cpu time   27.8494: real time   28.0552

 eigenvalue-minimisations  : 38336
 total energy-change (2. order) :-0.3014736E+00  (-0.2913280E+00)
 number of electron     180.0000000 magnetization       0.0000000
 augmentation part      180.0000000 magnetization       0.0000000

 Free energy of the ion-electron system (eV)
  ---------------------------------------------------
  alpha Z        PSCENC =       532.25742704
  Ewald energy   TEWEN  =     -8601.05107233
  -Hartree energ DENC   =     -1903.73857242
  -exchange      EXHF   =         0.00000000
  -V(xc)+E(xc)   XCENC  =      -664.69889690
  PAW double counting   =      8494.55058411    -7650.81563588
  entropy T*S    EENTRO =        -0.00810037
  eigenvalues    EBANDS =      1059.05282884
  atomic energy  EATOM  =      8465.11600846
  ---------------------------------------------------
  free energy    TOTEN  =      -269.33542945 eV

  energy without entropy =     -269.32732908  energy(sigma->0) =     -269.33272933


--------------------------------------------------------------------------------------------------------




--------------------------------------- Iteration      1(   7)  ---------------------------------------


    TRIAL :  cpu time   27.8802: real time   28.7367
    CORREC:  cpu time    0.0102: real time    0.0103
    --------------------------------------------
      LOOP:  cpu time   27.8912: real time   28.7502

 eigenvalue-minimisations  : 39016
 total energy-change (2. order) :-0.3620631E-01  (-0.3539130E-01)
 number of electron     180.0000000 magnetization       0.0000000
 augmentation part      180.0000000 magnetization       0.0000000

 Free energy of the ion-electron system (eV)
  ---------------------------------------------------
  alpha Z        PSCENC =       532.25742704
  Ewald energy   TEWEN  =     -8601.05107233
  -Hartree energ DENC   =     -1903.73857242
  -exchange      EXHF   =         0.00000000
  -V(xc)+E(xc)   XCENC  =      -664.69889690
  PAW double counting   =      8494.55058411    -7650.81563588
  entropy T*S    EENTRO =        -0.00759466
  eigenvalues    EBANDS =      1059.01611682
  atomic energy  EATOM  =      8465.11600846
  ---------------------------------------------------
  free energy    TOTEN  =      -269.37163576 eV

  energy without entropy =     -269.36404110  energy(sigma->0) =     -269.36910421


--------------------------------------------------------------------------------------------------------




--------------------------------------- Iteration      1(   8)  ---------------------------------------


    TRIAL :  cpu time   26.9379: real time   27.1351
    CORREC:  cpu time    0.0104: real time    0.0113
    CHARGE:  cpu time    1.4648: real time    1.4770
    --------------------------------------------
      LOOP:  cpu time   28.4143: real time   28.6274

 eigenvalue-minimisations  : 37744
 total energy-change (2. order) :-0.4478240E-02  (-0.4403204E-02)
 number of electron     179.9999997 magnetization       0.1168061
 augmentation part       42.5478672 magnetization       0.0625806

 Free energy of the ion-electron system (eV)
  ---------------------------------------------------
  alpha Z        PSCENC =       532.25742704
  Ewald energy   TEWEN  =     -8601.05107233
  -Hartree energ DENC   =     -1903.73857242
  -exchange      EXHF   =         0.00000000
  -V(xc)+E(xc)   XCENC  =      -664.69889690
  PAW double counting   =      8494.55058411    -7650.81563588
  entropy T*S    EENTRO =        -0.00722631
  eigenvalues    EBANDS =      1059.01127023
  atomic energy  EATOM  =      8465.11600846
  ---------------------------------------------------
  free energy    TOTEN  =      -269.37611400 eV

  energy without entropy =     -269.36888769  energy(sigma->0) =     -269.37370523


--------------------------------------------------------------------------------------------------------




--------------------------------------- Iteration      1(   9)  ---------------------------------------


    POTLOK:  cpu time    0.2520: real time    0.2520
    SETDIJ:  cpu time    0.3230: real time    0.3231
    TRIAL :  cpu time    9.0269: real time    9.0665
    CORREC:  cpu time    3.9785: real time    4.0694
    CHARGE:  cpu time    1.0758: real time    1.0759
    --------------------------------------------
      LOOP:  cpu time   15.2893: real time   15.4212

 eigenvalue-minimisations  :     0
 total energy-change (2. order) : 0.2097183E+03  (-0.1431255E+03)
 number of electron     179.9999997 magnetization       0.2237779
 augmentation part       53.6805359 magnetization       0.1038246

 Free energy of the ion-electron system (eV)
  ---------------------------------------------------
  alpha Z        PSCENC =       532.25742704
  Ewald energy   TEWEN  =     -8601.05107233
  -Hartree energ DENC   =      -842.34555389
  -exchange      EXHF   =         0.00000000
  -V(xc)+E(xc)   XCENC  =      -695.05854838
  PAW double counting   =     12747.58984836   -11800.50917250
  entropy T*S    EENTRO =        -0.04401803
  eigenvalues    EBANDS =       134.35045576
  atomic energy  EATOM  =      8465.11600846
  ---------------------------------------------------
  free energy    TOTEN  =       -59.65783379 eV

  energy without entropy =      -59.61381576  energy(sigma->0) =      -59.64316112


--------------------------------------------------------------------------------------------------------




--------------------------------------- Iteration      1(  10)  ---------------------------------------


    POTLOK:  cpu time    0.2483: real time    0.2483
    SETDIJ:  cpu time    0.3453: real time    0.3455
    TRIAL :  cpu time    8.9936: real time    9.0389
    CORREC:  cpu time    3.6785: real time    4.4140
    CHARGE:  cpu time    1.1428: real time    1.1428
    --------------------------------------------
      LOOP:  cpu time   14.4118: real time   15.1940

 eigenvalue-minimisations  :     0
 total energy-change (2. order) :-0.1444003E+03  (-0.1251327E+02)
 number of electron     179.9999996 magnetization       0.3437305
 augmentation part       57.2706992 magnetization       0.1950258

 Free energy of the ion-electron system (eV)
  ---------------------------------------------------
  alpha Z        PSCENC =       532.25742704
  Ewald energy   TEWEN  =     -8601.05107233
  -Hartree energ DENC   =     -1338.16346112
  -exchange      EXHF   =         0.00000000
  -V(xc)+E(xc)   XCENC  =      -678.33309785
  PAW double counting   =     13466.32962145   -12627.25293347
  entropy T*S    EENTRO =        -0.04684101
  eigenvalues    EBANDS =       577.08342175
  atomic energy  EATOM  =      8465.11600846
  ---------------------------------------------------
  free energy    TOTEN  =      -204.05810411 eV

  energy without entropy =     -204.01126310  energy(sigma->0) =     -204.04249044


--------------------------------------------------------------------------------------------------------




--------------------------------------- Iteration      1(  11)  ---------------------------------------


    POTLOK:  cpu time    0.2458: real time    0.2466
    SETDIJ:  cpu time    0.3647: real time    0.3647
    TRIAL :  cpu time    8.9774: real time    9.0346
    CORREC:  cpu time    3.3774: real time    3.3920
    CHARGE:  cpu time    1.0884: real time    1.0964
    --------------------------------------------
      LOOP:  cpu time   14.0568: real time   14.1391

 eigenvalue-minimisations  :     0
 total energy-change (2. order) :-0.1255356E+02  (-0.7577459E+01)
 number of electron     179.9999996 magnetization       0.3142261
 augmentation part       58.9888992 magnetization       0.1668430

 Free energy of the ion-electron system (eV)
  ---------------------------------------------------
  alpha Z        PSCENC =       532.25742704
  Ewald energy   TEWEN  =     -8601.05107233
  -Hartree energ DENC   =     -1535.51280477
  -exchange      EXHF   =         0.00000000
  -V(xc)+E(xc)   XCENC  =      -671.18447325
  PAW double counting   =     14304.09947225   -13502.80498505
  entropy T*S    EENTRO =        -0.04705135
  eigenvalues    EBANDS =       792.51560850
  atomic energy  EATOM  =      8465.11600846
  ---------------------------------------------------
  free energy    TOTEN  =      -216.61166016 eV

  energy without entropy =     -216.56460881  energy(sigma->0) =     -216.59597638


--------------------------------------------------------------------------------------------------------




--------------------------------------- Iteration      1(  12)  ---------------------------------------


    POTLOK:  cpu time    0.2472: real time    0.2472
    SETDIJ:  cpu time    0.3211: real time    0.3211
    TRIAL :  cpu time    8.9602: real time    9.0845
    CORREC:  cpu time    3.3470: real time    3.3484
    CHARGE:  cpu time    1.0734: real time    1.0736
    --------------------------------------------
      LOOP:  cpu time   13.9730: real time   14.0989

 eigenvalue-minimisations  :     0
 total energy-change (2. order) :-0.7575927E+01  (-0.8183346E+01)
 number of electron     179.9999996 magnetization       0.4437839
 augmentation part       58.5618699 magnetization       0.2506882

 Free energy of the ion-electron system (eV)
  ---------------------------------------------------
  alpha Z        PSCENC =       532.25742704
  Ewald energy   TEWEN  =     -8601.05107233
  -Hartree energ DENC   =     -1673.96432349
  -exchange      EXHF   =         0.00000000
  -V(xc)+E(xc)   XCENC  =      -666.51997759
  PAW double counting   =     14476.63090069   -13683.69476155
  entropy T*S    EENTRO =        -0.02929845
  eigenvalues    EBANDS =       927.08526293
  atomic energy  EATOM  =      8465.11600846
  ---------------------------------------------------
  free energy    TOTEN  =      -224.18758720 eV

  energy without entropy =     -224.15828874  energy(sigma->0) =     -224.17782104


--------------------------------------------------------------------------------------------------------




--------------------------------------- Iteration      1(  13)  ---------------------------------------


    POTLOK:  cpu time    0.2472: real time    0.2471
    SETDIJ:  cpu time    1.1479: real time    1.1576
    TRIAL :  cpu time    9.0358: real time    9.0685
    CORREC:  cpu time    4.1343: real time    4.1754
    CHARGE:  cpu time    1.0615: real time    1.0616
    --------------------------------------------
      LOOP:  cpu time   15.6588: real time   15.7425

 eigenvalue-minimisations  :     0
 total energy-change (2. order) :-0.8038363E+01  (-0.1333482E+01)
 number of electron     179.9999997 magnetization       0.4346705
 augmentation part       57.5735360 magnetization       0.2499194

 Free energy of the ion-electron system (eV)
  ---------------------------------------------------
  alpha Z        PSCENC =       532.25742704
  Ewald energy   TEWEN  =     -8601.05107233
  -Hartree energ DENC   =     -1714.41844407
  -exchange      EXHF   =         0.00000000
  -V(xc)+E(xc)   XCENC  =      -665.52909764
  PAW double counting   =     14239.64035596   -13424.08748560
  entropy T*S    EENTRO =        -0.02565615
  eigenvalues    EBANDS =       935.87565596
  atomic energy  EATOM  =      8465.11600846
  ---------------------------------------------------
  free energy    TOTEN  =      -232.22595069 eV

  energy without entropy =     -232.20029453  energy(sigma->0) =     -232.21739864


--------------------------------------------------------------------------------------------------------




--------------------------------------- Iteration      1(  14)  ---------------------------------------


    POTLOK:  cpu time    0.2465: real time    0.2470
    SETDIJ:  cpu time    0.3480: real time    0.3487
    TRIAL :  cpu time    8.9946: real time    9.0009
    CORREC:  cpu time    3.7112: real time    4.4418
    CHARGE:  cpu time    1.1116: real time    1.1115
    --------------------------------------------
      LOOP:  cpu time   14.4162: real time   15.1553

 eigenvalue-minimisations  :     0
 total energy-change (2. order) :-0.1309579E+01  (-0.5914211E+00)
 number of electron     179.9999997 magnetization       0.4192355
 augmentation part       57.2381037 magnetization       0.2434267

 Free energy of the ion-electron system (eV)
  ---------------------------------------------------
  alpha Z        PSCENC =       532.25742704
  Ewald energy   TEWEN  =     -8601.05107233
  -Hartree energ DENC   =     -1668.11548304
  -exchange      EXHF   =         0.00000000
  -V(xc)+E(xc)   XCENC  =      -667.27820418
  PAW double counting   =     13965.08008984   -13134.35332449
  entropy T*S    EENTRO =        -0.02264039
  eigenvalues    EBANDS =       874.83468553
  atomic energy  EATOM  =      8465.11600846
  ---------------------------------------------------
  free energy    TOTEN  =      -233.53552933 eV

  energy without entropy =     -233.51288895  energy(sigma->0) =     -233.52798254


--------------------------------------------------------------------------------------------------------




--------------------------------------- Iteration      1(  15)  ---------------------------------------


    POTLOK:  cpu time    0.2478: real time    0.2478
    SETDIJ:  cpu time    0.3536: real time    0.3539
    TRIAL :  cpu time    9.0510: real time    9.0873
    CORREC:  cpu time    3.3580: real time    3.3618
    CHARGE:  cpu time    1.1095: real time    1.1220
    --------------------------------------------
      LOOP:  cpu time   14.1239: real time   14.1779

 eigenvalue-minimisations  :     0
 total energy-change (2. order) :-0.5870128E+00  (-0.8048400E+00)
 number of electron     179.9999996 magnetization       0.4917676
 augmentation part       57.5708653 magnetization       0.2725976

 Free energy of the ion-electron system (eV)
  ---------------------------------------------------
  alpha Z        PSCENC =       532.25742704
  Ewald energy   TEWEN  =     -8601.05107233
  -Hartree energ DENC   =     -1645.87433615
  -exchange      EXHF   =         0.00000000
  -V(xc)+E(xc)   XCENC  =      -668.06066792
  PAW double counting   =     13625.40446120   -12788.59462546
  entropy T*S    EENTRO =        -0.01710351
  eigenvalues    EBANDS =       846.70290344
  atomic energy  EATOM  =      8465.11600846
  ---------------------------------------------------
  free energy    TOTEN  =      -234.12254211 eV

  energy without entropy =     -234.10543860  energy(sigma->0) =     -234.11684094


--------------------------------------------------------------------------------------------------------




--------------------------------------- Iteration      1(  16)  ---------------------------------------


    POTLOK:  cpu time    0.2541: real time    0.2566
    SETDIJ:  cpu time    0.3189: real time    0.3189
    TRIAL :  cpu time    8.9754: real time    9.0460
    CORREC:  cpu time    3.3196: real time    3.3808
    CHARGE:  cpu time    1.0812: real time    1.0814
    --------------------------------------------
      LOOP:  cpu time   13.9514: real time   14.0875

 eigenvalue-minimisations  :     0
 total energy-change (2. order) :-0.8027116E+00  (-0.2268257E+00)
 number of electron     179.9999996 magnetization       0.4350058
 augmentation part       58.0378485 magnetization       0.2567892

 Free energy of the ion-electron system (eV)
  ---------------------------------------------------
  alpha Z        PSCENC =       532.25742704
  Ewald energy   TEWEN  =     -8601.05107233
  -Hartree energ DENC   =     -1650.94981447
  -exchange      EXHF   =         0.00000000
  -V(xc)+E(xc)   XCENC  =      -667.77388944
  PAW double counting   =     13130.09949095   -12293.73572751
  entropy T*S    EENTRO =        -0.01343268
  eigenvalues    EBANDS =       851.12942708
  atomic energy  EATOM  =      8465.11600846
  ---------------------------------------------------
  free energy    TOTEN  =      -234.92525373 eV

  energy without entropy =     -234.91182105  energy(sigma->0) =     -234.92077617


--------------------------------------------------------------------------------------------------------




--------------------------------------- Iteration      1(  17)  ---------------------------------------


    POTLOK:  cpu time    0.2470: real time    0.2470
    SETDIJ:  cpu time    0.3214: real time    0.3214
    TRIAL :  cpu time    9.7332: real time    9.7621
    CORREC:  cpu time    4.0836: real time    4.1291
    CHARGE:  cpu time    1.0581: real time    1.0582
    --------------------------------------------
      LOOP:  cpu time   15.4566: real time   15.5328

 eigenvalue-minimisations  :     0
 total energy-change (2. order) :-0.2265416E+00  (-0.1553864E+00)
 number of electron     179.9999996 magnetization       0.4859741
 augmentation part       58.2541365 magnetization       0.2794715

 Free energy of the ion-electron system (eV)
  ---------------------------------------------------
  alpha Z        PSCENC =       532.25742704
  Ewald energy   TEWEN  =     -8601.05107233
  -Hartree energ DENC   =     -1671.12054600
  -exchange      EXHF   =         0.00000000
  -V(xc)+E(xc)   XCENC  =      -666.94867238
  PAW double counting   =     13035.09905322   -12203.35400304
  entropy T*S    EENTRO =        -0.01112415
  eigenvalues    EBANDS =       874.86344241
  atomic energy  EATOM  =      8465.11600846
  ---------------------------------------------------
  free energy    TOTEN  =      -235.15179529 eV

  energy without entropy =     -235.14067114  energy(sigma->0) =     -235.14808724


--------------------------------------------------------------------------------------------------------




--------------------------------------- Iteration      1(  18)  ---------------------------------------


    POTLOK:  cpu time    0.2475: real time    0.2475
    SETDIJ:  cpu time    0.3507: real time    0.3507
    TRIAL :  cpu time    9.0311: real time    9.0373
    CORREC:  cpu time    3.6891: real time    3.8140
    CHARGE:  cpu time    1.0612: real time    1.7050
    --------------------------------------------
      LOOP:  cpu time   14.3893: real time   15.1653

 eigenvalue-minimisations  :     0
 total energy-change (2. order) :-0.1551510E+00  (-0.1728720E+00)
 number of electron     179.9999996 magnetization       0.4944705
 augmentation part       58.1542513 magnetization       0.2822038

 Free energy of the ion-electron system (eV)
  ---------------------------------------------------
  alpha Z        PSCENC =       532.25742704
  Ewald energy   TEWEN  =     -8601.05107233
  -Hartree energ DENC   =     -1679.58617054
  -exchange      EXHF   =         0.00000000
  -V(xc)+E(xc)   XCENC  =      -666.51328746
  PAW double counting   =     12991.81644701   -12162.48311203
  entropy T*S    EENTRO =        -0.00799180
  eigenvalues    EBANDS =       885.14793775
  atomic energy  EATOM  =      8465.11600846
  ---------------------------------------------------
  free energy    TOTEN  =      -235.30694626 eV

  energy without entropy =     -235.29895446  energy(sigma->0) =     -235.30428232


--------------------------------------------------------------------------------------------------------




--------------------------------------- Iteration      1(  19)  ---------------------------------------


    POTLOK:  cpu time    0.2468: real time    0.2468
    SETDIJ:  cpu time    0.3602: real time    0.3601
    TRIAL :  cpu time    9.1447: real time    9.1843
    CORREC:  cpu time    3.3439: real time    3.3454
    CHARGE:  cpu time    1.0651: real time    1.0723
    --------------------------------------------
      LOOP:  cpu time   14.1681: real time   14.2173

 eigenvalue-minimisations  :     0
 total energy-change (2. order) :-0.1722836E+00  (-0.5739442E-01)
 number of electron     179.9999996 magnetization       0.4820983
 augmentation part       57.9639201 magnetization       0.2826407

 Free energy of the ion-electron system (eV)
  ---------------------------------------------------
  alpha Z        PSCENC =       532.25742704
  Ewald energy   TEWEN  =     -8601.05107233
  -Hartree energ DENC   =     -1671.75169358
  -exchange      EXHF   =         0.00000000
  -V(xc)+E(xc)   XCENC  =      -666.60610421
  PAW double counting   =     12951.44112958   -12121.26192820
  entropy T*S    EENTRO =        -0.00725610
  eigenvalues    EBANDS =       876.38499518
  atomic energy  EATOM  =      8465.11600846
  ---------------------------------------------------
  free energy    TOTEN  =      -235.47922985 eV

  energy without entropy =     -235.47197375  energy(sigma->0) =     -235.47681115


--------------------------------------------------------------------------------------------------------




--------------------------------------- Iteration      1(  20)  ---------------------------------------


    POTLOK:  cpu time    0.2506: real time    0.2581
    SETDIJ:  cpu time    0.3211: real time    0.3211
    TRIAL :  cpu time    8.9843: real time    9.0628
    CORREC:  cpu time    3.3172: real time    3.3832
    CHARGE:  cpu time    1.0591: real time    1.0593
    --------------------------------------------
      LOOP:  cpu time   13.9346: real time   14.0871

 eigenvalue-minimisations  :     0
 total energy-change (2. order) :-0.5714276E-01  (-0.5573348E-01)
 number of electron     179.9999996 magnetization       0.4992803
 augmentation part       57.8085872 magnetization       0.2949638

 Free energy of the ion-electron system (eV)
  ---------------------------------------------------
  alpha Z        PSCENC =       532.25742704
  Ewald energy   TEWEN  =     -8601.05107233
  -Hartree energ DENC   =     -1661.93462286
  -exchange      EXHF   =         0.00000000
  -V(xc)+E(xc)   XCENC  =      -666.90181527
  PAW double counting   =     12936.58872335   -12104.47667186
  entropy T*S    EENTRO =        -0.00662724
  eigenvalues    EBANDS =       864.87290697
  atomic energy  EATOM  =      8465.11600846
  ---------------------------------------------------
  free energy    TOTEN  =      -235.53637261 eV

  energy without entropy =     -235.52974537  energy(sigma->0) =     -235.53416353


--------------------------------------------------------------------------------------------------------




--------------------------------------- Iteration      1(  21)  ---------------------------------------


    POTLOK:  cpu time    0.2470: real time    0.2470
    SETDIJ:  cpu time    0.3219: real time    0.3220
    TRIAL :  cpu time    9.7561: real time    9.7764
    CORREC:  cpu time    3.3187: real time    3.3532
    CHARGE:  cpu time    1.8466: real time    1.8667
    --------------------------------------------
      LOOP:  cpu time   15.4956: real time   15.5714

 eigenvalue-minimisations  :     0
 total energy-change (2. order) :-0.5569282E-01  (-0.6644767E-01)
 number of electron     179.9999996 magnetization       0.5277891
 augmentation part       57.8388127 magnetization       0.3106138

 Free energy of the ion-electron system (eV)
  ---------------------------------------------------
  alpha Z        PSCENC =       532.25742704
  Ewald energy   TEWEN  =     -8601.05107233
  -Hartree energ DENC   =     -1655.64120165
  -exchange      EXHF   =         0.00000000
  -V(xc)+E(xc)   XCENC  =      -667.06942745
  PAW double counting   =     12934.62781578   -12101.11100695
  entropy T*S    EENTRO =        -0.00526527
  eigenvalues    EBANDS =       857.28601891
  atomic energy  EATOM  =      8465.11600846
  ---------------------------------------------------
  free energy    TOTEN  =      -235.59206543 eV

  energy without entropy =     -235.58680016  energy(sigma->0) =     -235.59031034


--------------------------------------------------------------------------------------------------------




--------------------------------------- Iteration      1(  22)  ---------------------------------------


    POTLOK:  cpu time    0.2492: real time    0.2492
    SETDIJ:  cpu time    0.3193: real time    0.3193
    TRIAL :  cpu time    9.0342: real time    9.0410
    CORREC:  cpu time    3.3681: real time    3.3873
    CHARGE:  cpu time    1.0586: real time    1.4711
    --------------------------------------------
      LOOP:  cpu time   14.0321: real time   14.4715

 eigenvalue-minimisations  :     0
 total energy-change (2. order) :-0.6631013E-01  (-0.2609269E-01)
 number of electron     179.9999996 magnetization       0.5193594
 augmentation part       57.9432364 magnetization       0.3096071

 Free energy of the ion-electron system (eV)
  ---------------------------------------------------
  alpha Z        PSCENC =       532.25742704
  Ewald energy   TEWEN  =     -8601.05107233
  -Hartree energ DENC   =     -1660.36443934
  -exchange      EXHF   =         0.00000000
  -V(xc)+E(xc)   XCENC  =      -666.84396551
  PAW double counting   =     12959.31666176   -12126.56629651
  entropy T*S    EENTRO =        -0.00443810
  eigenvalues    EBANDS =       862.48256615
  atomic energy  EATOM  =      8465.11600846
  ---------------------------------------------------
  free energy    TOTEN  =      -235.65837555 eV

  energy without entropy =     -235.65393745  energy(sigma->0) =     -235.65689619


--------------------------------------------------------------------------------------------------------




--------------------------------------- Iteration      1(  23)  ---------------------------------------


    POTLOK:  cpu time    0.2466: real time    0.9088
    SETDIJ:  cpu time    0.3167: real time    0.3167
    TRIAL :  cpu time    9.1076: real time    9.1414
    CORREC:  cpu time    3.4007: real time    3.4059
    CHARGE:  cpu time    1.0803: real time    1.0804
    --------------------------------------------
[...]
  8.436  14.376  -0.000   0.000   0.000  -0.001   0.001   0.000
 14.376  24.500  -0.000   0.000   0.000  -0.002   0.001   0.001
 -0.000  -0.000   1.996   0.000  -0.000   5.747   0.000  -0.000
  0.000   0.000   0.000   1.995   0.000   0.000   5.745   0.000
  0.000   0.000  -0.000   0.000   1.995  -0.000   0.000   5.747
 -0.001  -0.002   5.747   0.000  -0.000  16.469   0.000  -0.000
  0.001   0.001   0.000   5.745   0.000   0.000  16.464   0.001
  0.000   0.001  -0.000   0.000   5.747  -0.000   0.001  16.468
 total augmentation occupancy for first ion, spin component:           1
  4.375  -1.251  -0.001   0.003   0.005  -0.000  -0.000  -0.001
 -1.251   0.377   0.003  -0.000  -0.001  -0.000   0.000   0.000
 -0.001   0.003   1.399   0.001   0.007  -0.100   0.000  -0.000
  0.003  -0.000   0.001   1.512  -0.012   0.000  -0.102   0.000
  0.005  -0.001   0.007  -0.012   1.423  -0.000   0.000  -0.101
 -0.000  -0.000  -0.100   0.000  -0.000   0.008  -0.000   0.000
 -0.000   0.000   0.000  -0.102   0.000  -0.000   0.007  -0.000
 -0.001   0.000  -0.000   0.000  -0.101   0.000  -0.000   0.008
 total augmentation occupancy for first ion, spin component:           2
  0.069  -0.021   0.015  -0.032  -0.020  -0.001   0.001   0.001
 -0.021   0.007   0.002  -0.005  -0.003  -0.000   0.001   0.000
  0.015   0.002   0.029  -0.018  -0.010  -0.002   0.000   0.000
 -0.032  -0.005  -0.018   0.046  -0.069   0.000  -0.002   0.001
 -0.020  -0.003  -0.010  -0.069   0.022   0.000   0.001  -0.002
 -0.001  -0.000  -0.002   0.000   0.000   0.000   0.000   0.000
  0.001   0.001   0.000  -0.002   0.001   0.000   0.000   0.000
  0.001   0.000   0.000   0.001  -0.002   0.000   0.000   0.000


------------------------ aborting loop because EDIFF is reached ----------------------------------------


 


 total charge     
 
# of ion       s       p       d       tot
------------------------------------------
    1        0.404   0.428   0.000   0.832
    2        0.405   0.428   0.000   0.833
    3        0.406   0.426   0.000   0.832
    4        0.406   0.426   0.000   0.832
    5        0.406   0.428   0.000   0.833
    6        0.405   0.427   0.000   0.833
    7        0.405   0.425   0.000   0.829
    8        0.405   0.425   0.000   0.830
    9        0.406   0.427   0.000   0.832
   10        0.406   0.427   0.000   0.832
   11        0.405   0.429   0.000   0.833
   12        0.404   0.429   0.000   0.833
   13        0.404   0.429   0.000   0.833
   14        0.405   0.430   0.000   0.834
   15        0.405   0.425   0.000   0.830
   16        0.405   0.425   0.000   0.830
   17        0.405   0.429   0.000   0.834
   18        0.405   0.429   0.000   0.833
   19        0.335   0.354   5.126   5.815
   20        0.334   0.355   5.127   5.815
   21        0.329   0.351   5.150   5.830
   22        0.330   0.355   5.139   5.823
   23        0.337   0.353   5.120   5.810
   24        0.335   0.358   5.119   5.812
   25        0.333   0.347   5.147   5.827
   26        0.335   0.355   5.132   5.822
   27        0.332   0.355   5.136   5.824
   28        0.336   0.353   5.127   5.816
   29        0.334   0.356   5.122   5.812
   30        0.334   0.355   5.135   5.823
   31        0.332   0.353   5.141   5.826
   32        0.336   0.354   5.124   5.815
   33        0.331   0.348   5.148   5.827
   34        0.333   0.358   5.132   5.822
   35        0.330   0.354   5.143   5.826
   36        0.328   0.353   5.155   5.836
--------------------------------------------------
tot         13.283  14.057  92.422 119.762
 


 magnetization (x)
 
# of ion       s       p       d       tot
------------------------------------------
    1        0.006   0.010   0.000   0.016
    2        0.006   0.010   0.000   0.016
    3        0.008   0.018   0.000   0.025
    4        0.008   0.017   0.000   0.025
    5        0.005   0.011   0.000   0.016
    6        0.006   0.011   0.000   0.017
    7       -0.005  -0.008   0.000  -0.014
    8       -0.005  -0.008   0.000  -0.013
    9       -0.008  -0.018   0.000  -0.025
   10       -0.008  -0.018   0.000  -0.026
   11       -0.006  -0.009   0.000  -0.015
   12       -0.005  -0.009   0.000  -0.015
   13        0.000   0.001   0.000   0.002
   14        0.000   0.001   0.000   0.001
   15       -0.000  -0.001   0.000  -0.001
   16       -0.000  -0.001   0.000  -0.001
   17       -0.000   0.000   0.000   0.000
   18        0.000   0.001   0.000   0.001
   19        0.019   0.025   2.416   2.461
   20       -0.020  -0.025  -2.411  -2.456
   21       -0.022  -0.033  -1.989  -2.045
   22        0.022   0.035   2.110   2.167
   23        0.021   0.026   2.536   2.583
   24       -0.019  -0.024  -2.447  -2.490
   25        0.017   0.001   2.365   2.383
   26        0.029   0.032   2.239   2.300
   27        0.023   0.020   2.216   2.258
   28        0.025   0.015   2.470   2.509
   29        0.007   0.022   2.370   2.399
   30       -0.030  -0.026  -2.263  -2.318
   31       -0.022  -0.013  -2.200  -2.235
   32       -0.026  -0.020  -2.449  -2.495
   33       -0.015   0.006  -2.348  -2.358
   34       -0.029  -0.038  -2.111  -2.177
   35       -0.010  -0.033  -1.938  -1.980
   36        0.033   0.038   1.807   1.878
--------------------------------------------------
tot          0.004   0.017   0.372   0.394
 
    FORLOC:  cpu time    0.0286: real time    0.0286
    FORNL :  cpu time   12.8538: real time   12.9754
    STRESS:  cpu time   18.5658: real time   18.6520
    FORCOR:  cpu time    0.2676: real time    0.2725
    OFIELD:  cpu time    0.0018: real time    0.0018

  FORCE on cell =-STRESS in cart. coord.  units (eV):
  Direction    XX          YY          ZZ          XY          YZ          ZX
  --------------------------------------------------------------------------------------
  Alpha Z   532.25743   532.25743   532.25743
  Ewald   -2702.40749 -2702.40749 -3196.26924    -0.00000    -0.00000    -0.00000
  Hartree   719.93394   721.23000   226.18036     0.05848    -0.00000    -0.00000
  E(xc)    -759.39780  -759.84778  -760.03278    -0.02517     0.00000     0.00000
  Local     252.82834   247.80950  1260.70747    -0.12987    -0.00000     0.00000
  n-local  -110.06975  -111.91440  -123.97418     0.50551    -0.34387    -0.20548
  augment   519.10046   521.01995   515.59759    -0.09301     0.00001     0.00001
  Kinetic  1554.63651  1556.62371  1544.70278     0.11430     0.85315     0.48727
  Fock        0.00000     0.00000     0.00000     0.00000     0.00000     0.00000
  -------------------------------------------------------------------------------------
  Total       6.88162     4.77091    -0.83059     0.43025     0.00000     0.00000
  in kB      23.29639    16.15100    -2.81181     1.45652     0.00000     0.00000
  external pressure =       12.21 kB  Pullay stress =        0.00 kB


 VOLUME and BASIS-vectors are now :
 -----------------------------------------------------------------------------
  energy-cutoff  :      404.80
  volume of cell :      473.27
      direct lattice vectors                 reciprocal lattice vectors
     8.250148166  0.000000000  0.000000000     0.121209944  0.000000000  0.000000000
     0.000000000  8.250148166  0.000000000     0.000000000  0.121209944  0.000000000
     0.000000000  0.000000000  6.953274261     0.000000000  0.000000000  0.143817137

  length of vectors
     8.250148166  8.250148166  6.953274261     0.121209944  0.121209944  0.143817137


 FORCES acting on ions:
    Electron-Ion                     Ewald-Force                    Non-Local-Force
 -----------------------------------------------------------------------------------------------
   0.160E-01 0.109E+00 -.176E-01   -.239E-08 -.239E-08 0.411E-08   -.753E-01 -.408E-01 -.540E-01
   0.160E-01 0.109E+00 0.176E-01   -.239E-08 -.239E-08 0.411E-08   -.753E-01 -.408E-01 0.540E-01
   -.148E+00 0.944E-01 -.382E-01   -.239E-08 -.802E-09 0.411E-08   -.701E-01 0.136E-02 0.138E-01
   -.148E+00 0.944E-01 0.382E-01   -.239E-08 -.802E-09 0.411E-08   -.701E-01 0.136E-02 -.138E-01
   -.256E+00 -.256E+00 0.793E-01   -.239E-08 0.631E-08 0.411E-08   0.262E-01 0.628E-01 -.255E-01
   -.256E+00 -.256E+00 -.793E-01   -.239E-08 0.631E-08 0.411E-08   0.262E-01 0.628E-01 0.255E-01
   -.929E-01 -.102E+00 -.298E-01   -.802E-09 -.239E-08 0.411E-08   0.639E-01 0.451E-01 0.684E-01
   -.929E-01 -.102E+00 0.298E-01   -.802E-09 -.239E-08 0.411E-08   0.639E-01 0.451E-01 -.684E-01
   0.113E+00 0.715E-01 -.662E-01   -.802E-09 -.802E-09 0.411E-08   0.887E-01 0.728E-02 0.295E-01
   0.113E+00 0.715E-01 0.662E-01   -.802E-09 -.802E-09 0.411E-08   0.887E-01 0.728E-02 -.295E-01
   0.117E+00 0.182E-01 -.112E+00   -.802E-09 0.631E-08 0.411E-08   -.653E-02 -.387E-01 0.741E-01
   0.117E+00 0.182E-01 0.112E+00   -.802E-09 0.631E-08 0.411E-08   -.653E-02 -.387E-01 -.741E-01
   0.909E-01 0.164E+00 0.636E-01   0.631E-08 -.239E-08 0.411E-08   0.415E-02 -.840E-01 -.453E-01
   0.909E-01 0.164E+00 -.636E-01   0.631E-08 -.239E-08 0.411E-08   0.415E-02 -.840E-01 0.453E-01
   0.241E-01 0.221E-01 -.448E-01   0.631E-08 -.802E-09 0.411E-08   -.562E-02 0.101E-01 0.213E-01
   0.241E-01 0.221E-01 0.448E-01   0.631E-08 -.802E-09 0.411E-08   -.562E-02 0.101E-01 -.213E-01
   0.123E+00 -.188E+00 0.497E-01   0.631E-08 0.631E-08 0.411E-08   -.142E-01 0.854E-01 -.494E-01
   0.123E+00 -.188E+00 -.497E-01   0.631E-08 0.631E-08 0.411E-08   -.142E-01 0.854E-01 0.494E-01
   0.342E+00 -.613E+00 -.155E-08   -.169E-07 -.169E-07 -.411E-08   -.183E+00 0.370E+00 0.000E+00
   -.469E+00 -.697E+00 -.453E-08   -.169E-07 -.169E-07 -.411E-08   0.352E+00 0.425E+00 0.000E+00
   -.480E+00 0.739E-01 -.388E-08   -.169E-07 0.802E-09 -.411E-08   0.285E+00 -.698E-01 0.000E+00
   0.447E+00 0.109E+00 -.672E-09   -.169E-07 0.802E-09 -.411E-08   -.268E+00 -.633E-01 0.000E+00
   0.701E+00 0.614E+00 -.387E-08   -.169E-07 0.130E-07 -.411E-08   -.407E+00 -.354E+00 0.000E+00
   0.447E+00 0.602E+00 -.108E-08   -.169E-07 0.130E-07 -.411E-08   -.269E+00 -.369E+00 0.000E+00
   -.173E+00 0.126E+00 -.122E-08   0.802E-09 -.169E-07 -.411E-08   0.100E+00 -.188E+00 0.000E+00
   0.191E+00 0.617E+00 -.435E-08   0.802E-09 -.169E-07 -.411E-08   -.117E+00 -.292E+00 0.000E+00
   0.318E+00 -.135E+00 -.354E-08   0.802E-09 0.802E-09 -.411E-08   -.303E+00 0.135E+00 0.000E+00
   -.302E+00 -.431E+00 -.621E-09   0.802E-09 0.802E-09 -.411E-08   0.245E+00 0.226E+00 0.000E+00
   -.517E+00 -.228E-01 -.372E-08   0.802E-09 0.130E-07 -.411E-08   0.268E+00 0.709E-01 0.000E+00
   -.368E+00 -.985E-01 -.103E-08   0.802E-09 0.130E-07 -.411E-08   0.955E-01 0.147E+00 0.000E+00
   -.255E+00 0.209E+00 -.990E-09   0.130E-07 -.169E-07 -.411E-08   0.207E+00 -.162E+00 0.000E+00
   0.377E+00 0.471E+00 -.399E-08   0.130E-07 -.169E-07 -.411E-08   -.254E+00 -.311E+00 0.000E+00
   0.253E+00 -.859E-01 -.343E-08   0.130E-07 0.802E-09 -.411E-08   -.229E+00 0.907E-01 0.000E+00
   -.210E+00 -.535E+00 -.852E-10   0.130E-07 0.802E-09 -.411E-08   0.185E+00 0.290E+00 0.000E+00
   0.249E-01 -.584E-01 -.352E-08   0.130E-07 0.130E-07 -.411E-08   0.437E-02 0.313E-01 0.000E+00
   -.265E+00 0.926E-02 -.549E-09   0.130E-07 0.130E-07 -.411E-08   0.230E+00 -.916E-01 0.000E+00
 -----------------------------------------------------------------------------------------------
   0.349E-01 0.182E-01 -.788E-07   -.197E-14 0.275E-13 0.265E-14   -.349E-01 -.182E-01 0.000E+00
 
 
 POSITION                                       TOTAL-FORCE (eV/Angst)
 -----------------------------------------------------------------------------------
      0.00000      0.00000      0.00000        -0.052703      0.071430     -0.067299
      0.00000      0.00000      3.47664        -0.052703      0.071430      0.067299
      0.00000      2.75005      0.00000        -0.211310      0.096238     -0.026153
      0.00000      2.75005      3.47664        -0.211310      0.096238      0.026153
      0.00000      5.50010      0.00000        -0.232613     -0.198760      0.055271
      0.00000      5.50010      3.47664        -0.232613     -0.198760     -0.055271
      2.75005      0.00000      0.00000        -0.035130     -0.060988      0.031753
      2.75005      0.00000      3.47664        -0.035130     -0.060988     -0.031753
      2.75005      2.75005      0.00000         0.193421      0.078616     -0.040136
      2.75005      2.75005      3.47664         0.193421      0.078616      0.040136
      2.75005      5.50010      0.00000         0.110439     -0.016998     -0.044457
      2.75005      5.50010      3.47664         0.110439     -0.016998      0.044457
      5.50010      0.00000      0.00000         0.095355      0.086811      0.021298
      5.50010      0.00000      3.47664         0.095355      0.086811     -0.021298
      5.50010      2.75005      0.00000         0.018959      0.031665     -0.026485
      5.50010      2.75005      3.47664         0.018959      0.031665      0.026485
      5.50010      5.50010      0.00000         0.110436     -0.109357      0.003600
      5.50010      5.50010      3.47664         0.110436     -0.109357     -0.003600
      1.37502      1.37502      1.73832         0.164882     -0.253677      0.000000
      1.37502      1.37502      5.21496        -0.123505     -0.281626      0.000000
      1.37502      4.12507      1.73832        -0.204482      0.005237      0.000000
      1.37502      4.12507      5.21496         0.186799      0.046648      0.000000
      1.37502      6.87512      1.73832         0.310932      0.271435      0.000000
      1.37502      6.87512      5.21496         0.181101      0.243007      0.000000
      4.12507      1.37502      1.73832        -0.078245     -0.060188      0.000000
      4.12507      1.37502      5.21496         0.075173      0.340827      0.000000
      4.12507      4.12507      1.73832         0.021741     -0.004302      0.000000
      4.12507      4.12507      5.21496        -0.065461     -0.215874      0.000000
      4.12507      6.87512      1.73832        -0.259308      0.048889      0.000000
      4.12507      6.87512      5.21496        -0.277609      0.046754      0.000000
      6.87512      1.37502      1.73832        -0.052086      0.053169      0.000000
      6.87512      1.37502      5.21496         0.131916      0.170887      0.000000
      6.87512      4.12507      1.73832         0.028046      0.002164      0.000000
      6.87512      4.12507      5.21496        -0.025211     -0.258860      0.000000
      6.87512      6.87512      1.73832         0.032513     -0.029481      0.000000
      6.87512      6.87512      5.21496        -0.040906     -0.082324      0.000000
 -----------------------------------------------------------------------------------
    total drift:                               -0.000020     -0.000005     -0.000000


--------------------------------------------------------------------------------------------------------



  FREE ENERGIE OF THE ION-ELECTRON SYSTEM (eV)
  ---------------------------------------------------
  free  energy   TOTEN  =      -235.79889804 eV

  energy  without entropy=     -235.80182545  energy(sigma->0) =     -235.79987385
 


--------------------------------------------------------------------------------------------------------


    POTLOK:  cpu time    1.0198: real time    1.0199


--------------------------------------------------------------------------------------------------------


     LOOP+:  cpu time 1159.7997: real time 1185.6758
    4ORBIT:  cpu time    0.0000: real time    0.0000
 


 total charge     
 
# of ion       s       p       d       tot
------------------------------------------
    1        0.404   0.428   0.000   0.832
    2        0.405   0.428   0.000   0.833
    3        0.406   0.426   0.000   0.832
    4        0.406   0.426   0.000   0.832
    5        0.406   0.428   0.000   0.833
    6        0.405   0.427   0.000   0.833
    7        0.405   0.425   0.000   0.829
    8        0.405   0.425   0.000   0.830
    9        0.406   0.427   0.000   0.832
   10        0.406   0.427   0.000   0.832
   11        0.405   0.429   0.000   0.833
   12        0.404   0.429   0.000   0.833
   13        0.404   0.429   0.000   0.833
   14        0.405   0.430   0.000   0.834
   15        0.405   0.425   0.000   0.830
   16        0.405   0.425   0.000   0.830
   17        0.405   0.429   0.000   0.834
   18        0.405   0.429   0.000   0.833
   19        0.335   0.354   5.126   5.815
   20        0.334   0.355   5.127   5.815
   21        0.329   0.351   5.150   5.830
   22        0.330   0.355   5.139   5.823
   23        0.337   0.353   5.120   5.810
   24        0.335   0.358   5.119   5.812
   25        0.333   0.347   5.147   5.827
   26        0.335   0.355   5.132   5.822
   27        0.332   0.355   5.136   5.824
   28        0.336   0.353   5.127   5.816
   29        0.334   0.356   5.122   5.812
   30        0.334   0.355   5.135   5.823
   31        0.332   0.353   5.141   5.826
   32        0.336   0.354   5.124   5.815
   33        0.331   0.348   5.148   5.827
   34        0.333   0.358   5.132   5.822
   35        0.330   0.354   5.143   5.826
   36        0.328   0.353   5.155   5.836
--------------------------------------------------
tot         13.283  14.057  92.422 119.762
 


 magnetization (x)
 
# of ion       s       p       d       tot
------------------------------------------
    1        0.006   0.010   0.000   0.016
    2        0.006   0.010   0.000   0.016
    3        0.008   0.018   0.000   0.025
    4        0.008   0.017   0.000   0.025
    5        0.005   0.011   0.000   0.016
    6        0.006   0.011   0.000   0.017
    7       -0.005  -0.008   0.000  -0.014
    8       -0.005  -0.008   0.000  -0.013
    9       -0.008  -0.018   0.000  -0.025
   10       -0.008  -0.018   0.000  -0.026
   11       -0.006  -0.009   0.000  -0.015
   12       -0.005  -0.009   0.000  -0.015
   13        0.000   0.001   0.000   0.002
   14        0.000   0.001   0.000   0.001
   15       -0.000  -0.001   0.000  -0.001
   16       -0.000  -0.001   0.000  -0.001
   17       -0.000   0.000   0.000   0.000
   18        0.000   0.001   0.000   0.001
   19        0.019   0.025   2.416   2.461
   20       -0.020  -0.025  -2.411  -2.456
   21       -0.022  -0.033  -1.989  -2.045
   22        0.022   0.035   2.110   2.167
   23        0.021   0.026   2.536   2.583
   24       -0.019  -0.024  -2.447  -2.490
   25        0.017   0.001   2.365   2.383
   26        0.029   0.032   2.239   2.300
   27        0.023   0.020   2.216   2.258
   28        0.025   0.015   2.470   2.509
   29        0.007   0.022   2.370   2.399
   30       -0.030  -0.026  -2.263  -2.318
   31       -0.022  -0.013  -2.200  -2.235
   32       -0.026  -0.020  -2.449  -2.495
   33       -0.015   0.006  -2.348  -2.358
   34       -0.029  -0.038  -2.111  -2.177
   35       -0.010  -0.033  -1.938  -1.980
   36        0.033   0.038   1.807   1.878
--------------------------------------------------
tot          0.004   0.017   0.372   0.394
 

 total amount of memory used by VASP MPI-rank0   740218. kBytes
=======================================================================

   base      :      30000. kBytes
   nonl-proj :      34307. kBytes
   fftplans  :      21726. kBytes
   grid      :      14732. kBytes
   one-center:        279. kBytes
   wavefun   :     639174. kBytes
 
  
  
 General timing and accounting informations for this job:
 ========================================================
  
                  Total CPU time used (sec):     1185.696
                            User time (sec):     1163.875
                          System time (sec):       21.820
                         Elapsed time (sec):     1215.463
  
                   Maximum memory used (kb):      879244.
                   Average memory used (kb):           0.
  
                          Minor page faults:       415196
                          Major page faults:           18
                 Voluntary context switches:         4038
