   36   36    1    2
  0.1314651E+02  0.8250148E-09  0.8250148E-09  0.6953274E-09  0.2000000E-15
  1.000000000000000E-004
  CAR 
 AlMn_pv                                 
    180     52    108
 
  0.0000000E+00  0.0000000E+00  0.0000000E+00  0.6666667E-02
    1       -2.516417     -2.521344   1.000000   1.000000
    2       -0.369270     -0.371080   1.000000   1.000000
    3       -0.340682     -0.346796   1.000000   1.000000
    4       -0.324469     -0.323366   1.000000   1.000000
    5       -0.296739     -0.312526   1.000000   1.000000
    6       -0.122531     -0.114042   1.000000   1.000000
    7        1.365842      1.359640   1.000000   1.000000
    8        1.378423      1.371973   1.000000   1.000000
    9        1.403990      1.375865   1.000000   1.000000
   10        1.416334      1.412387   1.000000   1.000000
   11        1.433439      1.426531   1.000000   1.000000
   12        1.555040      1.552683   1.000000   1.000000
   13        1.568482      1.561466   1.000000   1.000000
   14        1.626077      1.610859   1.000000   1.000000
   15        1.646704      1.617235   1.000000   1.000000
   16        2.739641      2.715116   1.000000   1.000000
   17        2.760967      2.738824   1.000000   1.000000
   18        2.842263      2.819683   1.000000   1.000000
   19        2.854115      2.838254   1.000000   1.000000
   20        3.490095      3.441606   1.000000   1.000000
   21        3.527876      3.512318   1.000000   1.000000
   22        3.587013      3.579769   1.000000   1.000000
   23        3.652036      3.589602   1.000000   1.000000
   24        4.053759      4.123390   1.000000   1.000000
   25        4.270072      4.129396   1.000000   1.000000
   26        4.442920      4.272085   1.000000   1.000000
   27        4.528297      4.480428   1.000000   1.000000
   28        4.551566      4.501941   1.000000   1.000000
   29        4.565319      4.538084   1.000000   1.000000
   30        4.659987      4.579150   1.000000   1.000000
   31        4.667213      4.640817   1.000000   1.000000
   32        4.730041      4.688724   1.000000   1.000000
   33        4.763818      4.717448   1.000000   1.000000
   34        4.769798      4.721088   1.000000   1.000000
   35        4.903026      4.783185   1.000000   1.000000
   36        4.928433      4.841796   1.000000   1.000000
   37        4.957644      4.912076   1.000000   1.000000
   38        4.995515      4.960686   1.000000   1.000000
   39        5.066932      5.031699   1.000000   1.000000
   40        5.164179      5.219395   1.000000   1.000000
   41        5.284976      5.242224   1.000000   1.000000
   42        5.356031      5.315268   1.000000   1.000000
   43        5.367935      5.338179   1.000000   1.000000
   44        5.382738      5.362201   1.000000   1.000000
   45        5.460511      5.387084   1.000000   1.000000
   46        5.515128      5.394690   1.000000   1.000000
   47        5.517870      5.469714   1.000000   1.000000
   48        5.605581      5.482510   1.000000   1.000000
   49        5.633216      5.571439   1.000000   1.000000
   50        5.677873      5.597403   1.000000   1.000000
   51        5.716765      5.624743   1.000000   1.000000
   52        5.730861      5.653633   1.000000   1.000000
   53        5.763431      5.702104   1.000000   1.000000
   54        5.849124      5.782429   1.000000   1.000000
   55        5.922131      5.799443   1.000000   1.000000
   56        5.953471      5.813380   1.000000   1.000000
   57        6.071815      5.920279   1.000000   1.000000
   58        6.244447      5.925241   1.000000   1.000000
   59        6.252162      5.939124   1.000000   1.000000
   60        6.305598      6.130755   1.000000   1.000000
   61        6.357737      6.244501   1.000000   1.000000
   62        6.377099      6.252187   1.000000   1.000000
   63        6.411705      6.340455   1.000000   1.000000
   64        6.462179      6.381678   1.000000   1.000000
   65        6.499804      6.425881   1.000000   1.000000
   66        6.582574      6.436453   1.000000   1.000000
   67        6.605340      6.478793   1.000000   1.000000
   68        6.628595      6.509330   1.000000   1.000000
   69        6.629252      6.555262   1.000000   1.000000
   70        6.653130      6.573433   1.000000   1.000000
   71        6.733619      6.627764   1.000000   1.000000
   72        6.747177      6.669081   1.000000   1.000000
   73        6.778870      6.692675   1.000000   1.000000
   74        6.877972      6.701544   1.000000   1.000000
   75        6.881626      6.715344   1.000000   1.000000
   76        6.978132      6.739343   1.000001   1.000000
   77        6.998772      6.778070   1.000002   1.000000
   78        7.097261      6.806646   1.000039   1.000000
   79        7.163374      6.839557   1.000251   1.000000
   80        7.229326      6.897672   1.001220   1.000000
   81        7.246451      6.963583   1.001751   1.000000
   82        7.384338      6.969075   1.018021   1.000001
   83        7.390337      7.193009   1.019226   1.000524
   84        7.486190      7.270286   1.035402   1.002907
   85        7.508229      7.304376   1.032429   1.005445
   86        7.617961      7.326062   0.894130   1.007847
   87        7.694276      7.405099   0.636634   1.022754
   88        7.697064      7.407499   0.626732   1.023167
   89        7.810567      7.503237   0.176705   1.033453
   90        7.812589      7.578461   0.172586   0.973471
   91        7.879283      7.600176   0.020420   0.934435
   92        7.970973      7.630539  -0.035457   0.860002
   93        8.039449      7.782640  -0.024909   0.271033
   94        8.107539      7.942959  -0.010723  -0.031643
   95        8.116681      7.943046  -0.009429  -0.032311
   96        8.236886      8.033678  -0.000915  -0.026057
   97        8.300948      8.118515  -0.000060  -0.007366
   98        8.409775      8.159178  -0.000000  -0.004549
   99        8.440098      8.182798  -0.000000  -0.000131
  100        8.605338      8.314518  -0.000000  -0.000000
  101        8.626217      8.532907  -0.000000  -0.000000
  102        8.670793      8.605757  -0.000000  -0.000000
  103        8.695044      8.675234  -0.000000  -0.000000
  104        8.753793      8.750873  -0.000000  -0.000000
  105        8.757125      8.754635  -0.000000  -0.000000
  106        8.853503      8.885958  -0.000000   0.000000
  107        8.912249      8.916090   0.000000   0.000000
  108        9.008085      9.277795   0.000000   0.000000
 
  0.2000000E+00  0.0000000E+00  0.0000000E+00  0.1333333E-01
    1       -2.425968     -2.430776   1.000000   1.000000
    2       -1.099446     -1.104873   1.000000   1.000000
    3       -0.262884     -0.267927   1.000000   1.000000
    4       -0.237712     -0.243780   1.000000   1.000000
    5       -0.056457     -0.048581   1.000000   1.000000
    6        0.571088      0.565260   1.000000   1.000000
    7        0.887178      0.887135   1.000000   1.000000
    8        0.934966      0.923077   1.000000   1.000000
    9        0.945884      0.937805   1.000000   1.000000
   10        1.435632      1.437225   1.000000   1.000000
   11        1.482996      1.468306   1.000000   1.000000
   12        1.498774      1.476794   1.000000   1.000000
   13        1.937563      1.917066   1.000000   1.000000
   14        2.312638      2.295796   1.000000   1.000000
   15        2.329136      2.314589   1.000000   1.000000
   16        2.345748      2.317551   1.000000   1.000000
   17        2.354896      2.341433   1.000000   1.000000
   18        2.842285      2.809565   1.000000   1.000000
   19        3.252221      3.219074   1.000000   1.000000
   20        3.285678      3.257278   1.000000   1.000000
   21        3.595926      3.566663   1.000000   1.000000
   22        3.659833      3.621408   1.000000   1.000000
   23        3.752367      3.729560   1.000000   1.000000
   24        4.037989      4.095002   1.000000   1.000000
   25        4.217720      4.102474   1.000000   1.000000
   26        4.334581      4.236806   1.000000   1.000000
   27        4.391251      4.297008   1.000000   1.000000
   28        4.462521      4.403692   1.000000   1.000000
   29        4.575603      4.506177   1.000000   1.000000
   30        4.581630      4.558215   1.000000   1.000000
   31        4.654272      4.588278   1.000000   1.000000
   32        4.667174      4.596708   1.000000   1.000000
   33        4.709422      4.627566   1.000000   1.000000
   34        4.756165      4.695109   1.000000   1.000000
   35        4.847325      4.819882   1.000000   1.000000
   36        4.896958      4.894066   1.000000   1.000000
   37        5.026099      4.971190   1.000000   1.000000
   38        5.060315      5.051503   1.000000   1.000000
   39        5.085388      5.074059   1.000000   1.000000
   40        5.107484      5.090733   1.000000   1.000000
   41        5.171689      5.126467   1.000000   1.000000
   42        5.320065      5.249839   1.000000   1.000000
   43        5.360372      5.313335   1.000000   1.000000
   44        5.361736      5.365099   1.000000   1.000000
   45        5.486117      5.388349   1.000000   1.000000
   46        5.506010      5.404671   1.000000   1.000000
   47        5.536245      5.483124   1.000000   1.000000
   48        5.630872      5.489611   1.000000   1.000000
   49        5.662716      5.582910   1.000000   1.000000
   50        5.709768      5.606180   1.000000   1.000000
   51        5.727593      5.647287   1.000000   1.000000
   52        5.740973      5.691966   1.000000   1.000000
   53        5.862868      5.747425   1.000000   1.000000
   54        5.882775      5.779805   1.000000   1.000000
   55        5.987801      5.813558   1.000000   1.000000
   56        5.993233      5.852867   1.000000   1.000000
   57        6.089043      5.890048   1.000000   1.000000
   58        6.161014      5.949436   1.000000   1.000000
   59        6.193908      5.985716   1.000000   1.000000
   60        6.292620      6.095402   1.000000   1.000000
   61        6.343741      6.245800   1.000000   1.000000
   62        6.362735      6.246949   1.000000   1.000000
   63        6.383510      6.315131   1.000000   1.000000
   64        6.418022      6.343700   1.000000   1.000000
   65        6.443223      6.361560   1.000000   1.000000
   66        6.500823      6.406562   1.000000   1.000000
   67        6.549552      6.463748   1.000000   1.000000
   68        6.564250      6.504761   1.000000   1.000000
   69        6.632645      6.527202   1.000000   1.000000
   70        6.639087      6.556744   1.000000   1.000000
   71        6.722674      6.640733   1.000000   1.000000
   72        6.761103      6.650004   1.000000   1.000000
   73        6.786265      6.701194   1.000000   1.000000
   74        6.856425      6.713102   1.000000   1.000000
   75        6.903932      6.713219   1.000000   1.000000
   76        6.906940      6.748059   1.000000   1.000000
   77        6.995163      6.763450   1.000001   1.000000
   78        7.128186      6.783080   1.000097   1.000000
   79        7.193311      6.826904   1.000525   1.000000
   80        7.195870      6.898987   1.000559   1.000000
   81        7.289565      6.910293   1.004158   1.000000
   82        7.391092      6.947705   1.019437   1.000000
   83        7.398991      7.046041   1.021183   1.000008
   84        7.468725      7.234744   1.034789   1.001378
   85        7.519444      7.325331   1.028620   1.007844
   86        7.540195      7.344851   1.017159   1.010560
   87        7.669885      7.411819   0.731778   1.024210
   88        7.741079      7.420664   0.441106   1.026324
   89        7.808288      7.523108   0.183773   1.026964
   90        7.856806      7.569816   0.059660   0.986071
   91        7.908414      7.655395  -0.012475   0.782867
   92        7.993261      7.666360  -0.033904   0.741555
   93        8.026415      7.811457  -0.027729   0.175243
   94        8.085197      7.877121  -0.014832   0.022783
   95        8.158373      7.974794  -0.004676  -0.035421
   96        8.262067      8.078819  -0.000471  -0.015987
   97        8.297316      8.109243  -0.000210  -0.010343
   98        8.297718      8.130729  -0.000205  -0.007457
   99        8.399627      8.244617  -0.000010  -0.000762
  100        8.510937      8.277565  -0.000000  -0.000342
  101        8.590624      8.356835  -0.000000  -0.000035
  102        8.611403      8.440546  -0.000000  -0.000000
  103        8.636477      8.460539  -0.000000  -0.000000
  104        8.657109      8.645268  -0.000000   0.000000
  105        8.924641      8.750927  -0.000000   0.000000
  106        8.944309      8.803881  -0.000000   0.000000
  107        9.228900      9.101230   0.000000   0.000000
  108        9.319579      9.125098   0.000000   0.000000
 
  0.4000000E+00  0.0000000E+00  0.0000000E+00  0.1333333E-01
    1       -2.156693     -2.160695   1.000000   1.000000
    2       -1.709708     -1.715925   1.000000   1.000000
    3       -0.017517     -0.022291   1.000000   1.000000
    4        0.006643      0.000230   1.000000   1.000000
    5        0.139590      0.144850   1.000000   1.000000
    6        0.390237      0.381507   1.000000   1.000000
    7        0.406964      0.401043   1.000000   1.000000
    8        0.458798      0.464648   1.000000   1.000000
    9        1.589104      1.577351   1.000000   1.000000
   10        1.615670      1.620637   1.000000   1.000000
   11        1.664588      1.656573   1.000000   1.000000
   12        1.775412      1.747469   1.000000   1.000000
   13        1.938243      1.921214   1.000000   1.000000
   14        1.967592      1.956799   1.000000   1.000000
   15        2.241855      2.207892   1.000000   1.000000
   16        2.355521      2.326319   1.000000   1.000000
   17        2.686544      2.673727   1.000000   1.000000
   18        2.944055      2.917536   1.000000   1.000000
   19        3.047278      2.998183   1.000000   1.000000
   20        3.594771      3.542001   1.000000   1.000000
   21        3.695179      3.665352   1.000000   1.000000
   22        3.781629      3.736655   1.000000   1.000000
   23        3.812025      3.773003   1.000000   1.000000
   24        3.976938      3.990660   1.000000   1.000000
   25        4.054590      4.008143   1.000000   1.000000
   26        4.156806      4.084343   1.000000   1.000000
   27        4.189031      4.153828   1.000000   1.000000
   28        4.346703      4.251957   1.000000   1.000000
   29        4.392486      4.318368   1.000000   1.000000
   30        4.481900      4.430244   1.000000   1.000000
   31        4.545028      4.494089   1.000000   1.000000
   32        4.557730      4.545982   1.000000   1.000000
   33        4.678702      4.660586   1.000000   1.000000
   34        4.772977      4.722677   1.000000   1.000000
   35        4.862964      4.829499   1.000000   1.000000
   36        4.953786      4.891716   1.000000   1.000000
   37        5.029692      4.945115   1.000000   1.000000
   38        5.045130      4.970977   1.000000   1.000000
   39        5.098676      5.139690   1.000000   1.000000
   40        5.181241      5.184892   1.000000   1.000000
   41        5.235418      5.213361   1.000000   1.000000
   42        5.288320      5.270459   1.000000   1.000000
   43        5.355652      5.291629   1.000000   1.000000
   44        5.362301      5.348598   1.000000   1.000000
   45        5.474638      5.363315   1.000000   1.000000
   46        5.511750      5.471885   1.000000   1.000000
   47        5.559924      5.474568   1.000000   1.000000
   48        5.633334      5.548883   1.000000   1.000000
   49        5.663900      5.568385   1.000000   1.000000
   50        5.714750      5.604479   1.000000   1.000000
   51        5.720549      5.662046   1.000000   1.000000
   52        5.724714      5.662278   1.000000   1.000000
   53        5.873568      5.692845   1.000000   1.000000
   54        5.991547      5.724029   1.000000   1.000000
   55        6.008800      5.748504   1.000000   1.000000
   56        6.087279      5.847275   1.000000   1.000000
   57        6.089213      5.883634   1.000000   1.000000
   58        6.108369      5.968193   1.000000   1.000000
   59        6.129595      5.977013   1.000000   1.000000
   60        6.197584      6.200101   1.000000   1.000000
   61        6.260632      6.218427   1.000000   1.000000
   62        6.300498      6.221318   1.000000   1.000000
   63        6.336543      6.256340   1.000000   1.000000
   64        6.371097      6.275754   1.000000   1.000000
   65        6.409402      6.322967   1.000000   1.000000
   66        6.423266      6.410435   1.000000   1.000000
   67        6.536783      6.436979   1.000000   1.000000
   68        6.543944      6.477200   1.000000   1.000000
   69        6.575877      6.498886   1.000000   1.000000
   70        6.590046      6.534369   1.000000   1.000000
   71        6.721636      6.542496   1.000000   1.000000
   72        6.742699      6.618673   1.000000   1.000000
   73        6.777348      6.662545   1.000000   1.000000
   74        6.837007      6.670481   1.000000   1.000000
   75        6.869490      6.701601   1.000000   1.000000
   76        6.981286      6.717561   1.000001   1.000000
   77        7.050587      6.741919   1.000010   1.000000
   78        7.120102      6.823846   1.000077   1.000000
   79        7.160647      6.866654   1.000231   1.000000
   80        7.202502      6.881667   1.000652   1.000000
   81        7.249188      6.943560   1.001855   1.000000
   82        7.356131      6.976321   1.012314   1.000001
   83        7.404087      7.039065   1.022351   1.000006
   84        7.452076      7.227633   1.032592   1.001181
   85        7.454219      7.280635   1.032998   1.003536
   86        7.600297      7.357799   0.934553   1.012811
   87        7.641941      7.409767   0.825362   1.023799
   88        7.819468      7.464323   0.151748   1.034390
   89        7.851034      7.522336   0.069983   1.027207
   90        7.886671      7.594016   0.010317   0.946533
   91        7.956065      7.605632  -0.034343   0.922538
   92        7.983772      7.659041  -0.034998   0.770265
   93        8.029485      7.781339  -0.027153   0.276960
   94        8.110578      7.931073  -0.010366  -0.027216
   95        8.194274      7.982297  -0.002342  -0.035058
   96        8.259771      8.014768  -0.000528  -0.030260
   97        8.284977      8.031942  -0.000284  -0.026463
   98        8.317863      8.217578  -0.000119  -0.001395
   99        8.355131      8.266384  -0.000041  -0.000445
  100        8.402237      8.278051  -0.000010  -0.000021
  101        8.465013      8.325926  -0.000001  -0.000000
  102        8.493051      8.375812  -0.000000  -0.000000
  103        8.535853      8.448746  -0.000000  -0.000000
  104        8.583520      8.563471  -0.000000  -0.000000
  105        8.688922      8.671034  -0.000000  -0.000000
  106        8.958737      8.695212  -0.000000   0.000000
  107        9.035886      9.009248  -0.000000   0.000000
  108        9.336169      9.017607   0.000000   0.000000
 
  0.0000000E+00  0.2000000E+00  0.0000000E+00  0.1333333E-01
    1       -2.425886     -2.430796   1.000000   1.000000
    2       -1.099644     -1.104930   1.000000   1.000000
    3       -0.279307     -0.266977   1.000000   1.000000
    4       -0.220351     -0.244327   1.000000   1.000000
    5       -0.056566     -0.048363   1.000000   1.000000
    6        0.571210      0.564138   1.000000   1.000000
    7        0.885665      0.888471   1.000000   1.000000
    8        0.919487      0.927372   1.000000   1.000000
    9        0.960402      0.934197   1.000000   1.000000
   10        1.438292      1.424055   1.000000   1.000000
   11        1.487699      1.468368   1.000000   1.000000
   12        1.499087      1.484795   1.000000   1.000000
   13        1.930151      1.921954   1.000000   1.000000
   14        2.319391      2.286592   1.000000   1.000000
   15        2.335947      2.306375   1.000000   1.000000
   16        2.338818      2.327558   1.000000   1.000000
   17        2.347916      2.346484   1.000000   1.000000
   18        2.841723      2.807992   1.000000   1.000000
   19        3.223499      3.213788   1.000000   1.000000
   20        3.319447      3.269964   1.000000   1.000000
   21        3.570532      3.560577   1.000000   1.000000
   22        3.689887      3.635394   1.000000   1.000000
   23        3.751224      3.731568   1.000000   1.000000
   24        4.043472      4.093111   1.000000   1.000000
   25        4.218712      4.100402   1.000000   1.000000
   26        4.321720      4.222134   1.000000   1.000000
   27        4.367328      4.297018   1.000000   1.000000
   28        4.518660      4.445659   1.000000   1.000000
   29        4.582250      4.503150   1.000000   1.000000
   30        4.598357      4.532832   1.000000   1.000000
   31        4.629311      4.563727   1.000000   1.000000
   32        4.650658      4.588452   1.000000   1.000000
   33        4.691839      4.637118   1.000000   1.000000
   34        4.748938      4.683837   1.000000   1.000000
   35        4.872717      4.853428   1.000000   1.000000
   36        4.917528      4.940748   1.000000   1.000000
   37        5.019173      5.000601   1.000000   1.000000
   38        5.029948      5.024394   1.000000   1.000000
   39        5.115717      5.044493   1.000000   1.000000
   40        5.136572      5.044960   1.000000   1.000000
   41        5.176093      5.123616   1.000000   1.000000
   42        5.261226      5.256819   1.000000   1.000000
   43        5.376114      5.287258   1.000000   1.000000
   44        5.379178      5.313986   1.000000   1.000000
   45        5.444512      5.366036   1.000000   1.000000
   46        5.465538      5.425691   1.000000   1.000000
   47        5.525036      5.491896   1.000000   1.000000
   48        5.535252      5.525655   1.000000   1.000000
   49        5.629961      5.575810   1.000000   1.000000
   50        5.673854      5.629763   1.000000   1.000000
   51        5.719645      5.635397   1.000000   1.000000
   52        5.822664      5.679090   1.000000   1.000000
   53        5.877777      5.765526   1.000000   1.000000
   54        5.930922      5.768453   1.000000   1.000000
   55        5.952011      5.838923   1.000000   1.000000
   56        6.022660      5.890177   1.000000   1.000000
   57        6.126046      5.920622   1.000000   1.000000
   58        6.246516      5.941172   1.000000   1.000000
   59        6.247443      5.973892   1.000000   1.000000
   60        6.279826      6.074357   1.000000   1.000000
   61        6.344238      6.242076   1.000000   1.000000
   62        6.347085      6.289987   1.000000   1.000000
   63        6.405655      6.305935   1.000000   1.000000
   64        6.423833      6.324476   1.000000   1.000000
   65        6.463148      6.376170   1.000000   1.000000
   66        6.514081      6.419135   1.000000   1.000000
   67        6.585339      6.464643   1.000000   1.000000
   68        6.592947      6.527938   1.000000   1.000000
   69        6.632636      6.539381   1.000000   1.000000
   70        6.664196      6.595078   1.000000   1.000000
   71        6.674589      6.628030   1.000000   1.000000
   72        6.739256      6.662284   1.000000   1.000000
   73        6.757302      6.685400   1.000000   1.000000
   74        6.816914      6.685822   1.000000   1.000000
   75        6.837887      6.708060   1.000000   1.000000
   76        6.934844      6.739254   1.000000   1.000000
   77        7.063307      6.747896   1.000014   1.000000
   78        7.133662      6.794866   1.000113   1.000000
   79        7.141415      6.830091   1.000140   1.000000
   80        7.149594      6.864043   1.000173   1.000000
   81        7.296505      6.919643   1.004720   1.000000
   82        7.345743      6.983826   1.010678   1.000001
   83        7.427631      7.090386   1.027807   1.000032
   84        7.457386      7.142225   1.033450   1.000142
   85        7.541633      7.243445   1.016272   1.001672
   86        7.575098      7.249930   0.979156   1.001902
   87        7.674053      7.378394   0.715786   1.016817
   88        7.707024      7.422093   0.585829   1.026550
   89        7.772956      7.562804   0.310993   0.994834
   90        7.805328      7.583881   0.193570   0.965004
   91        7.903001      7.687873  -0.007612   0.662138
   92        8.024806      7.792670  -0.028158   0.235266
   93        8.064769      7.804768  -0.018807   0.196147
   94        8.098978      7.910415  -0.012264  -0.014893
   95        8.168031      7.957390  -0.003906  -0.034596
   96        8.197835      8.057722  -0.002115  -0.019169
   97        8.231636      8.109650  -0.001023  -0.010399
   98        8.286170      8.155814  -0.000278  -0.004837
   99        8.372046      8.183719  -0.000020  -0.002850
  100        8.580988      8.298864  -0.000000  -0.000121
  101        8.597992      8.316409  -0.000000  -0.000032
  102        8.687565      8.404650  -0.000000  -0.000002
  103        8.807240      8.497890  -0.000000  -0.000000
  104        8.830060      8.727172  -0.000000  -0.000000
  105        8.855987      8.743620  -0.000000  -0.000000
  106        8.905612      8.883216  -0.000000   0.000000
  107        8.959209      8.894421   0.000000   0.000000
  108        9.073827      9.124936   0.000000   0.000000
 
  0.2000000E+00  0.2000000E+00  0.0000000E+00  0.1333333E-01
    1       -2.335705     -2.340512   1.000000   1.000000
    2       -1.025888     -1.027468   1.000000   1.000000
    3       -1.001275     -1.010311   1.000000   1.000000
    4        0.009367      0.016983   1.000000   1.000000
    5        0.230737      0.224116   1.000000   1.000000
    6        0.640662      0.637326   1.000000   1.000000
    7        0.662914      0.652212   1.000000   1.000000
    8        0.940527      0.939657   1.000000   1.000000
    9        0.961061      0.963461   1.000000   1.000000
   10        1.592702      1.562053   1.000000   1.000000
   11        1.725678      1.716899   1.000000   1.000000
   12        1.785846      1.766251   1.000000   1.000000
   13        1.848417      1.839012   1.000000   1.000000
   14        1.996902      1.979945   1.000000   1.000000
   15        2.006888      1.995950   1.000000   1.000000
   16        2.810071      2.789046   1.000000   1.000000
   17        2.887232      2.851908   1.000000   1.000000
   18        2.889345      2.860135   1.000000   1.000000
   19        2.895640      2.862376   1.000000   1.000000
   20        2.955270      2.924332   1.000000   1.000000
   21        3.678840      3.640352   1.000000   1.000000
   22        3.790742      3.775419   1.000000   1.000000
   23        3.811457      3.780367   1.000000   1.000000
   24        3.847577      3.821676   1.000000   1.000000
   25        4.172549      4.106450   1.000000   1.000000
   26        4.334510      4.283264   1.000000   1.000000
   27        4.367074      4.326651   1.000000   1.000000
   28        4.391837      4.349025   1.000000   1.000000
   29        4.454891      4.371998   1.000000   1.000000
   30        4.502574      4.435504   1.000000   1.000000
   31        4.518428      4.453278   1.000000   1.000000
   32        4.661725      4.579587   1.000000   1.000000
   33        4.685554      4.631081   1.000000   1.000000
   34        4.792808      4.689566   1.000000   1.000000
   35        4.819088      4.798004   1.000000   1.000000
   36        4.873115      4.896425   1.000000   1.000000
   37        4.936867      4.910317   1.000000   1.000000
   38        4.990646      4.971915   1.000000   1.000000
   39        5.098252      5.061639   1.000000   1.000000
   40        5.195333      5.109527   1.000000   1.000000
   41        5.261059      5.255857   1.000000   1.000000
   42        5.278248      5.263333   1.000000   1.000000
   43        5.331464      5.298624   1.000000   1.000000
   44        5.396722      5.318078   1.000000   1.000000
   45        5.452440      5.413436   1.000000   1.000000
   46        5.473046      5.421131   1.000000   1.000000
   47        5.567995      5.469494   1.000000   1.000000
   48        5.647318      5.536286   1.000000   1.000000
   49        5.663350      5.597770   1.000000   1.000000
   50        5.736059      5.626616   1.000000   1.000000
   51        5.758278      5.674770   1.000000   1.000000
   52        5.863293      5.730840   1.000000   1.000000
   53        5.913414      5.771868   1.000000   1.000000
   54        5.955626      5.831405   1.000000   1.000000
   55        5.957133      5.834224   1.000000   1.000000
   56        6.051047      5.854193   1.000000   1.000000
   57        6.101481      5.913698   1.000000   1.000000
   58        6.162728      5.963861   1.000000   1.000000
   59        6.206593      6.013720   1.000000   1.000000
   60        6.253144      6.027521   1.000000   1.000000
   61        6.303196      6.196993   1.000000   1.000000
   62        6.378609      6.245285   1.000000   1.000000
   63        6.401626      6.308460   1.000000   1.000000
   64        6.409743      6.367024   1.000000   1.000000
   65        6.465298      6.398572   1.000000   1.000000
   66        6.479793      6.407554   1.000000   1.000000
   67        6.533214      6.448346   1.000000   1.000000
   68        6.578538      6.517064   1.000000   1.000000
   69        6.607054      6.537672   1.000000   1.000000
   70        6.640035      6.606943   1.000000   1.000000
   71        6.658395      6.635889   1.000000   1.000000
   72        6.737445      6.646674   1.000000   1.000000
   73        6.767914      6.656721   1.000000   1.000000
   74        6.828098      6.680718   1.000000   1.000000
   75        6.926760      6.724631   1.000000   1.000000
   76        6.932415      6.726248   1.000000   1.000000