       N       E                     dE             d eps       ncg     rms          ort
DAV:   1     0.136011258060E+04    0.13601E+04   -0.58047E+04  5616   0.146E+03
DAV:   2    -0.490696191714E+02   -0.14092E+04   -0.13832E+04  5616   0.454E+02
DAV:   3    -0.234910263515E+03   -0.18584E+03   -0.16977E+03  5616   0.177E+02
DAV:   4    -0.265354348583E+03   -0.30444E+02   -0.27402E+02  5616   0.773E+01
DAV:   5    -0.269081340229E+03   -0.37270E+01   -0.35424E+01  5616   0.233E+01
DAV:   6    -0.269423359229E+03   -0.34202E+00   -0.33093E+00  5616   0.589E+00
DAV:   7    -0.269466430471E+03   -0.43071E-01   -0.42184E-01  5616   0.186E+00
DAV:   8    -0.269471823108E+03   -0.53926E-02   -0.53122E-02  5616   0.515E-01
SDA:   9    -0.647285645676E+02    0.20474E+03   -0.53122E-02  5616   0.228E+04 0.000E+00
CGA:  10    -0.209712551714E+03   -0.14498E+03   -0.14738E+03  5616   0.101E+03 0.318E+03
CGA:  11    -0.218441407430E+03   -0.87289E+01   -0.86976E+01  5616   0.619E+02 0.942E+00
CGA:  12    -0.227576885966E+03   -0.91355E+01   -0.91535E+01  5616   0.863E+02 0.130E+00
CGA:  13    -0.233212311919E+03   -0.56354E+01   -0.58013E+01  5616   0.101E+02-0.530E+00
CGA:  14    -0.234048668510E+03   -0.83636E+00   -0.84306E+00  5616   0.570E+01-0.339E-01
CGA:  15    -0.234858754895E+03   -0.81009E+00   -0.81054E+00  5616   0.628E+01 0.765E-02
CGA:  16    -0.235362065774E+03   -0.50331E+00   -0.50376E+00  5616   0.166E+01 0.517E-02
CGA:  17    -0.235529775873E+03   -0.16771E+00   -0.16754E+00  5616   0.145E+01 0.971E-03
CGA:  18    -0.235728908069E+03   -0.19913E+00   -0.19913E+00  5616   0.121E+01-0.108E-02
CGA:  19    -0.235827796072E+03   -0.98888E-01   -0.99372E-01  5616   0.451E+00-0.386E-02
CGA:  20    -0.235875800942E+03   -0.48005E-01   -0.48077E-01  5616   0.432E+00-0.161E-03
CGA:  21    -0.235958551979E+03   -0.82751E-01   -0.82719E-01  5616   0.387E+00 0.460E-03
CGA:  22    -0.235994074353E+03   -0.35522E-01   -0.35476E-01  5616   0.145E+00-0.124E-03
CGA:  23    -0.236011352219E+03   -0.17278E-01   -0.17272E-01  5616   0.168E+00-0.228E-03
CGA:  24    -0.236034885336E+03   -0.23533E-01   -0.23523E-01  5616   0.172E+00-0.584E-03
CGA:  25    -0.236054131063E+03   -0.19246E-01   -0.19245E-01  5616   0.102E+00-0.287E-03
CGA:  26    -0.236069235859E+03   -0.15105E-01   -0.15104E-01  5616   0.986E-01-0.182E-03
CGA:  27    -0.236080403458E+03   -0.11168E-01   -0.11160E-01  5616   0.522E-01 0.445E-05
CGA:  28    -0.236086157904E+03   -0.57544E-02   -0.57526E-02  5616   0.393E-01 0.831E-04
CGA:  29    -0.236091084090E+03   -0.49262E-02   -0.49275E-02  5616   0.348E-01 0.811E-04
CGA:  30    -0.236095522188E+03   -0.44381E-02   -0.44382E-02  5616   0.268E-01 0.610E-04
CGA:  31    -0.236098938813E+03   -0.34166E-02   -0.34176E-02  5616   0.265E-01 0.771E-04
CGA:  32    -0.236102401025E+03   -0.34622E-02   -0.34628E-02  5616   0.147E-01 0.917E-04
CGA:  33    -0.236104120755E+03   -0.17197E-02   -0.17214E-02  5616   0.977E-02 0.848E-04
CGA:  34    -0.236105353680E+03   -0.12329E-02   -0.12339E-02  5616   0.937E-02 0.659E-04
CGA:  35    -0.236106477981E+03   -0.11243E-02   -0.11253E-02  5616   0.597E-02 0.486E-04
CGA:  36    -0.236107257500E+03   -0.77952E-03   -0.77975E-03  5616   0.518E-02 0.246E-04
CGA:  37    -0.236108129614E+03   -0.87211E-03   -0.87107E-03  5616   0.654E-02 0.299E-04
CGA:  38    -0.236108740494E+03   -0.61088E-03   -0.61173E-03  5616   0.236E-02 0.258E-04
CGA:  39    -0.236109009151E+03   -0.26866E-03   -0.26900E-03  5616   0.151E-02 0.134E-04
SDA:  40    -0.236109287564E+03   -0.27841E-03   -0.27847E-03  5616   0.249E-02-0.144E-05
CGA:  41    -0.236109451716E+03   -0.16415E-03   -0.16362E-03  5616   0.123E-02-0.871E-05
CGA:  42    -0.236109599850E+03   -0.14813E-03   -0.14789E-03  5616   0.778E-03-0.162E-04
CGA:  43    -0.236109748570E+03   -0.14872E-03   -0.14951E-03  5616   0.155E-02-0.134E-04
CGA:  44    -0.236109913582E+03   -0.16501E-03   -0.16466E-03  5616   0.496E-03-0.115E-04
CGA:  45    -0.236109975121E+03   -0.61539E-04   -0.61497E-04  5616   0.549E-03-0.356E-05
CGA:  46    -0.236110098995E+03   -0.12387E-03   -0.12450E-03  5616   0.487E-03-0.703E-05
CGA:  47    -0.236110146133E+03   -0.47137E-04   -0.47088E-04  5616   0.405E-03-0.107E-05
CGA:  48    -0.236110232376E+03   -0.86244E-04   -0.86149E-04  5616   0.475E-03 0.119E-05
CGA:  49    -0.236110269717E+03   -0.37340E-04   -0.37366E-04  5616   0.215E-03 0.140E-05
CGA:  50    -0.236110315021E+03   -0.45305E-04   -0.45264E-04  5616   0.287E-03 0.651E-06
CGA:  51    -0.236110336844E+03   -0.21822E-04   -0.21842E-04  5616   0.101E-03 0.903E-06
CGA:  52    -0.236110352553E+03   -0.15710E-04   -0.15696E-04  5616   0.158E-03 0.113E-05
CGA:  53    -0.236110376052E+03   -0.23498E-04   -0.23487E-04  5616   0.560E-04 0.171E-05
CGA:  54    -0.236110385123E+03   -0.90711E-05   -0.90741E-05  5616   0.923E-04-0.174E-06
CGA:  55    -0.236110399808E+03   -0.14685E-04   -0.14693E-04  5616   0.341E-04-0.256E-06
CGA:  56    -0.236110402265E+03   -0.24572E-05   -0.24673E-05  5616   0.169E-04 0.128E-06
CGA:  57    -0.236110407902E+03   -0.56369E-05   -0.55133E-05  5616   0.519E-04 0.625E-06
CGA:  58    -0.236110413047E+03   -0.51449E-05   -0.51205E-05  5616   0.258E-04-0.342E-06
CGA:  59    -0.236110415584E+03   -0.25367E-05   -0.24564E-05  5616   0.738E-05-0.142E-05
CGA:  60    -0.236110416668E+03   -0.10843E-05   -0.10989E-05  5616   0.141E-04-0.891E-06
CGA:  61    -0.236110398298E+03    0.18370E-04   -0.76271E-05  5616  -0.573E-03-0.506E-04
CGA:  62    -0.236099230779E+03    0.11168E-01    0.68930E-03  5616   0.169E+00-0.980E-02
CGA:  63    -0.236108173882E+03   -0.89431E-02   -0.94668E-02  5616   0.272E-01-0.102E-01
CGA:  64    -0.236109875322E+03   -0.17014E-02   -0.17464E-02  5616   0.526E-02-0.466E-03
CGA:  65    -0.236110292113E+03   -0.41679E-03   -0.42852E-03  5616   0.105E-02-0.999E-04
CGA:  66    -0.236110385089E+03   -0.92977E-04   -0.96195E-04  5616   0.529E-03-0.193E-04
CGA:  67    -0.236110438391E+03   -0.53301E-04   -0.55187E-04  5616   0.610E-04-0.532E-05
CGA:  68    -0.236110443445E+03   -0.50545E-05   -0.51096E-05  5616   0.178E-04-0.286E-06
CGA:  69    -0.236110445209E+03   -0.17637E-05   -0.17787E-05  5616   0.450E-06-0.799E-07
CGA:  70    -0.236110445222E+03   -0.13406E-07   -0.40592E-08  5616  -0.363E-06 0.466E-08
CGA:  71    -0.236110445033E+03    0.18937E-06   -0.34657E-06  5616  -0.955E-06-0.410E-06
CGA:  72    -0.236110443057E+03    0.19761E-05   -0.31475E-07  5616   0.964E-05-0.762E-05
CGA:  73    -0.236110443379E+03   -0.32174E-06   -0.32823E-06  5616  -0.228E-05 0.108E-06
CGA:  74    -0.236110442137E+03    0.12414E-05   -0.11351E-05  5616  -0.176E-05-0.318E-05
CGA:  75    -0.236110439521E+03    0.26165E-05   -0.81997E-07  5616   0.240E-04-0.100E-04
CGA:  76    -0.236110440400E+03   -0.87974E-06   -0.87403E-06  5616  -0.231E-05 0.960E-07
CGA:  77    -0.236110439159E+03    0.12412E-05   -0.92334E-06  5616   0.461E-07-0.346E-05
CGA:  78    -0.236110439160E+03   -0.83855E-09   -0.33599E-10  5616  -0.115E-07 0.475E-09
   1 F= -.23611044E+03 E0= -.23611323E+03  d E =0.836520E-02  mag=    -3.4783
