 vasp.5.4.4.18Apr17-6-g9f103f2a35 (build Dec 20 2018 12:05:58) complex          
  
 executed on             LinuxIFC date 2019.06.20  17:01:07
 running on   32 total cores
 distrk:  each k-point on    8 cores,    4 groups
 distr:  one band on NCORES_PER_BAND=   4 cores,    2 groups


--------------------------------------------------------------------------------------------------------


 INCAR:
 POTCAR:    PAW_PBE Al 04Jan2001                  
 POTCAR:    PAW_PBE Mn 06Sep2000                  

 ----------------------------------------------------------------------------- 
|                                                                             |
|           W    W    AA    RRRRR   N    N  II  N    N   GGGG   !!!           |
|           W    W   A  A   R    R  NN   N  II  NN   N  G    G  !!!           |
|           W    W  A    A  R    R  N N  N  II  N N  N  G       !!!           |
|           W WW W  AAAAAA  RRRRR   N  N N  II  N  N N  G  GGG   !            |
|           WW  WW  A    A  R   R   N   NN  II  N   NN  G    G                |
|           W    W  A    A  R    R  N    N  II  N    N   GGGG   !!!           |
|                                                                             |
|      You have enabled k-point parallelism (KPAR>1).                         |
|      This developmental code was originally  written by Paul Kent at ORNL,  |
|      and carefully double checked in Vienna.                                |
|      GW as well as linear response parallelism added by Martijn Marsman     |
|      and Georg Kresse.                                                      |
|      Carefully verify results versus KPAR=1.                                |
|      Report problems to Paul Kent and Vienna.                               |
|                                                                             |
 ----------------------------------------------------------------------------- 

 POTCAR:    PAW_PBE Al 04Jan2001                  
   VRHFIN =Al: s2p1                                                             
   LEXCH  = PE                                                                  
   EATOM  =    53.5387 eV,    3.9350 Ry                                         
                                                                                
   TITEL  = PAW_PBE Al 04Jan2001                                                
   LULTRA =        F    use ultrasoft PP ?                                      
   IUNSCR =        1    unscreen: 0-lin 1-nonlin 2-no                           
   RPACOR =    1.500    partial core radius                                     
   POMASS =   26.981; ZVAL   =    3.000    mass and valenz                      
   RCORE  =    1.900    outmost cutoff radius                                   
   RWIGS  =    2.650; RWIGS  =    1.402    wigner-seitz radius (au A)           
   ENMAX  =  240.300; ENMIN  =  180.225 eV                                      
   ICORE  =        2    local potential                                         
   LCOR   =        T    correct aug charges                                     
   LPAW   =        T    paw PP                                                  
   EAUG   =  291.052                                                            
   DEXC   =    0.000                                                            
   RMAX   =    1.939    core radius for proj-oper                               
   RAUG   =    1.300    factor for augmentation sphere                          
   RDEP   =    1.966    radius for radial grids                                 
   RDEPT  =    1.856    core radius for aug-charge                              
                                                                                
   Atomic configuration                                                         
    6 entries                                                                   
     n  l   j            E        occ.                                          
     1  0  0.50     -1511.1048   2.0000                                         
     2  0  0.50      -108.1629   2.0000                                         
     2  1  1.50       -69.6402   6.0000                                         
     3  0  0.50        -7.7528   2.0000                                         
     3  1  1.50        -2.7121   1.0000                                         
     3  2  2.50        -2.7212   0.0000                                         
   Description                                                                  
     l       E           TYP  RCUT    TYP  RCUT                                 
     0     -7.7528455     23  1.900                                             
     0     -3.3096929     23  1.900                                             
     1     -2.7120682     23  1.900                                             
     1     13.6058260     23  1.900                                             
     2     -2.7211652      7  1.900                                             
  local pseudopotential read in
  partial core-charges read in
  partial kinetic energy density read in
  atomic valenz-charges read in
  non local Contribution for L=           0  read in
    real space projection operators read in
  non local Contribution for L=           0  read in
    real space projection operators read in
  non local Contribution for L=           1  read in
    real space projection operators read in
  non local Contribution for L=           1  read in
    real space projection operators read in
    PAW grid and wavefunctions read in
 
   number of l-projection  operators is LMAX  =           4
   number of lm-projection operators is LMMAX =           8
 
 POTCAR:    PAW_PBE Mn 06Sep2000                  
   VRHFIN =Mn: d6 s1                                                            
   LEXCH  = PE                                                                  
   EATOM  =   416.7541 eV,   30.6306 Ry                                         
                                                                                
   TITEL  = PAW_PBE Mn 06Sep2000                                                
   LULTRA =        F    use ultrasoft PP ?                                      
   IUNSCR =        1    unscreen: 0-lin 1-nonlin 2-no                           
   RPACOR =    2.000    partial core radius                                     
   POMASS =   54.938; ZVAL   =    7.000    mass and valenz                      
   RCORE  =    2.300    outmost cutoff radius                                   
   RWIGS  =    2.500; RWIGS  =    1.323    wigner-seitz radius (au A)           
   ENMAX  =  269.864; ENMIN  =  202.398 eV                                      
   RCLOC  =    1.725    cutoff for local pot                                    
   LCOR   =        T    correct aug charges                                     
   LPAW   =        T    paw PP                                                  
   EAUG   =  500.711                                                            
   DEXC   =    0.000                                                            
   RMAX   =    2.343    core radius for proj-oper                               
   RAUG   =    1.300    factor for augmentation sphere                          
   RDEP   =    2.338    radius for radial grids                                 
   RDEPT  =    1.911    core radius for aug-charge                              
                                                                                
   Atomic configuration                                                         
    9 entries                                                                   
     n  l   j            E        occ.                                          
     1  0  0.50     -6424.8288   2.0000                                         
     2  0  0.50      -739.1154   2.0000                                         
     2  1  1.50      -625.3949   6.0000                                         
     3  0  0.50       -81.6100   2.0000                                         
     3  1  1.50       -50.4667   6.0000                                         
     3  2  2.50        -3.3745   6.0000                                         
     4  0  0.50        -4.1331   1.0000                                         
     4  1  0.50        -4.0817   0.0000                                         
     4  3  2.50        -1.3606   0.0000                                         
   Description                                                                  
     l       E           TYP  RCUT    TYP  RCUT                                 
     2     -3.3744664     23  2.300                                             
     2     -4.7350490     23  2.300                                             
     0     -4.1331408     23  2.300                                             
     0      7.6656614     23  2.300                                             
     1     -2.7211652     23  2.300                                             
     1     20.4087390     23  2.300                                             
  local pseudopotential read in
  partial core-charges read in
  partial kinetic energy density read in
  atomic valenz-charges read in
  non local Contribution for L=           2  read in
    real space projection operators read in
  non local Contribution for L=           2  read in
    real space projection operators read in
  non local Contribution for L=           0  read in
    real space projection operators read in
  non local Contribution for L=           0  read in
    real space projection operators read in
  non local Contribution for L=           1  read in
    real space projection operators read in
  non local Contribution for L=           1  read in
    real space projection operators read in
    PAW grid and wavefunctions read in
 
   number of l-projection  operators is LMAX  =           6
   number of lm-projection operators is LMMAX =          18
 

 ----------------------------------------------------------------------------- 
|                                                                             |
|  ADVICE TO THIS USER RUNNING 'VASP/VAMP'   (HEAR YOUR MASTER'S VOICE ...):  |
|                                                                             |
|      You have a (more or less) 'large supercell' and for larger cells       |
|      it might be more efficient to use real space projection opertators     |
|      So try LREAL= Auto  in the INCAR   file.                               |
|      Mind:          For very  accurate calculation you might also keep the  |
|      reciprocal projection scheme          (i.e. LREAL=.FALSE.)             |
|                                                                             |
 ----------------------------------------------------------------------------- 

  PAW_PBE Al 04Jan2001                  :
 energy of atom  1       EATOM=  -53.5387
 kinetic energy error for atom=    0.0005 (will be added to EATOM!!)
  PAW_PBE Mn 06Sep2000                  :
 energy of atom  2       EATOM= -416.7541
 kinetic energy error for atom=    0.0080 (will be added to EATOM!!)
 
 
 POSCAR: NewRef: 18, @ ['Mn', array([1.37502469, 
  positions in cartesian coordinates
  velocities in cartesian coordinates
  No initial velocities read in
 exchange correlation table for  LEXCH =        8
   RHO(1)=    0.500       N(1)  =     2000
   RHO(2)=  100.500       N(2)  =     4000
 


--------------------------------------------------------------------------------------------------------


 ion  position               nearest neighbor table
   1  0.000  0.000  0.000-  20 2.61  24 2.61  32 2.61  36 2.61  31 2.61  23 2.61  35 2.61  19 2.61
                             3 2.75   7 2.75   5 2.75  13 2.75
   2  0.000  0.000  0.500-  19 2.61  23 2.61  31 2.61  35 2.61  20 2.61  32 2.61  24 2.61  36 2.61
                             4 2.75   8 2.75   6 2.75  14 2.75
   3  0.000  0.333  0.000-  20 2.61  32 2.61  22 2.61  34 2.61  19 2.61  31 2.61  33 2.61  21 2.61
                             9 2.75   1 2.75   5 2.75  15 2.75
   4  0.000  0.333  0.500-  19 2.61  31 2.61  21 2.61  33 2.61  32 2.61  20 2.61  22 2.61  34 2.61
                            10 2.75   2 2.75   6 2.75  16 2.75
   5  0.000  0.667  0.000-  22 2.61  34 2.61  24 2.61  36 2.61  21 2.61  33 2.61  35 2.61  23 2.61
                             3 2.75  11 2.75   1 2.75  17 2.75
   6  0.000  0.667  0.500-  21 2.61  33 2.61  23 2.61  35 2.61  34 2.61  22 2.61  24 2.61  36 2.61
                             4 2.75  12 2.75   2 2.75  18 2.75
   7  0.333  0.000  0.000-  20 2.61  24 2.61  26 2.61  30 2.61  23 2.61  19 2.61  29 2.61  25 2.61
                            13 2.75   1 2.75   9 2.75  11 2.75
   8  0.333  0.000  0.500-  19 2.61  23 2.61  25 2.61  29 2.61  20 2.61  24 2.61  26 2.61  30 2.61
                            14 2.75   2 2.75  10 2.75  12 2.75
   9  0.333  0.333  0.000-  20 2.61  22 2.61  26 2.61  19 2.61  28 2.61  21 2.61  25 2.61  27 2.61
                             3 2.75   7 2.75  11 2.75  15 2.75
  10  0.333  0.333  0.500-  19 2.61  21 2.61  25 2.61  20 2.61  27 2.61  26 2.61  22 2.61  28 2.61
                             4 2.75   8 2.75  12 2.75  16 2.75
  11  0.333  0.667  0.000-  22 2.61  24 2.61  28 2.61  21 2.61  30 2.61  23 2.61  27 2.61  29 2.61
                            17 2.75   5 2.75   9 2.75   7 2.75
  12  0.333  0.667  0.500-  21 2.61  23 2.61  27 2.61  22 2.61  29 2.61  28 2.61  24 2.61  30 2.61
                            18 2.75   6 2.75  10 2.75   8 2.75
  13  0.667  0.000  0.000-  26 2.61  30 2.61  32 2.61  36 2.61  29 2.61  25 2.61  35 2.61  31 2.61
                             7 2.75  15 2.75   1 2.75  17 2.75
  14  0.667  0.000  0.500-  25 2.61  29 2.61  31 2.61  35 2.61  26 2.61  30 2.61  32 2.61  36 2.61
                             8 2.75  16 2.75   2 2.75  18 2.75
  15  0.667  0.333  0.000-  26 2.61  28 2.61  32 2.61  25 2.61  34 2.61  27 2.61  31 2.61  33 2.61
                            17 2.75   9 2.75  13 2.75   3 2.75
  16  0.667  0.333  0.500-  25 2.61  27 2.61  31 2.61  26 2.61  33 2.61  32 2.61  28 2.61  34 2.61
                            18 2.75  10 2.75  14 2.75   4 2.75
  17  0.667  0.667  0.000-  28 2.61  30 2.61  34 2.61  27 2.61  36 2.61  29 2.61  33 2.61  35 2.61
                            11 2.75  15 2.75  13 2.75   5 2.75
  18  0.667  0.667  0.500-  27 2.61  29 2.61  33 2.61  28 2.61  35 2.61  34 2.61  30 2.61  36 2.61
                            12 2.75  16 2.75  14 2.75   6 2.75
  19  0.167  0.167  0.250-  10 2.61   8 2.61   4 2.61   9 2.61   2 2.61   7 2.61   3 2.61   1 2.61
                            21 2.75  25 2.75  23 2.75  31 2.75
  20  0.167  0.167  0.750-   9 2.61   7 2.61   3 2.61  10 2.61   1 2.61   4 2.61   8 2.61   2 2.61
                            22 2.75  26 2.75  24 2.75  32 2.75
  21  0.167  0.500  0.250-  12 2.61  10 2.61   6 2.61  11 2.61   4 2.61   9 2.61   5 2.61   3 2.61
                            19 2.75  23 2.75  27 2.75  33 2.75
  22  0.167  0.500  0.750-  11 2.61   9 2.61   5 2.61  12 2.61   3 2.61   6 2.61  10 2.61   4 2.61
                            20 2.75  24 2.75  28 2.75  34 2.75
  23  0.167  0.833  0.250-   8 2.61  12 2.61   2 2.61   6 2.61  11 2.61   7 2.61   5 2.61   1 2.61
                            21 2.75  29 2.75  19 2.75  35 2.75
  24  0.167  0.833  0.750-   7 2.61  11 2.61   1 2.61   5 2.61   8 2.61  12 2.61   2 2.61   6 2.61
                            22 2.75  30 2.75  20 2.75  36 2.75
  25  0.500  0.167  0.250-  16 2.61  14 2.61  10 2.61  15 2.61   8 2.61  13 2.61   9 2.61   7 2.61
                            19 2.75  27 2.75  31 2.75  29 2.75
  26  0.500  0.167  0.750-  15 2.61  13 2.61   9 2.61  16 2.61   7 2.61  10 2.61  14 2.61   8 2.61
                            20 2.75  28 2.75  32 2.75  30 2.75
  27  0.500  0.500  0.250-  18 2.61  16 2.61  12 2.61  17 2.61  10 2.61  15 2.61  11 2.61   9 2.61
                            21 2.75  25 2.75  29 2.75  33 2.75
  28  0.500  0.500  0.750-  17 2.61  15 2.61  11 2.61  18 2.61   9 2.61  12 2.61  16 2.61  10 2.61
                            22 2.75  26 2.75  30 2.75  34 2.75
  29  0.500  0.833  0.250-  14 2.61  18 2.61   8 2.61  12 2.61  17 2.61  13 2.61  11 2.61   7 2.61
                            23 2.75  27 2.75  35 2.75  25 2.75
  30  0.500  0.833  0.750-  13 2.61  17 2.61   7 2.61  11 2.61  14 2.61  18 2.61   8 2.61  12 2.61
                            24 2.75  28 2.75  36 2.75  26 2.75
  31  0.833  0.167  0.250-   4 2.61  16 2.61  14 2.61   2 2.61  15 2.61   3 2.61  13 2.61   1 2.61
                            25 2.75  33 2.75  19 2.75  35 2.75
  32  0.833  0.167  0.750-   3 2.61  15 2.61  13 2.61   1 2.61   4 2.61  16 2.61   2 2.61  14 2.61
                            26 2.75  34 2.75  20 2.75  36 2.75
  33  0.833  0.500  0.250-   6 2.61  18 2.61  16 2.61   4 2.61  17 2.61   5 2.61  15 2.61   3 2.61
                            27 2.75  31 2.75  35 2.75  21 2.75
  34  0.833  0.500  0.750-   5 2.61  17 2.61  15 2.61   3 2.61   6 2.61  18 2.61   4 2.61  16 2.61
                            28 2.75  32 2.75  36 2.75  22 2.75
  35  0.833  0.833  0.250-   2 2.61   6 2.61  14 2.61  18 2.61  13 2.61   5 2.61  17 2.61   1 2.61
                            29 2.75  33 2.75  31 2.75  23 2.75
  36  0.833  0.833  0.750-   1 2.61   5 2.61  13 2.61  17 2.61   2 2.61  14 2.61   6 2.61  18 2.61
                            30 2.75  34 2.75  32 2.75  24 2.75
 
  LATTYP: Found a simple tetragonal cell.
 ALAT       =     8.2501481662
 C/A-ratio  =     0.8428059861
  
  Lattice vectors:
  
 A1 = (   8.2501481662,   0.0000000000,   0.0000000000)
 A2 = (   0.0000000000,   8.2501481662,   0.0000000000)
 A3 = (   0.0000000000,   0.0000000000,   6.9532742610)


Analysis of symmetry for initial positions (statically):
=====================================================================
 Subroutine PRICEL returns following result:
 
  LATTYP: Found a simple tetragonal cell.
 ALAT       =     2.7500493888
 C/A-ratio  =     1.2642089792
  
  Lattice vectors:
  
 A1 = (   2.7500493888,   0.0000000000,   0.0000000000)
 A2 = (   0.0000000000,   2.7500493888,   0.0000000000)
 A3 = (   0.0000000000,   0.0000000000,   3.4766371305)
 
  18 primitive cells build up your supercell.
 

 Routine SETGRP: Setting up the symmetry group for a 
 simple tetragonal supercell.


 Subroutine GETGRP returns: Found 16 space group operations
 (whereof 16 operations were pure point group operations)
 out of a pool of 16 trial point group operations.


The static configuration has the point symmetry D_4h.


Analysis of symmetry for dynamics (positions and initial velocities):
=====================================================================
 Subroutine PRICEL returns following result:
 
  LATTYP: Found a simple tetragonal cell.
 ALAT       =     2.7500493888
 C/A-ratio  =     1.2642089792
  
  Lattice vectors:
  
 A1 = (   2.7500493888,   0.0000000000,   0.0000000000)
 A2 = (   0.0000000000,   2.7500493888,   0.0000000000)
 A3 = (   0.0000000000,   0.0000000000,   3.4766371305)
 
  18 primitive cells build up your supercell.
 

 Routine SETGRP: Setting up the symmetry group for a 
 simple tetragonal supercell.


 Subroutine GETGRP returns: Found 16 space group operations
 (whereof 16 operations were pure point group operations)
 out of a pool of 16 trial point group operations.


The dynamic configuration has the point symmetry D_4h.


Analysis of structural, dynamic, and magnetic symmetry:
=====================================================================
 Subroutine PRICEL returns:
 Original cell was already a primitive cell.
 

 Routine SETGRP: Setting up the symmetry group for a 
 simple tetragonal supercell.


 Subroutine GETGRP returns: Found  2 space group operations
 (whereof  1 operations were pure point group operations)
 out of a pool of 16 trial point group operations.


The magnetic configuration has the point symmetry C_1 .
 The point group associated with its full space group is C_1h.


 Subroutine INISYM returns: Found  2 space group operations
 (whereof  1 operations are pure point group operations),
 and found     1 'primitive' translations

 
 
 KPOINTS: automatic KPOINTS                       

Automatic generation of k-mesh.
 generate k-points for:    5    5    6
Space group operators:
 irot       det(A)        alpha          n_x          n_y          n_z        tau_x        tau_y        tau_z
    1     1.000000     0.000001     1.000000     0.000000     0.000000     0.000000     0.000000     0.000000
    2    -1.000000   179.999999     0.000000     0.000000     1.000000     0.000000     0.000000     0.500000
 
 Subroutine IBZKPT returns following result:
 ===========================================
 
 Found     52 irreducible k-points:
 
 Following reciprocal coordinates:
            Coordinates               Weight
  0.000000  0.000000  0.000000      1.000000
  0.200000  0.000000  0.000000      2.000000
  0.400000  0.000000  0.000000      2.000000
  0.000000  0.200000  0.000000      2.000000
  0.200000  0.200000  0.000000      2.000000
  0.400000  0.200000  0.000000      2.000000
 -0.400000  0.200000  0.000000      2.000000
 -0.200000  0.200000  0.000000      2.000000
  0.000000  0.400000  0.000000      2.000000
  0.200000  0.400000  0.000000      2.000000
  0.400000  0.400000  0.000000      2.000000
 -0.400000  0.400000  0.000000      2.000000
 -0.200000  0.400000  0.000000      2.000000
  0.000000  0.000000  0.166667      2.000000
  0.200000  0.000000  0.166667      4.000000
  0.400000  0.000000  0.166667      4.000000
  0.000000  0.200000  0.166667      4.000000
  0.200000  0.200000  0.166667      4.000000
  0.400000  0.200000  0.166667      4.000000
 -0.400000  0.200000  0.166667      4.000000
 -0.200000  0.200000  0.166667      4.000000
  0.000000  0.400000  0.166667      4.000000
  0.200000  0.400000  0.166667      4.000000
  0.400000  0.400000  0.166667      4.000000
 -0.400000  0.400000  0.166667      4.000000
 -0.200000  0.400000  0.166667      4.000000
  0.000000  0.000000  0.333333      2.000000
  0.200000  0.000000  0.333333      4.000000
  0.400000  0.000000  0.333333      4.000000
  0.000000  0.200000  0.333333      4.000000
  0.200000  0.200000  0.333333      4.000000
  0.400000  0.200000  0.333333      4.000000
 -0.400000  0.200000  0.333333      4.000000
 -0.200000  0.200000  0.333333      4.000000
  0.000000  0.400000  0.333333      4.000000
  0.200000  0.400000  0.333333      4.000000
  0.400000  0.400000  0.333333      4.000000
 -0.400000  0.400000  0.333333      4.000000
 -0.200000  0.400000  0.333333      4.000000
  0.000000  0.000000  0.500000      1.000000
  0.200000  0.000000  0.500000      2.000000
  0.400000  0.000000  0.500000      2.000000
  0.000000  0.200000  0.500000      2.000000
  0.200000  0.200000  0.500000      2.000000
  0.400000  0.200000  0.500000      2.000000
 -0.400000  0.200000  0.500000      2.000000
 -0.200000  0.200000  0.500000      2.000000
  0.000000  0.400000  0.500000      2.000000
  0.200000  0.400000  0.500000      2.000000
  0.400000  0.400000  0.500000      2.000000
 -0.400000  0.400000  0.500000      2.000000
 -0.200000  0.400000  0.500000      2.000000
 
 Following cartesian coordinates:
            Coordinates               Weight
  0.000000  0.000000  0.000000      1.000000
  0.024242  0.000000  0.000000      2.000000
  0.048484  0.000000  0.000000      2.000000
  0.000000  0.024242  0.000000      2.000000
  0.024242  0.024242  0.000000      2.000000
  0.048484  0.024242  0.000000      2.000000
 -0.048484  0.024242  0.000000      2.000000
 -0.024242  0.024242  0.000000      2.000000
  0.000000  0.048484  0.000000      2.000000
  0.024242  0.048484  0.000000      2.000000
  0.048484  0.048484  0.000000      2.000000
 -0.048484  0.048484  0.000000      2.000000
 -0.024242  0.048484  0.000000      2.000000
  0.000000  0.000000  0.023970      2.000000
  0.024242  0.000000  0.023970      4.000000
  0.048484  0.000000  0.023970      4.000000
  0.000000  0.024242  0.023970      4.000000
  0.024242  0.024242  0.023970      4.000000
  0.048484  0.024242  0.023970      4.000000
 -0.048484  0.024242  0.023970      4.000000
 -0.024242  0.024242  0.023970      4.000000
  0.000000  0.048484  0.023970      4.000000
  0.024242  0.048484  0.023970      4.000000
  0.048484  0.048484  0.023970      4.000000
 -0.048484  0.048484  0.023970      4.000000
 -0.024242  0.048484  0.023970      4.000000
  0.000000  0.000000  0.047939      2.000000
  0.024242  0.000000  0.047939      4.000000
  0.048484  0.000000  0.047939      4.000000
  0.000000  0.024242  0.047939      4.000000
  0.024242  0.024242  0.047939      4.000000
  0.048484  0.024242  0.047939      4.000000
 -0.048484  0.024242  0.047939      4.000000
 -0.024242  0.024242  0.047939      4.000000
  0.000000  0.048484  0.047939      4.000000
  0.024242  0.048484  0.047939      4.000000
  0.048484  0.048484  0.047939      4.000000
 -0.048484  0.048484  0.047939      4.000000
 -0.024242  0.048484  0.047939      4.000000
  0.000000  0.000000  0.071909      1.000000
  0.024242  0.000000  0.071909      2.000000
  0.048484  0.000000  0.071909      2.000000
  0.000000  0.024242  0.071909      2.000000
  0.024242  0.024242  0.071909      2.000000
  0.048484  0.024242  0.071909      2.000000
 -0.048484  0.024242  0.071909      2.000000
 -0.024242  0.024242  0.071909      2.000000
  0.000000  0.048484  0.071909      2.000000
  0.024242  0.048484  0.071909      2.000000
  0.048484  0.048484  0.071909      2.000000
 -0.048484  0.048484  0.071909      2.000000
 -0.024242  0.048484  0.071909      2.000000
 


--------------------------------------------------------------------------------------------------------




 Dimension of arrays:
   k-points           NKPTS =     52   k-points in BZ     NKDIM =     52   number of bands    NBANDS=    108
   number of dos      NEDOS =    301   number of ions     NIONS =     36
   non local maximal  LDIM  =      6   non local SUM 2l+1 LMDIM =     18
   total plane-waves  NPLWV = 139968
   max r-space proj   IRMAX =      1   max aug-charges    IRDMAX=  92271
   dimension x,y,z NGX =    54 NGY =   54 NGZ =   48
   dimension x,y,z NGXF=   108 NGYF=  108 NGZF=   96
   support grid    NGXF=   216 NGYF=  216 NGZF=  192
   ions per type =              18  18
   NGX,Y,Z   is equivalent  to a cutoff of  10.88, 10.88, 11.48 a.u.
   NGXF,Y,Z  is equivalent  to a cutoff of  21.76, 21.76, 22.95 a.u.

 SYSTEM =  AlMn_pv                                 
 POSCAR =  NewRef: 18, @ ['Mn', array([1.37502469, 

 Startparameter for this run:
   NWRITE =      2    write-flag & timer
   PREC   = accura    normal or accurate (medium, high low for compatibility)
   ISTART =      0    job   : 0-new  1-cont  2-samecut
   ICHARG =      2    charge: 1-file 2-atom 10-const
   ISPIN  =      2    spin polarized calculation?
   LNONCOLLINEAR =      F non collinear calculations
   LSORBIT =      F    spin-orbit coupling
   INIWAV =      1    electr: 0-lowe 1-rand  2-diag
   LASPH  =      F    aspherical Exc in radial PAW
   METAGGA=      F    non-selfconsistent MetaGGA calc.

 Electronic Relaxation 1
   ENCUT  =  404.8 eV  29.75 Ry    5.45 a.u.  13.53 13.53 11.41*2*pi/ulx,y,z
   ENINI  =  404.8     initial cutoff
   ENAUG  =  500.7 eV  augmentation charge cutoff
   NELM   =    100;   NELMIN=  4; NELMDL= -8     # of ELM steps 
   EDIFF  = 0.1E-06   stopping-criterion for ELM
   LREAL  =      F    real-space projection
   NLSPLINE    = F    spline interpolate recip. space projectors
   LCOMPAT=      F    compatible to vasp.4.4
   GGA_COMPAT  = T    GGA compatible to vasp.4.4-vasp.4.6
   LMAXPAW     = -100 max onsite density
   LMAXMIX     =    2 max onsite mixed and CHGCAR
   VOSKOWN=      0    Vosko Wilk Nusair interpolation
   ROPT   =    0.00000   0.00000
 Ionic relaxation
   EDIFFG = 0.1E-05   stopping-criterion for IOM
   NSW    =      0    number of steps for IOM
   NBLOCK =      1;   KBLOCK =      1    inner block; outer block 
   IBRION =     -1    ionic relax: 0-MD 1-quasi-New 2-CG
   NFREE  =      0    steps in history (QN), initial steepest desc. (CG)
   ISIF   =      2    stress and relaxation
   IWAVPR =     10    prediction:  0-non 1-charg 2-wave 3-comb
   ISYM   =      2    0-nonsym 1-usesym 2-fastsym
   LCORR  =      T    Harris-Foulkes like correction to forces

   POTIM  = 0.2000    time-step for ionic-motion
   TEIN   =    0.0    initial temperature
   TEBEG  =    0.0;   TEEND  =   0.0 temperature during run
   SMASS  =  -3.00    Nose mass-parameter (am)
   estimated Nose-frequenzy (Omega)   =  0.10E-29 period in steps =****** mass=  -0.156E-26a.u.
   SCALEE = 1.0000    scale energy and forces
   NPACO  =    256;   APACO  = 16.0  distance and # of slots for P.C.
   PSTRESS=    0.0 pullay stress

  Mass of Ions in am
   POMASS =  26.98 54.94
  Ionic Valenz
   ZVAL   =   3.00  7.00
  Atomic Wigner-Seitz radii
   RWIGS  =  -1.00 -1.00
  virtual crystal weights 
   VCA    =   1.00  1.00
   NELECT =     180.0000    total number of electrons
   NUPDOWN=      -1.0000    fix difference up-down

 DOS related values:
   EMIN   =  10.00;   EMAX   =-10.00  energy-range for DOS
   EFERMI =   0.00
   ISMEAR =     1;   SIGMA  =   0.20  broadening in eV -4-tet -1-fermi 0-gaus

 Electronic relaxation 2 (details)
   IALGO  =     58    algorithm
   LDIAG  =      T    sub-space diagonalisation (order eigenvalues)
   LSUBROT=      F    optimize rotation matrix (better conditioning)
   TURBO    =      0    0=normal 1=particle mesh
   IRESTART =      0    0=no restart 2=restart with 2 vectors
   NREBOOT  =      0    no. of reboots
   NMIN     =      0    reboot dimension
   EREF     =   0.00    reference energy to select bands
   IMIX   =      4    mixing-type and parameters
     AMIX     =   0.40;   BMIX     =  1.00
     AMIX_MAG =   1.60;   BMIX_MAG =  1.00
     AMIN     =   0.10
     WC   =   100.;   INIMIX=   1;  MIXPRE=   1;  MAXMIX= -45

 Intra band minimization:
   WEIMIN = 0.0000     energy-eigenvalue tresh-hold
   EBREAK =  0.23E-09  absolut break condition
   DEPER  =   0.30     relativ break condition  

   TIME   =   0.40     timestep for ELM

  volume/ion in A,a.u.               =      13.15        88.72
  Fermi-wavevector in a.u.,A,eV,Ry     =   1.186118  2.241439 19.141722  1.406877
  Thomas-Fermi vector in A             =   2.322298
 
 Write flags
   LWAVE        =      F    write WAVECAR
   LDOWNSAMPLE  =      F    k-point downsampling of WAVECAR
   LCHARG       =      F    write CHGCAR
   LVTOT        =      F    write LOCPOT, total local potential
   LVHAR        =      F    write LOCPOT, Hartree potential only
   LELF         =      F    write electronic localiz. function (ELF)
   LORBIT       =     10    0 simple, 1 ext, 2 COOP (PROOUT), +10 PAW based schemes


 Dipole corrections
   LMONO  =      F    monopole corrections only (constant potential shift)
   LDIPOL =      F    correct potential (dipole corrections)
   IDIPOL =      0    1-x, 2-y, 3-z, 4-all directions 
   EPSILON=  1.0000000 bulk dielectric constant

 Exchange correlation treatment:
   GGA     =    --    GGA type
   LEXCH   =     8    internal setting for exchange type
   VOSKOWN=      0    Vosko Wilk Nusair interpolation
   LHFCALC =     F    Hartree Fock is set to
   LHFONE  =     F    Hartree Fock one center treatment
   AEXX    =    0.0000 exact exchange contribution

 Linear response parameters
   LEPSILON=     F    determine dielectric tensor
   LRPA    =     F    only Hartree local field effects (RPA)
   LNABLA  =     F    use nabla operator in PAW spheres
   LVEL    =     F    velocity operator in full k-point grid
   LINTERFAST=   F  fast interpolation
   KINTER  =     0    interpolate to denser k-point grid
   CSHIFT  =0.1000    complex shift for real part using Kramers Kronig
   OMEGAMAX=  -1.0    maximum frequency
   DEG_THRESHOLD= 0.2000000E-02 threshold for treating states as degnerate
   RTIME   =   -0.100 relaxation time in fs
  (WPLASMAI=    0.000 imaginary part of plasma frequency in eV, 0.658/RTIME)
   DFIELD  = 0.0000000 0.0000000 0.0000000 field for delta impulse in time
 
 Orbital magnetization related:
   ORBITALMAG=     F  switch on orbital magnetization
   LCHIMAG   =     F  perturbation theory with respect to B field
   DQ        =  0.001000  dq finite difference perturbation B field
   LLRAUG    =     F  two centre corrections for induced B field



--------------------------------------------------------------------------------------------------------


 Static calculation
 charge density and potential will be updated during run
 spin polarized calculation
 Conjugate gradient for all bands (Freysoldt, et al. PRB 79, 241103 (2009))
 preconditioned conjugated gradient                                        
 perform sub-space diagonalisation
    before iterative eigenvector-optimisation
 modified Broyden-mixing scheme, WC =      100.0
 initial mixing is a Kerker type mixing with AMIX =  0.4000 and BMIX =      1.0000
 Hartree-type preconditioning will be used
 using additional bands           18
 reciprocal scheme for non local part
 use partial core corrections
 no Harris-corrections to forces 
 use gradient corrections 
 use of overlap-Matrix (Vanderbilt PP)
 Methfessel and Paxton  Order N= 1 SIGMA  =   0.20


--------------------------------------------------------------------------------------------------------


  energy-cutoff  :      404.80
  volume of cell :      473.27
      direct lattice vectors                 reciprocal lattice vectors
     8.250148166  0.000000000  0.000000000     0.121209944  0.000000000  0.000000000
     0.000000000  8.250148166  0.000000000     0.000000000  0.121209944  0.000000000
     0.000000000  0.000000000  6.953274261     0.000000000  0.000000000  0.143817137

  length of vectors
     8.250148166  8.250148166  6.953274261     0.121209944  0.121209944  0.143817137


 
 k-points in units of 2pi/SCALE and weight: automatic KPOINTS                       
   0.00000000  0.00000000  0.00000000       0.007
   0.02424199  0.00000000  0.00000000       0.013
   0.04848398  0.00000000  0.00000000       0.013
   0.00000000  0.02424199  0.00000000       0.013
   0.02424199  0.02424199  0.00000000       0.013
   0.04848398  0.02424199  0.00000000       0.013
  -0.04848398  0.02424199  0.00000000       0.013
  -0.02424199  0.02424199  0.00000000       0.013
   0.00000000  0.04848398  0.00000000       0.013
   0.02424199  0.04848398  0.00000000       0.013
   0.04848398  0.04848398  0.00000000       0.013
  -0.04848398  0.04848398  0.00000000       0.013
  -0.02424199  0.04848398  0.00000000       0.013
   0.00000000  0.00000000  0.02396952       0.013
   0.02424199  0.00000000  0.02396952       0.027
   0.04848398  0.00000000  0.02396952       0.027
   0.00000000  0.02424199  0.02396952       0.027
   0.02424199  0.02424199  0.02396952       0.027
   0.04848398  0.02424199  0.02396952       0.027
  -0.04848398  0.02424199  0.02396952       0.027
  -0.02424199  0.02424199  0.02396952       0.027
   0.00000000  0.04848398  0.02396952       0.027
   0.02424199  0.04848398  0.02396952       0.027
   0.04848398  0.04848398  0.02396952       0.027
  -0.04848398  0.04848398  0.02396952       0.027
  -0.02424199  0.04848398  0.02396952       0.027
   0.00000000  0.00000000  0.04793905       0.013
   0.02424199  0.00000000  0.04793905       0.027
   0.04848398  0.00000000  0.04793905       0.027
   0.00000000  0.02424199  0.04793905       0.027
   0.02424199  0.02424199  0.04793905       0.027
   0.04848398  0.02424199  0.04793905       0.027
  -0.04848398  0.02424199  0.04793905       0.027
  -0.02424199  0.02424199  0.04793905       0.027
   0.00000000  0.04848398  0.04793905       0.027
   0.02424199  0.04848398  0.04793905       0.027
   0.04848398  0.04848398  0.04793905       0.027
  -0.04848398  0.04848398  0.04793905       0.027
  -0.02424199  0.04848398  0.04793905       0.027
   0.00000000  0.00000000  0.07190857       0.007
   0.02424199  0.00000000  0.07190857       0.013
   0.04848398  0.00000000  0.07190857       0.013
   0.00000000  0.02424199  0.07190857       0.013
   0.02424199  0.02424199  0.07190857       0.013
   0.04848398  0.02424199  0.07190857       0.013
  -0.04848398  0.02424199  0.07190857       0.013
  -0.02424199  0.02424199  0.07190857       0.013
   0.00000000  0.04848398  0.07190857       0.013
   0.02424199  0.04848398  0.07190857       0.013
   0.04848398  0.04848398  0.07190857       0.013
  -0.04848398  0.04848398  0.07190857       0.013
  -0.02424199  0.04848398  0.07190857       0.013
 
 k-points in reciprocal lattice and weights: automatic KPOINTS                       
   0.00000000  0.00000000  0.00000000       0.007
   0.20000000  0.00000000  0.00000000       0.013
   0.40000000  0.00000000  0.00000000       0.013
   0.00000000  0.20000000  0.00000000       0.013
   0.20000000  0.20000000  0.00000000       0.013
   0.40000000  0.20000000  0.00000000       0.013
  -0.40000000  0.20000000  0.00000000       0.013
  -0.20000000  0.20000000  0.00000000       0.013
   0.00000000  0.40000000  0.00000000       0.013
   0.20000000  0.40000000  0.00000000       0.013
   0.40000000  0.40000000  0.00000000       0.013
  -0.40000000  0.40000000  0.00000000       0.013
  -0.20000000  0.40000000  0.00000000       0.013
   0.00000000  0.00000000  0.16666667       0.013
   0.20000000  0.00000000  0.16666667       0.027
   0.40000000  0.00000000  0.16666667       0.027
   0.00000000  0.20000000  0.16666667       0.027
   0.20000000  0.20000000  0.16666667       0.027
   0.40000000  0.20000000  0.16666667       0.027
  -0.40000000  0.20000000  0.16666667       0.027
  -0.20000000  0.20000000  0.16666667       0.027
   0.00000000  0.40000000  0.16666667       0.027
   0.20000000  0.40000000  0.16666667       0.027
   0.40000000  0.40000000  0.16666667       0.027
  -0.40000000  0.40000000  0.16666667       0.027
  -0.20000000  0.40000000  0.16666667       0.027
   0.00000000  0.00000000  0.33333333       0.013
   0.20000000  0.00000000  0.33333333       0.027
   0.40000000  0.00000000  0.33333333       0.027
   0.00000000  0.20000000  0.33333333       0.027
   0.20000000  0.20000000  0.33333333       0.027
   0.40000000  0.20000000  0.33333333       0.027
  -0.40000000  0.20000000  0.33333333       0.027
  -0.20000000  0.20000000  0.33333333       0.027
   0.00000000  0.40000000  0.33333333       0.027
   0.20000000  0.40000000  0.33333333       0.027
   0.40000000  0.40000000  0.33333333       0.027
  -0.40000000  0.40000000  0.33333333       0.027
  -0.20000000  0.40000000  0.33333333       0.027
   0.00000000  0.00000000  0.50000000       0.007
   0.20000000  0.00000000  0.50000000       0.013
   0.40000000  0.00000000  0.50000000       0.013
   0.00000000  0.20000000  0.50000000       0.013
   0.20000000  0.20000000  0.50000000       0.013
   0.40000000  0.20000000  0.50000000       0.013
  -0.40000000  0.20000000  0.50000000       0.013
  -0.20000000  0.20000000  0.50000000       0.013
   0.00000000  0.40000000  0.50000000       0.013
   0.20000000  0.40000000  0.50000000       0.013
   0.40000000  0.40000000  0.50000000       0.013
  -0.40000000  0.40000000  0.50000000       0.013
  -0.20000000  0.40000000  0.50000000       0.013
 
 position of ions in fractional coordinates (direct lattice) 
   0.00000000  0.00000000  0.00000000
   0.00000000  0.00000000  0.50000000
   0.00000000  0.33333333  0.00000000
   0.00000000  0.33333333  0.50000000
   0.00000000  0.66666667  0.00000000
   0.00000000  0.66666667  0.50000000
   0.33333333  0.00000000  0.00000000
   0.33333333  0.00000000  0.50000000
   0.33333333  0.33333333  0.00000000
   0.33333333  0.33333333  0.50000000
   0.33333333  0.66666667  0.00000000
   0.33333333  0.66666667  0.50000000
   0.66666667  0.00000000  0.00000000
   0.66666667  0.00000000  0.50000000
   0.66666667  0.33333333  0.00000000
   0.66666667  0.33333333  0.50000000
   0.66666667  0.66666667  0.00000000
   0.66666667  0.66666667  0.50000000
   0.16666667  0.16666667  0.25000000
   0.16666667  0.16666667  0.75000000
   0.16666667  0.50000000  0.25000000
   0.16666667  0.50000000  0.75000000
   0.16666667  0.83333333  0.25000000
   0.16666667  0.83333333  0.75000000
   0.50000000  0.16666667  0.25000000
   0.50000000  0.16666667  0.75000000
   0.50000000  0.50000000  0.25000000
   0.50000000  0.50000000  0.75000000
   0.50000000  0.83333333  0.25000000
   0.50000000  0.83333333  0.75000000
   0.83333333  0.16666667  0.25000000
   0.83333333  0.16666667  0.75000000
   0.83333333  0.50000000  0.25000000
   0.83333333  0.50000000  0.75000000
   0.83333333  0.83333333  0.25000000
   0.83333333  0.83333333  0.75000000
 
 position of ions in cartesian coordinates  (Angst):
   0.00000000  0.00000000  0.00000000
   0.00000000  0.00000000  3.47663713
   0.00000000  2.75004939  0.00000000
   0.00000000  2.75004939  3.47663713
   0.00000000  5.50009878  0.00000000
   0.00000000  5.50009878  3.47663713
   2.75004939  0.00000000  0.00000000
   2.75004939  0.00000000  3.47663713
   2.75004939  2.75004939  0.00000000
   2.75004939  2.75004939  3.47663713
   2.75004939  5.50009878  0.00000000
   2.75004939  5.50009878  3.47663713
   5.50009878  0.00000000  0.00000000
   5.50009878  0.00000000  3.47663713
   5.50009878  2.75004939  0.00000000
   5.50009878  2.75004939  3.47663713
   5.50009878  5.50009878  0.00000000
   5.50009878  5.50009878  3.47663713
   1.37502469  1.37502469  1.73831857
   1.37502469  1.37502469  5.21495570
   1.37502469  4.12507408  1.73831857
   1.37502469  4.12507408  5.21495570
   1.37502469  6.87512347  1.73831857
   1.37502469  6.87512347  5.21495570
   4.12507408  1.37502469  1.73831857
   4.12507408  1.37502469  5.21495570
   4.12507408  4.12507408  1.73831857
   4.12507408  4.12507408  5.21495570
   4.12507408  6.87512347  1.73831857
   4.12507408  6.87512347  5.21495570
   6.87512347  1.37502469  1.73831857
   6.87512347  1.37502469  5.21495570
   6.87512347  4.12507408  1.73831857
   6.87512347  4.12507408  5.21495570
   6.87512347  6.87512347  1.73831857
   6.87512347  6.87512347  5.21495570
 


--------------------------------------------------------------------------------------------------------


 k-point  1 :   0.0000 0.0000 0.0000  plane waves:    8799
 k-point  2 :   0.2000 0.0000 0.0000  plane waves:    8753
 k-point  3 :   0.4000 0.0000 0.0000  plane waves:    8757
 k-point  4 :   0.0000 0.2000 0.0000  plane waves:    8753
 k-point  5 :   0.2000 0.2000 0.0000  plane waves:    8767
 k-point  6 :   0.4000 0.2000 0.0000  plane waves:    8761
 k-point  7 :  -0.4000 0.2000 0.0000  plane waves:    8761
 k-point  8 :  -0.2000 0.2000 0.0000  plane waves:    8767
 k-point  9 :   0.0000 0.4000 0.0000  plane waves:    8757
 k-point 10 :   0.2000 0.4000 0.0000  plane waves:    8761
 k-point 11 :   0.4000 0.4000 0.0000  plane waves:    8731
 k-point 12 :  -0.4000 0.4000 0.0000  plane waves:    8731
 k-point 13 :  -0.2000 0.4000 0.0000  plane waves:    8761
 k-point 14 :   0.0000 0.0000 0.1667  plane waves:    8763
 k-point 15 :   0.2000 0.0000 0.1667  plane waves:    8771
 k-point 16 :   0.4000 0.0000 0.1667  plane waves:    8747
 k-point 17 :   0.0000 0.2000 0.1667  plane waves:    8771
 k-point 18 :   0.2000 0.2000 0.1667  plane waves:    8764
 k-point 19 :   0.4000 0.2000 0.1667  plane waves:    8768
 k-point 20 :  -0.4000 0.2000 0.1667  plane waves:    8768
 k-point 21 :  -0.2000 0.2000 0.1667  plane waves:    8764
 k-point 22 :   0.0000 0.4000 0.1667  plane waves:    8747
 k-point 23 :   0.2000 0.4000 0.1667  plane waves:    8768
 k-point 24 :   0.4000 0.4000 0.1667  plane waves:    8740
 k-point 25 :  -0.4000 0.4000 0.1667  plane waves:    8740
 k-point 26 :  -0.2000 0.4000 0.1667  plane waves:    8768
 k-point 27 :   0.0000 0.0000 0.3333  plane waves:    8743
 k-point 28 :   0.2000 0.0000 0.3333  plane waves:    8736
 k-point 29 :   0.4000 0.0000 0.3333  plane waves:    8753
 k-point 30 :   0.0000 0.2000 0.3333  plane waves:    8736
 k-point 31 :   0.2000 0.2000 0.3333  plane waves:    8753
 k-point 32 :   0.4000 0.2000 0.3333  plane waves:    8743
 k-point 33 :  -0.4000 0.2000 0.3333  plane waves:    8743
 k-point 34 :  -0.2000 0.2000 0.3333  plane waves:    8753
 k-point 35 :   0.0000 0.4000 0.3333  plane waves:    8753
 k-point 36 :   0.2000 0.4000 0.3333  plane waves:    8743
 k-point 37 :   0.4000 0.4000 0.3333  plane waves:    8755
 k-point 38 :  -0.4000 0.4000 0.3333  plane waves:    8755
 k-point 39 :  -0.2000 0.4000 0.3333  plane waves:    8743
 k-point 40 :   0.0000 0.0000 0.5000  plane waves:    8742
 k-point 41 :   0.2000 0.0000 0.5000  plane waves:    8756
 k-point 42 :   0.4000 0.0000 0.5000  plane waves:    8744
 k-point 43 :   0.0000 0.2000 0.5000  plane waves:    8756
 k-point 44 :   0.2000 0.2000 0.5000  plane waves:    8762
 k-point 45 :   0.4000 0.2000 0.5000  plane waves:    8732
 k-point 46 :  -0.4000 0.2000 0.5000  plane waves:    8732
 k-point 47 :  -0.2000 0.2000 0.5000  plane waves:    8762
 k-point 48 :   0.0000 0.4000 0.5000  plane waves:    8744
 k-point 49 :   0.2000 0.4000 0.5000  plane waves:    8732
 k-point 50 :   0.4000 0.4000 0.5000  plane waves:    8736
 k-point 51 :  -0.4000 0.4000 0.5000  plane waves:    8736
 k-point 52 :  -0.2000 0.4000 0.5000  plane waves:    8732

 maximum and minimum number of plane-waves per node :      2210     2164

 maximum number of plane-waves:      8799
 maximum index in each direction: 
   IXMAX=   13   IYMAX=   13   IZMAX=   11
   IXMIN=  -13   IYMIN=  -13   IZMIN=  -11


 parallel 3D FFT for wavefunctions:
    minimum data exchange during FFTs selected (reduces bandwidth)
 parallel 3D FFT for charge:
    minimum data exchange during FFTs selected (reduces bandwidth)


 total amount of memory used by VASP MPI-rank0   728596. kBytes
=======================================================================

   base      :      30000. kBytes
   nonl-proj :      34307. kBytes
   fftplans  :      21726. kBytes
   grid      :      14732. kBytes
   one-center:        279. kBytes
   wavefun   :     627552. kBytes
 
     INWAV:  cpu time    0.0000: real time    0.0000
 Broyden mixing: mesh for mixing (old mesh)
   NGX = 27   NGY = 27   NGZ = 23
  (NGX  =108   NGY  =108   NGZ  = 96)
  gives a total of  16767 points

 initial charge density was supplied:
 charge density of overlapping atoms calculated
 number of electron     180.0000000 magnetization      -6.0000000
 keeping initial charge density in first step


--------------------------------------------------------------------------------------------------------


 Maximum index for augmentation-charges        11261 (set IRDMAX)


--------------------------------------------------------------------------------------------------------


 First call to EWALD:  gamma=   0.227
 Maximum number of real-space cells 3x 3x 3
 Maximum number of reciprocal cells 3x 3x 3

    FEWALD:  cpu time    0.0022: real time    0.0022


--------------------------------------- Iteration      1(   1)  ---------------------------------------


    POTLOK:  cpu time    0.2508: real time    0.2508
    SETDIJ:  cpu time    0.3256: real time    0.3255
    TRIAL :  cpu time   17.6895: real time   17.8404
    CORREC:  cpu time    0.0063: real time    0.0064
    --------------------------------------------
      LOOP:  cpu time   18.4847: real time   18.6416

 eigenvalue-minimisations  : 22464
 total energy-change (2. order) : 0.1360113E+04  (-0.5804746E+04)
 number of electron     180.0000000 magnetization      -6.0000000
 augmentation part      180.0000000 magnetization      -6.0000000

 Free energy of the ion-electron system (eV)
  ---------------------------------------------------
  alpha Z        PSCENC =       532.25742704
  Ewald energy   TEWEN  =     -8601.05107233
  -Hartree energ DENC   =     -1903.73857242
  -exchange      EXHF   =         0.00000000
  -V(xc)+E(xc)   XCENC  =      -664.61821075
  PAW double counting   =      8494.55058411    -7650.81563588
  entropy T*S    EENTRO =         0.00451261
  eigenvalues    EBANDS =      2688.40753975
  atomic energy  EATOM  =      8465.11600846
  ---------------------------------------------------
  free energy    TOTEN  =      1360.11258060 eV

  energy without entropy =     1360.10806799  energy(sigma->0) =     1360.11107639


--------------------------------------------------------------------------------------------------------




--------------------------------------- Iteration      1(   2)  ---------------------------------------


    TRIAL :  cpu time   17.6205: real time   17.7625
    CORREC:  cpu time    0.0078: real time    0.0080
    --------------------------------------------
      LOOP:  cpu time   17.6294: real time   17.7741

 eigenvalue-minimisations  : 22464
 total energy-change (2. order) :-0.1409182E+04  (-0.1383244E+04)
 number of electron     180.0000000 magnetization      -6.0000000
 augmentation part      180.0000000 magnetization      -6.0000000

 Free energy of the ion-electron system (eV)
  ---------------------------------------------------
  alpha Z        PSCENC =       532.25742704
  Ewald energy   TEWEN  =     -8601.05107233
  -Hartree energ DENC   =     -1903.73857242
  -exchange      EXHF   =         0.00000000
  -V(xc)+E(xc)   XCENC  =      -664.61821075
  PAW double counting   =      8494.55058411    -7650.81563588
  entropy T*S    EENTRO =        -0.00167179
  eigenvalues    EBANDS =      1279.23152438
  atomic energy  EATOM  =      8465.11600846
  ---------------------------------------------------
  free energy    TOTEN  =       -49.06961917 eV

  energy without entropy =      -49.06794738  energy(sigma->0) =      -49.06906191


--------------------------------------------------------------------------------------------------------




--------------------------------------- Iteration      1(   3)  ---------------------------------------


    TRIAL :  cpu time   24.6506: real time   25.5666
    CORREC:  cpu time    0.0109: real time    0.0118
    --------------------------------------------
      LOOP:  cpu time   24.6624: real time   25.5817

 eigenvalue-minimisations  : 34504
 total energy-change (2. order) :-0.1858406E+03  (-0.1697730E+03)
 number of electron     180.0000000 magnetization      -6.0000000
 augmentation part      180.0000000 magnetization      -6.0000000

 Free energy of the ion-electron system (eV)
  ---------------------------------------------------
  alpha Z        PSCENC =       532.25742704
  Ewald energy   TEWEN  =     -8601.05107233
  -Hartree energ DENC   =     -1903.73857242
  -exchange      EXHF   =         0.00000000
  -V(xc)+E(xc)   XCENC  =      -664.61821075
  PAW double counting   =      8494.55058411    -7650.81563588
  entropy T*S    EENTRO =         0.00528099
  eigenvalues    EBANDS =      1093.38392726
  atomic energy  EATOM  =      8465.11600846
  ---------------------------------------------------
  free energy    TOTEN  =      -234.91026352 eV

  energy without entropy =     -234.91554450  energy(sigma->0) =     -234.91202384


--------------------------------------------------------------------------------------------------------




--------------------------------------- Iteration      1(   4)  ---------------------------------------


    TRIAL :  cpu time   25.9656: real time   26.1410
    CORREC:  cpu time    0.0097: real time    0.0098
    --------------------------------------------
      LOOP:  cpu time   25.9796: real time   26.1569

 eigenvalue-minimisations  : 36760
 total energy-change (2. order) :-0.3044409E+02  (-0.2740232E+02)
 number of electron     180.0000000 magnetization      -6.0000000
 augmentation part      180.0000000 magnetization      -6.0000000

 Free energy of the ion-electron system (eV)
  ---------------------------------------------------
  alpha Z        PSCENC =       532.25742704
  Ewald energy   TEWEN  =     -8601.05107233
  -Hartree energ DENC   =     -1903.73857242
  -exchange      EXHF   =         0.00000000
  -V(xc)+E(xc)   XCENC  =      -664.61821075
  PAW double counting   =      8494.55058411    -7650.81563588
  entropy T*S    EENTRO =         0.03074756
  eigenvalues    EBANDS =      1062.91437562
  atomic energy  EATOM  =      8465.11600846
  ---------------------------------------------------
  free energy    TOTEN  =      -265.35434858 eV

  energy without entropy =     -265.38509614  energy(sigma->0) =     -265.36459777


--------------------------------------------------------------------------------------------------------




--------------------------------------- Iteration      1(   5)  ---------------------------------------


    TRIAL :  cpu time   26.7019: real time   27.5580
    CORREC:  cpu time    0.0098: real time    0.0106
    --------------------------------------------
      LOOP:  cpu time   26.7127: real time   27.5720

 eigenvalue-minimisations  : 38000
 total energy-change (2. order) :-0.3726992E+01  (-0.3542416E+01)
 number of electron     180.0000000 magnetization      -6.0000000
 augmentation part      180.0000000 magnetization      -6.0000000

 Free energy of the ion-electron system (eV)
  ---------------------------------------------------
  alpha Z        PSCENC =       532.25742704
  Ewald energy   TEWEN  =     -8601.05107233
  -Hartree energ DENC   =     -1903.73857242
  -exchange      EXHF   =         0.00000000
  -V(xc)+E(xc)   XCENC  =      -664.61821075
  PAW double counting   =      8494.55058411    -7650.81563588
  entropy T*S    EENTRO =         0.03400396
  eigenvalues    EBANDS =      1059.18412758
  atomic energy  EATOM  =      8465.11600846
  ---------------------------------------------------
  free energy    TOTEN  =      -269.08134023 eV

  energy without entropy =     -269.11534419  energy(sigma->0) =     -269.09267488


--------------------------------------------------------------------------------------------------------




--------------------------------------- Iteration      1(   6)  ---------------------------------------


    TRIAL :  cpu time   26.4637: real time   26.6355
    CORREC:  cpu time    0.0099: real time    0.0100
    --------------------------------------------
      LOOP:  cpu time   26.4772: real time   26.6492

 eigenvalue-minimisations  : 37672
 total energy-change (2. order) :-0.3420190E+00  (-0.3309278E+00)
 number of electron     180.0000000 magnetization      -6.0000000
 augmentation part      180.0000000 magnetization      -6.0000000

 Free energy of the ion-electron system (eV)
  ---------------------------------------------------
  alpha Z        PSCENC =       532.25742704
  Ewald energy   TEWEN  =     -8601.05107233
  -Hartree energ DENC   =     -1903.73857242
  -exchange      EXHF   =         0.00000000
  -V(xc)+E(xc)   XCENC  =      -664.61821075
  PAW double counting   =      8494.55058411    -7650.81563588
  entropy T*S    EENTRO =         0.03565615
  eigenvalues    EBANDS =      1058.84045639
  atomic energy  EATOM  =      8465.11600846
  ---------------------------------------------------
  free energy    TOTEN  =      -269.42335923 eV

  energy without entropy =     -269.45901538  energy(sigma->0) =     -269.43524461


--------------------------------------------------------------------------------------------------------




--------------------------------------- Iteration      1(   7)  ---------------------------------------


    TRIAL :  cpu time   27.0849: real time   27.9847
    CORREC:  cpu time    0.0100: real time    0.0101
    --------------------------------------------
      LOOP:  cpu time   27.1011: real time   28.0012

 eigenvalue-minimisations  : 38608
 total energy-change (2. order) :-0.4307124E-01  (-0.4218392E-01)
 number of electron     180.0000000 magnetization      -6.0000000
 augmentation part      180.0000000 magnetization      -6.0000000

 Free energy of the ion-electron system (eV)
  ---------------------------------------------------
  alpha Z        PSCENC =       532.25742704
  Ewald energy   TEWEN  =     -8601.05107233
  -Hartree energ DENC   =     -1903.73857242
  -exchange      EXHF   =         0.00000000
  -V(xc)+E(xc)   XCENC  =      -664.61821075
  PAW double counting   =      8494.55058411    -7650.81563588
  entropy T*S    EENTRO =         0.03645735
  eigenvalues    EBANDS =      1058.79658395
  atomic energy  EATOM  =      8465.11600846
  ---------------------------------------------------
  free energy    TOTEN  =      -269.46643047 eV

  energy without entropy =     -269.50288782  energy(sigma->0) =     -269.47858292


--------------------------------------------------------------------------------------------------------




--------------------------------------- Iteration      1(   8)  ---------------------------------------


    TRIAL :  cpu time   26.1288: real time   26.3520
    CORREC:  cpu time    0.0102: real time    0.0111
    CHARGE:  cpu time    1.0493: real time    1.0492
    --------------------------------------------
      LOOP:  cpu time   27.1898: real time   27.4167

 eigenvalue-minimisations  : 36928
 total energy-change (2. order) :-0.5392637E-02  (-0.5312242E-02)
 number of electron     179.9999997 magnetization      -5.1567750
 augmentation part       42.6143770 magnetization      -2.9154412

 Free energy of the ion-electron system (eV)
  ---------------------------------------------------
  alpha Z        PSCENC =       532.25742704
  Ewald energy   TEWEN  =     -8601.05107233
  -Hartree energ DENC   =     -1903.73857242
  -exchange      EXHF   =         0.00000000
  -V(xc)+E(xc)   XCENC  =      -664.61821075
  PAW double counting   =      8494.55058411    -7650.81563588
  entropy T*S    EENTRO =         0.03685463
  eigenvalues    EBANDS =      1058.79079402
  atomic energy  EATOM  =      8465.11600846
  ---------------------------------------------------
  free energy    TOTEN  =      -269.47182311 eV

  energy without entropy =     -269.50867774  energy(sigma->0) =     -269.48410799


--------------------------------------------------------------------------------------------------------




--------------------------------------- Iteration      1(   9)  ---------------------------------------


    POTLOK:  cpu time    0.2610: real time    0.2694
    SETDIJ:  cpu time    0.3165: real time    0.3165
    TRIAL :  cpu time    8.6833: real time    8.7809
    CORREC:  cpu time    3.3102: real time    3.3304
    CHARGE:  cpu time    1.0736: real time    1.0736
    --------------------------------------------
      LOOP:  cpu time   13.6517: real time   13.7791

 eigenvalue-minimisations  :     0
 total energy-change (2. order) : 0.2047433E+03  (-0.1473848E+03)
 number of electron     179.9999997 magnetization      -4.9643145
 augmentation part       54.8447921 magnetization      -3.1449329

 Free energy of the ion-electron system (eV)
  ---------------------------------------------------
  alpha Z        PSCENC =       532.25742704
  Ewald energy   TEWEN  =     -8601.05107233
  -Hartree energ DENC   =      -841.26900738
  -exchange      EXHF   =         0.00000000
  -V(xc)+E(xc)   XCENC  =      -694.79313476
  PAW double counting   =     12761.15146447   -11814.35161038
  entropy T*S    EENTRO =         0.01001450
  eigenvalues    EBANDS =       128.17450568
  atomic energy  EATOM  =      8465.11600846
  ---------------------------------------------------
  free energy    TOTEN  =       -64.72856457 eV

  energy without entropy =      -64.73857907  energy(sigma->0) =      -64.73190273


--------------------------------------------------------------------------------------------------------




--------------------------------------- Iteration      1(  10)  ---------------------------------------


    POTLOK:  cpu time    0.2473: real time    0.2473
    SETDIJ:  cpu time    0.3209: real time    0.3209
    TRIAL :  cpu time    9.4930: real time    9.5095
    CORREC:  cpu time    3.2580: real time    3.2711
    CHARGE:  cpu time    1.0579: real time    1.0581
    --------------------------------------------
      LOOP:  cpu time   14.3800: real time   14.4109

 eigenvalue-minimisations  :     0
 total energy-change (2. order) :-0.1449840E+03  (-0.8697571E+01)
 number of electron     179.9999996 magnetization      -4.8190092
 augmentation part       57.9267807 magnetization      -3.2279807

 Free energy of the ion-electron system (eV)
  ---------------------------------------------------
  alpha Z        PSCENC =       532.25742704
  Ewald energy   TEWEN  =     -8601.05107233
  -Hartree energ DENC   =     -1395.19904503
  -exchange      EXHF   =         0.00000000
  -V(xc)+E(xc)   XCENC  =      -675.77127998
  PAW double counting   =     13743.47848302   -12917.52689782
  entropy T*S    EENTRO =         0.00052716
  eigenvalues    EBANDS =       638.97381042
  atomic energy  EATOM  =      8465.11600846
  ---------------------------------------------------
  free energy    TOTEN  =      -209.71255171 eV

  energy without entropy =     -209.71307888  energy(sigma->0) =     -209.71272743


--------------------------------------------------------------------------------------------------------




--------------------------------------- Iteration      1(  11)  ---------------------------------------


    POTLOK:  cpu time    0.2481: real time    0.2573
    SETDIJ:  cpu time    0.5744: real time    1.2309
    TRIAL :  cpu time    8.7463: real time    8.8502
    CORREC:  cpu time    3.2464: real time    3.2590
    CHARGE:  cpu time    1.0928: real time    1.0952
    --------------------------------------------
      LOOP:  cpu time   13.9131: real time   14.6987

 eigenvalue-minimisations  :     0
 total energy-change (2. order) :-0.8728856E+01  (-0.9153537E+01)
 number of electron     179.9999996 magnetization      -4.4712883
 augmentation part       59.2292140 magnetization      -3.0994384

 Free energy of the ion-electron system (eV)
  ---------------------------------------------------
  alpha Z        PSCENC =       532.25742704
  Ewald energy   TEWEN  =     -8601.05107233
  -Hartree energ DENC   =     -1576.67571881
  -exchange      EXHF   =         0.00000000
  -V(xc)+E(xc)   XCENC  =      -669.35840062
  PAW double counting   =     14462.44425933   -13667.29430985
  entropy T*S    EENTRO =        -0.00892676
  eigenvalues    EBANDS =       836.11987220
  atomic energy  EATOM  =      8465.11600846
  ---------------------------------------------------
  free energy    TOTEN  =      -218.44140743 eV

  energy without entropy =     -218.43248067  energy(sigma->0) =     -218.43843184


--------------------------------------------------------------------------------------------------------




--------------------------------------- Iteration      1(  12)  ---------------------------------------


    POTLOK:  cpu time    0.2470: real time    0.2469
    SETDIJ:  cpu time    0.3022: real time    0.3688
    TRIAL :  cpu time    8.7211: real time    8.7568
    CORREC:  cpu time    3.3137: real time    3.3184
    CHARGE:  cpu time    1.0686: real time    1.0689
    --------------------------------------------
      LOOP:  cpu time   13.6607: real time   13.7692

 eigenvalue-minimisations  :     0
 total energy-change (2. order) :-0.9135479E+01  (-0.5801350E+01)
 number of electron     179.9999996 magnetization      -4.2876892
 augmentation part       58.0967183 magnetization      -2.9855515

 Free energy of the ion-electron system (eV)
  ---------------------------------------------------
  alpha Z        PSCENC =       532.25742704
  Ewald energy   TEWEN  =     -8601.05107233
  -Hartree energ DENC   =     -1711.61628972
  -exchange      EXHF   =         0.00000000
  -V(xc)+E(xc)   XCENC  =      -664.98160811
  PAW double counting   =     14457.14651700   -13660.90054198
  entropy T*S    EENTRO =        -0.00771312
  eigenvalues    EBANDS =       956.46160043
  atomic energy  EATOM  =      8465.11600846
  ---------------------------------------------------
  free energy    TOTEN  =      -227.57688597 eV

  energy without entropy =     -227.56917285  energy(sigma->0) =     -227.57431493


--------------------------------------------------------------------------------------------------------




--------------------------------------- Iteration      1(  13)  ---------------------------------------


    POTLOK:  cpu time    0.2470: real time    0.2469
    SETDIJ:  cpu time    0.2925: real time    0.3754
    TRIAL :  cpu time    8.7489: real time    8.7931
    CORREC:  cpu time    3.2725: real time    3.3441
    CHARGE:  cpu time    1.0523: real time    1.0645
    --------------------------------------------
      LOOP:  cpu time   13.6169: real time   13.8295

 eigenvalue-minimisations  :     0
 total energy-change (2. order) :-0.5635426E+01  (-0.8430578E+00)
 number of electron     179.9999997 magnetization      -4.2080963
 augmentation part       57.3211563 magnetization      -2.9186547

 Free energy of the ion-electron system (eV)
  ---------------------------------------------------
  alpha Z        PSCENC =       532.25742704
  Ewald energy   TEWEN  =     -8601.05107233
  -Hartree energ DENC   =     -1695.73917641
  -exchange      EXHF   =         0.00000000
  -V(xc)+E(xc)   XCENC  =      -665.92600684
  PAW double counting   =     14184.56578021   -13362.10354392
  entropy T*S    EENTRO =        -0.00673356
  eigenvalues    EBANDS =       909.67598499
  atomic energy  EATOM  =      8465.11600846
  ---------------------------------------------------
  free energy    TOTEN  =      -233.21231192 eV

  energy without entropy =     -233.20557836  energy(sigma->0) =     -233.21006740


--------------------------------------------------------------------------------------------------------




--------------------------------------- Iteration      1(  14)  ---------------------------------------


    POTLOK:  cpu time    0.2472: real time    0.2472
    SETDIJ:  cpu time    0.3196: real time    0.3195
    TRIAL :  cpu time    8.7396: real time    8.7506
    CORREC:  cpu time    3.9904: real time    3.9914
    CHARGE:  cpu time    1.0693: real time    1.0694
    --------------------------------------------
      LOOP:  cpu time   14.3827: real time   14.3957

 eigenvalue-minimisations  :     0
 total energy-change (2. order) :-0.8363566E+00  (-0.8105365E+00)
 number of electron     179.9999996 magnetization      -4.0848093
 augmentation part       57.2520386 magnetization      -2.7881460

 Free energy of the ion-electron system (eV)
  ---------------------------------------------------
  alpha Z        PSCENC =       532.25742704
  Ewald energy   TEWEN  =     -8601.05107233
  -Hartree energ DENC   =     -1654.37514442
  -exchange      EXHF   =         0.00000000
  -V(xc)+E(xc)   XCENC  =      -667.43822871
  PAW double counting   =     13865.90047983   -13031.86125379
  entropy T*S    EENTRO =        -0.00455692
  eigenvalues    EBANDS =       857.40984897
  atomic energy  EATOM  =      8465.11600846
  ---------------------------------------------------
  free energy    TOTEN  =      -234.04866851 eV

  energy without entropy =     -234.04411159  energy(sigma->0) =     -234.04714954


--------------------------------------------------------------------------------------------------------




--------------------------------------- Iteration      1(  15)  ---------------------------------------


    POTLOK:  cpu time    0.2468: real time    0.2468
    SETDIJ:  cpu time    0.3246: real time    0.3247
    TRIAL :  cpu time    8.7297: real time    9.4938
    CORREC:  cpu time    3.2167: real time    3.2954
    CHARGE:  cpu time    1.0541: real time    1.0679
    --------------------------------------------
      LOOP:  cpu time   13.5807: real time   14.4387

 eigenvalue-minimisations  :     0
 total energy-change (2. order) :-0.8100864E+00  (-0.5037637E+00)
 number of electron     179.9999996 magnetization      -3.9858024
 augmentation part       57.7991508 magnetization      -2.7109480

 Free energy of the ion-electron system (eV)
  ---------------------------------------------------
  alpha Z        PSCENC =       532.25742704
  Ewald energy   TEWEN  =     -8601.05107233
  -Hartree energ DENC   =     -1640.03555957
  -exchange      EXHF   =         0.00000000
  -V(xc)+E(xc)   XCENC  =      -667.92175009
  PAW double counting   =     13345.64904422   -12507.56742508
  entropy T*S    EENTRO =        -0.00215396
  eigenvalues    EBANDS =       838.69912938
  atomic energy  EATOM  =      8465.11600846
  ---------------------------------------------------
  free energy    TOTEN  =      -234.85875489 eV

  energy without entropy =     -234.85660094  energy(sigma->0) =     -234.85803691


--------------------------------------------------------------------------------------------------------




--------------------------------------- Iteration      1(  16)  ---------------------------------------


    POTLOK:  cpu time    0.2482: real time    0.2481
    SETDIJ:  cpu time    0.3211: real time    0.3210
    TRIAL :  cpu time    8.6839: real time    8.7677
    CORREC:  cpu time    3.3038: real time    3.3081
    CHARGE:  cpu time    1.0489: real time    1.0488
    --------------------------------------------
      LOOP:  cpu time   13.6110: real time   13.6998

 eigenvalue-minimisations  :     0
 total energy-change (2. order) :-0.5033109E+00  (-0.1675364E+00)
 number of electron     179.9999996 magnetization      -3.8980890
 augmentation part       58.1434369 magnetization      -2.6771233

 Free energy of the ion-electron system (eV)
  ---------------------------------------------------
  alpha Z        PSCENC =       532.25742704
  Ewald energy   TEWEN  =     -8601.05107233
  -Hartree energ DENC   =     -1659.70070800
  -exchange      EXHF   =         0.00000000
  -V(xc)+E(xc)   XCENC  =      -667.11758336
  PAW double counting   =     13072.18159448   -12238.37642250
  entropy T*S    EENTRO =        -0.00033987
  eigenvalues    EBANDS =       861.33084441
  atomic energy  EATOM  =      8465.11600846
  ---------------------------------------------------
  free energy    TOTEN  =      -235.36206577 eV

  energy without entropy =     -235.36172591  energy(sigma->0) =     -235.36195249


--------------------------------------------------------------------------------------------------------




--------------------------------------- Iteration      1(  17)  ---------------------------------------


    POTLOK:  cpu time    0.2469: real time    0.2469
    SETDIJ:  cpu time    0.3226: real time    0.3226
    TRIAL :  cpu time    8.8391: real time    8.8776
    CORREC:  cpu time    3.2493: real time    3.2888
    CHARGE:  cpu time    1.1010: real time    1.1011
    --------------------------------------------
      LOOP:  cpu time   13.7809: real time   13.8603

 eigenvalue-minimisations  :     0
 total energy-change (2. order) :-0.1677101E+00  (-0.1991267E+00)
 number of electron     179.9999996 magnetization      -3.7936084
 augmentation part       58.2427372 magnetization      -2.6420230

 Free energy of the ion-electron system (eV)
  ---------------------------------------------------
  alpha Z        PSCENC =       532.25742704
  Ewald energy   TEWEN  =     -8601.05107233
  -Hartree energ DENC   =     -1674.65950941
  -exchange      EXHF   =         0.00000000
  -V(xc)+E(xc)   XCENC  =      -666.46569613
  PAW double counting   =     13016.12237337   -12185.94911485
  entropy T*S    EENTRO =         0.00084140
  eigenvalues    EBANDS =       879.10014785
  atomic energy  EATOM  =      8465.11600846
  ---------------------------------------------------
  free energy    TOTEN  =      -235.52977587 eV

  energy without entropy =     -235.53061727  energy(sigma->0) =     -235.53005634


--------------------------------------------------------------------------------------------------------




--------------------------------------- Iteration      1(  18)  ---------------------------------------


    POTLOK:  cpu time    0.2469: real time    0.2468
    SETDIJ:  cpu time    0.3046: real time    0.3396
    TRIAL :  cpu time    8.6535: real time    8.7204
    CORREC:  cpu time    3.3155: real time    3.3168
    CHARGE:  cpu time    2.0619: real time    2.0619
    --------------------------------------------
      LOOP:  cpu time   14.5890: real time   14.6929

 eigenvalue-minimisations  :     0
 total energy-change (2. order) :-0.1991322E+00  (-0.9937185E-01)
 number of electron     179.9999996 magnetization      -3.7374407
 augmentation part       58.0292475 magnetization      -2.6154660

 Free energy of the ion-electron system (eV)
  ---------------------------------------------------
  alpha Z        PSCENC =       532.25742704
  Ewald energy   TEWEN  =     -8601.05107233
  -Hartree energ DENC   =     -1676.84819656
  -exchange      EXHF   =         0.00000000
  -V(xc)+E(xc)   XCENC  =      -666.18167094
  PAW double counting   =     12970.98504449   -12142.09592764
  entropy T*S    EENTRO =         0.00250403
  eigenvalues    EBANDS =       882.08863801
  atomic energy  EATOM  =      8465.11600846
  ---------------------------------------------------
  free energy    TOTEN  =      -235.72890807 eV

  energy without entropy =     -235.73141210  energy(sigma->0) =     -235.72974275


--------------------------------------------------------------------------------------------------------




--------------------------------------- Iteration      1(  19)  ---------------------------------------


    POTLOK:  cpu time    0.2468: real time    0.2468
    SETDIJ:  cpu time    0.3796: real time    0.3796
    TRIAL :  cpu time    8.6931: real time    9.4364
    CORREC:  cpu time    3.3115: real time    3.3257
    CHARGE:  cpu time    1.0526: real time    1.0673
    --------------------------------------------
      LOOP:  cpu time   13.6866: real time   14.4595

 eigenvalue-minimisations  :     0
 total energy-change (2. order) :-0.9888800E-01  (-0.4807660E-01)
 number of electron     179.9999996 magnetization      -3.6980891
 augmentation part       57.8518302 magnetization      -2.5972975

 Free energy of the ion-electron system (eV)
  ---------------------------------------------------
  alpha Z        PSCENC =       532.25742704
  Ewald energy   TEWEN  =     -8601.05107233
  -Hartree energ DENC   =     -1664.98856333
  -exchange      EXHF   =         0.00000000
  -V(xc)+E(xc)   XCENC  =      -666.48046889
  PAW double counting   =     12946.89442384   -12115.86550841
  entropy T*S    EENTRO =         0.00281742
  eigenvalues    EBANDS =       868.28745353
  atomic energy  EATOM  =      8465.11600846
  ---------------------------------------------------
  free energy    TOTEN  =      -235.82779607 eV

  energy without entropy =     -235.83061349  energy(sigma->0) =     -235.82873521


--------------------------------------------------------------------------------------------------------




--------------------------------------- Iteration      1(  20)  ---------------------------------------


    POTLOK:  cpu time    0.2489: real time    0.3163
    SETDIJ:  cpu time    0.3208: real time    0.3208
    TRIAL :  cpu time    8.7914: real time    8.8187
    CORREC:  cpu time    3.2340: real time    3.2666
    CHARGE:  cpu time    1.0523: real time    1.0526
    --------------------------------------------
      LOOP:  cpu time   13.6533: real time   13.7836

 eigenvalue-minimisations  :     0
 total energy-change (2. order) :-0.4800487E-01  (-0.8271914E-01)
 number of electron     179.9999996 magnetization      -3.5818685
 augmentation part       57.7778644 magnetization      -2.5453704

 Free energy of the ion-electron system (eV)
  ---------------------------------------------------
  alpha Z        PSCENC =       532.25742704
  Ewald energy   TEWEN  =     -8601.05107233
  -Hartree energ DENC   =     -1656.70033649
  -exchange      EXHF   =         0.00000000
  -V(xc)+E(xc)   XCENC  =      -666.71915082
  PAW double counting   =     12938.56404755   -12105.79364930
  entropy T*S    EENTRO =         0.00477171
  eigenvalues    EBANDS =       858.44810753
  atomic energy  EATOM  =      8465.11600846
  ---------------------------------------------------
  free energy    TOTEN  =      -235.87580094 eV

  energy without entropy =     -235.88057265  energy(sigma->0) =     -235.87739151


--------------------------------------------------------------------------------------------------------




--------------------------------------- Iteration      1(  21)  ---------------------------------------


    POTLOK:  cpu time    0.2471: real time    0.2470
    SETDIJ:  cpu time    0.3211: real time    0.3211
    TRIAL :  cpu time    8.7166: real time    8.7777
    CORREC:  cpu time    3.2996: real time    3.3172
    CHARGE:  cpu time    1.0571: real time    1.0570
    --------------------------------------------
      LOOP:  cpu time   13.6575: real time   13.7363

 eigenvalue-minimisations  :     0
 total energy-change (2. order) :-0.8275104E-01  (-0.3547646E-01)
 number of electron     179.9999996 magnetization      -3.5418416
 augmentation part       57.9001987 magnetization      -2.5197438

 Free energy of the ion-electron system (eV)
  ---------------------------------------------------
  alpha Z        PSCENC =       532.25742704
  Ewald energy   TEWEN  =     -8601.05107233
  -Hartree energ DENC   =     -1656.51795868
  -exchange      EXHF   =         0.00000000
  -V(xc)+E(xc)   XCENC  =      -666.62256348
  PAW double counting   =     12958.60175125   -12125.56834002
  entropy T*S    EENTRO =         0.00552928
  eigenvalues    EBANDS =       857.82142408
  atomic energy  EATOM  =      8465.11600846
  ---------------------------------------------------
  free energy    TOTEN  =      -235.95855198 eV

  energy without entropy =     -235.96408126  energy(sigma->0) =     -235.96039507


--------------------------------------------------------------------------------------------------------




--------------------------------------- Iteration      1(  22)  ---------------------------------------


    POTLOK:  cpu time    0.2464: real time    0.2471
    SETDIJ:  cpu time    0.3291: real time    0.3292
    TRIAL :  cpu time    8.7734: real time    8.8477
    CORREC:  cpu time    3.2753: real time    3.2852
    CHARGE:  cpu time    1.0537: real time    1.0539
    --------------------------------------------
      LOOP:  cpu time   13.6828: real time   13.7697

 eigenvalue-minimisations  :     0
 total energy-change (2. order) :-0.3552237E-01  (-0.1727240E-01)
 number of electron     179.9999996 magnetization      -3.5012654
 augmentation part       57.9831011 magnetization      -2.4916359

 Free energy of the ion-electron system (eV)
  ---------------------------------------------------
  alpha Z        PSCENC =       532.25742704
  Ewald energy   TEWEN  =     -8601.05107233
  -Hartree energ DENC   =     -1664.64324394
  -exchange      EXHF   =         0.00000000
  -V(xc)+E(xc)   XCENC  =      -666.28690422
  PAW double counting   =     12981.93938919   -12150.48040778
  entropy T*S    EENTRO =         0.00627560
  eigenvalues    EBANDS =       867.14919997
  atomic energy  EATOM  =      8465.11600846
  ---------------------------------------------------
  free energy    TOTEN  =      -235.99407435 eV

  energy without entropy =     -236.00034996  energy(sigma->0) =     -235.99616622


--------------------------------------------------------------------------------------------------------




--------------------------------------- Iteration      1(  23)  ---------------------------------------


    POTLOK:  cpu time    0.2476: real time    0.2475
    SETDIJ:  cpu time    0.3412: real time    0.3411
    TRIAL :  cpu time    9.4328: real time    9.4455
    CORREC:  cpu time    3.2782: real time    4.0376
    CHARGE:  cpu time    1.0656: real time    1.0657
    --------------------------------------------
[...]
  8.437  14.377  -0.000   0.000  -0.000  -0.000   0.001  -0.000
 14.377  24.501  -0.000   0.001  -0.000  -0.000   0.002  -0.000
 -0.000  -0.000   1.996   0.000   0.000   5.747   0.000   0.000
  0.000   0.001   0.000   1.995   0.000   0.000   5.746   0.000
 -0.000  -0.000   0.000   0.000   1.996   0.000   0.000   5.747
 -0.000  -0.000   5.747   0.000   0.000  16.470   0.001   0.001
  0.001   0.002   0.000   5.746   0.000   0.001  16.467   0.000
 -0.000  -0.000   0.000   0.000   5.747   0.001   0.000  16.470
 total augmentation occupancy for first ion, spin component:           1
  4.378  -1.252  -0.001   0.002  -0.002   0.000  -0.000   0.000
 -1.252   0.378  -0.000  -0.003   0.000  -0.000   0.000  -0.000
 -0.001  -0.000   1.431  -0.001  -0.002  -0.102   0.000   0.000
  0.002  -0.003  -0.001   1.488  -0.001   0.000  -0.101   0.000
 -0.002   0.000  -0.002  -0.001   1.429   0.000   0.000  -0.101
  0.000  -0.000  -0.102   0.000   0.000   0.008  -0.000   0.000
 -0.000   0.000   0.000  -0.101   0.000  -0.000   0.007  -0.000
  0.000  -0.000   0.000   0.000  -0.101   0.000  -0.000   0.008
 total augmentation occupancy for first ion, spin component:           2
  0.062  -0.020   0.018  -0.028   0.019  -0.001   0.001  -0.001
 -0.020   0.006   0.003  -0.005   0.003  -0.000   0.000  -0.000
  0.018   0.003   0.030  -0.024  -0.050  -0.002   0.000   0.001
 -0.028  -0.005  -0.024   0.044  -0.022   0.000  -0.002   0.000
  0.019   0.003  -0.050  -0.022   0.015   0.001   0.000  -0.001
 -0.001  -0.000  -0.002   0.000   0.001   0.000   0.000   0.000
  0.001   0.000   0.000  -0.002   0.000   0.000   0.000   0.000
 -0.001  -0.000   0.001   0.000  -0.001   0.000   0.000   0.000


------------------------ aborting loop because EDIFF is reached ----------------------------------------


 


 total charge     
 
# of ion       s       p       d       tot
------------------------------------------
    1        0.404   0.430   0.000   0.834
    2        0.405   0.430   0.000   0.835
    3        0.404   0.429   0.000   0.833
    4        0.404   0.429   0.000   0.833
    5        0.405   0.427   0.000   0.832
    6        0.405   0.427   0.000   0.832
    7        0.404   0.428   0.000   0.832
    8        0.405   0.428   0.000   0.833
    9        0.404   0.429   0.000   0.833
   10        0.405   0.429   0.000   0.834
   11        0.405   0.427   0.000   0.832
   12        0.405   0.427   0.000   0.832
   13        0.405   0.426   0.000   0.831
   14        0.406   0.426   0.000   0.831
   15        0.405   0.430   0.000   0.835
   16        0.405   0.430   0.000   0.835
   17        0.406   0.423   0.000   0.829
   18        0.406   0.423   0.000   0.829
   19        0.335   0.350   5.143   5.828
   20        0.329   0.358   5.128   5.816
   21        0.334   0.352   5.138   5.824
   22        0.334   0.356   5.131   5.821
   23        0.337   0.358   5.118   5.813
   24        0.335   0.351   5.138   5.823
   25        0.336   0.356   5.122   5.813
   26        0.331   0.353   5.142   5.826
   27        0.330   0.354   5.143   5.827
   28        0.335   0.354   5.121   5.811
   29        0.336   0.353   5.130   5.819
   30        0.336   0.352   5.132   5.820
   31        0.337   0.360   5.111   5.809
   32        0.335   0.350   5.139   5.824
   33        0.331   0.357   5.132   5.819
   34        0.335   0.353   5.132   5.819
   35        0.336   0.358   5.123   5.816
   36        0.337   0.350   5.134   5.821
--------------------------------------------------
tot         13.307  14.073  92.356 119.737
 


 magnetization (x)
 
# of ion       s       p       d       tot
------------------------------------------
    1        0.004   0.010   0.000   0.014
    2        0.005   0.010   0.000   0.014
    3        0.010   0.019   0.000   0.029
    4        0.010   0.019   0.000   0.029
    5        0.005   0.012   0.000   0.016
    6        0.005   0.012   0.000   0.017
    7        0.001   0.001   0.000   0.001
    8        0.001   0.001   0.000   0.002
    9        0.006   0.011   0.000   0.017
   10        0.006   0.010   0.000   0.016
   11        0.003   0.009   0.000   0.012
   12        0.003   0.009   0.000   0.012
   13       -0.005  -0.011   0.000  -0.016
   14       -0.005  -0.011   0.000  -0.015
   15        0.003   0.007   0.000   0.011
   16        0.003   0.007   0.000   0.010
   17       -0.007  -0.016   0.000  -0.023
   18       -0.006  -0.016   0.000  -0.022
   19        0.032   0.013   2.270   2.315
   20        0.002  -0.007  -2.161  -2.166
   21       -0.017  -0.006  -2.279  -2.302
   22       -0.024  -0.025  -2.122  -2.171
   23       -0.037  -0.029  -2.436  -2.503
   24       -0.029  -0.008  -2.369  -2.406
   25        0.018   0.021   2.414   2.452
   26       -0.019  -0.022  -2.082  -2.123
   27       -0.019  -0.022  -2.062  -2.102
   28        0.017   0.020   2.441   2.478
   29        0.023   0.016   2.394   2.432
   30        0.022   0.013   2.380   2.416
   31       -0.040  -0.032  -2.462  -2.534
   32       -0.031  -0.009  -2.309  -2.349
   33       -0.011  -0.011  -2.217  -2.240
   34        0.019   0.011   2.356   2.386
   35        0.032   0.027   2.328   2.387
   36        0.026   0.007   2.438   2.471
--------------------------------------------------
tot          0.006   0.040  -3.478  -3.433
 
    FORLOC:  cpu time    0.0286: real time    0.0286
    FORNL :  cpu time   12.6014: real time   12.7599
    STRESS:  cpu time   17.7572: real time   17.8353
    FORCOR:  cpu time    0.2709: real time    0.2710
    OFIELD:  cpu time    0.0014: real time    0.0014

  FORCE on cell =-STRESS in cart. coord.  units (eV):
  Direction    XX          YY          ZZ          XY          YZ          ZX
  --------------------------------------------------------------------------------------
  Alpha Z   532.25743   532.25743   532.25743
  Ewald   -2702.40749 -2702.40749 -3196.26924    -0.00000    -0.00000    -0.00000
  Hartree   719.91911   720.31789   225.97184    -0.00994    -0.00000    -0.00000
  E(xc)    -760.15451  -760.23702  -760.24443     0.00495     0.00000     0.00000
  Local     251.13204   248.93577  1261.19720     0.06886    -0.00000     0.00000
  n-local  -110.05609  -110.56343  -119.54088     0.31914    -0.13912    -0.09921
  augment   520.76181   521.52551   514.93121    -0.08326     0.00001     0.00001
  Kinetic  1553.71667  1555.63530  1543.75193     0.10031     0.30421     0.04810
  Fock        0.00000     0.00000     0.00000     0.00000     0.00000     0.00000
  -------------------------------------------------------------------------------------
  Total       5.16897     5.46397     2.05506     0.40006     0.00000     0.00000
  in kB      17.49855    18.49719     6.95702     1.35434     0.00000     0.00000
  external pressure =       14.32 kB  Pullay stress =        0.00 kB


 VOLUME and BASIS-vectors are now :
 -----------------------------------------------------------------------------
  energy-cutoff  :      404.80
  volume of cell :      473.27
      direct lattice vectors                 reciprocal lattice vectors
     8.250148166  0.000000000  0.000000000     0.121209944  0.000000000  0.000000000
     0.000000000  8.250148166  0.000000000     0.000000000  0.121209944  0.000000000
     0.000000000  0.000000000  6.953274261     0.000000000  0.000000000  0.143817137

  length of vectors
     8.250148166  8.250148166  6.953274261     0.121209944  0.121209944  0.143817137


 FORCES acting on ions:
    Electron-Ion                     Ewald-Force                    Non-Local-Force
 -----------------------------------------------------------------------------------------------
   -.460E-01 -.399E-01 -.106E+00   -.239E-08 -.239E-08 0.411E-08   0.537E-01 0.513E-01 0.433E-02
   -.460E-01 -.399E-01 0.106E+00   -.239E-08 -.239E-08 0.411E-08   0.537E-01 0.513E-01 -.433E-02
   0.510E-01 0.888E-01 0.146E-01   -.239E-08 -.802E-09 0.411E-08   -.741E-02 -.576E-01 -.523E-02
   0.510E-01 0.888E-01 -.146E-01   -.239E-08 -.802E-09 0.411E-08   -.741E-02 -.576E-01 0.523E-02
   0.625E-01 -.443E-01 -.382E-01   -.239E-08 0.631E-08 0.411E-08   0.644E-01 0.844E-02 0.677E-01
   0.625E-01 -.443E-01 0.382E-01   -.239E-08 0.631E-08 0.411E-08   0.644E-01 0.844E-02 -.677E-01
   0.155E-01 0.876E-01 -.449E-02   -.802E-09 -.239E-08 0.411E-08   -.355E-01 0.204E-01 -.236E-01
   0.155E-01 0.876E-01 0.449E-02   -.802E-09 -.239E-08 0.411E-08   -.355E-01 0.204E-01 0.236E-01
   -.224E+00 -.101E+00 0.649E-01   -.802E-09 -.802E-09 0.411E-08   0.249E-01 0.310E-01 -.578E-01
   -.224E+00 -.101E+00 -.649E-01   -.802E-09 -.802E-09 0.411E-08   0.249E-01 0.310E-01 0.578E-01
   -.145E-01 -.406E-01 0.135E-01   -.802E-09 0.631E-08 0.411E-08   -.546E-01 0.602E-02 0.166E-01
   -.145E-01 -.406E-01 -.135E-01   -.802E-09 0.631E-08 0.411E-08   -.546E-01 0.602E-02 -.166E-01
   0.263E-01 -.237E-02 -.514E-01   0.631E-08 -.239E-08 0.411E-08   -.269E-01 -.122E+00 0.370E-01
   0.263E-01 -.237E-02 0.514E-01   0.631E-08 -.239E-08 0.411E-08   -.269E-01 -.122E+00 -.370E-01
   0.171E+00 0.201E+00 -.411E-01   0.631E-08 -.802E-09 0.411E-08   -.324E-01 -.700E-01 0.255E-01
   0.171E+00 0.201E+00 0.411E-01   0.631E-08 -.802E-09 0.411E-08   -.324E-01 -.700E-01 -.255E-01
   -.242E-01 -.198E+00 0.118E-01   0.631E-08 0.631E-08 0.411E-08   0.430E-02 0.164E+00 -.623E-01
   -.242E-01 -.198E+00 -.118E-01   0.631E-08 0.631E-08 0.411E-08   0.430E-02 0.164E+00 0.623E-01
   0.359E+00 -.512E-02 -.358E-08   -.169E-07 -.169E-07 -.411E-08   -.196E+00 -.843E-01 0.000E+00
   0.129E+00 -.378E-01 -.180E-08   -.169E-07 -.169E-07 -.411E-08   -.785E-01 0.671E-01 0.000E+00
   -.110E+00 0.452E+00 -.164E-08   -.169E-07 0.802E-09 -.411E-08   0.847E-01 -.360E+00 0.000E+00
   -.153E+00 -.132E+00 -.132E-08   -.169E-07 0.802E-09 -.411E-08   0.123E+00 0.127E+00 0.000E+00
   -.856E-01 -.567E+00 -.515E-09   -.169E-07 0.130E-07 -.411E-08   0.514E-01 0.140E+00 0.000E+00
   -.108E+00 0.136E+00 -.115E-08   -.169E-07 0.130E-07 -.411E-08   0.936E-01 -.465E-01 0.000E+00
   -.397E+00 -.586E+00 -.527E-08   0.802E-09 -.169E-07 -.411E-08   0.248E+00 0.347E+00 0.000E+00
   -.333E+00 -.139E+00 -.120E-08   0.802E-09 -.169E-07 -.411E-08   0.295E+00 0.101E+00 0.000E+00
   0.660E-01 0.820E-01 -.323E-08   0.802E-09 0.802E-09 -.411E-08   -.492E-01 -.192E-01 0.000E+00
   0.450E+00 0.532E+00 -.106E-08   0.802E-09 0.802E-09 -.411E-08   -.241E+00 -.260E+00 0.000E+00
   0.519E+00 0.603E+00 -.213E-08   0.802E-09 0.130E-07 -.411E-08   -.379E+00 -.332E+00 0.000E+00
   0.482E+00 -.466E+00 -.728E-09   0.802E-09 0.130E-07 -.411E-08   -.233E+00 0.160E+00 0.000E+00
   0.347E+00 0.569E+00 -.703E-08   0.130E-07 -.169E-07 -.411E-08   -.265E+00 -.294E+00 0.000E+00
   0.195E+00 -.281E-01 -.679E-09   0.130E-07 -.169E-07 -.411E-08   -.185E+00 -.410E-01 0.000E+00
   0.438E-01 -.294E+00 -.529E-08   0.130E-07 0.802E-09 -.411E-08   -.113E-01 0.258E+00 0.000E+00
   -.400E+00 0.177E+00 -.617E-09   0.130E-07 0.802E-09 -.411E-08   0.242E+00 0.509E-01 0.000E+00
   -.558E+00 0.108E+00 -.403E-08   0.130E-07 0.130E-07 -.411E-08   0.293E+00 0.501E-02 0.000E+00
   -.467E+00 -.297E+00 -.336E-09   0.130E-07 0.130E-07 -.411E-08   0.210E+00 0.112E+00 0.000E+00
 -----------------------------------------------------------------------------------------------
   0.149E-01 0.642E-02 -.781E-07   -.197E-14 0.275E-13 0.265E-14   -.148E-01 -.646E-02 0.000E+00
 
 
 POSITION                                       TOTAL-FORCE (eV/Angst)
 -----------------------------------------------------------------------------------
      0.00000      0.00000      0.00000         0.002898      0.007211     -0.101000
      0.00000      0.00000      3.47664         0.002898      0.007211      0.101000
      0.00000      2.75005      0.00000         0.044358      0.036515      0.009830
      0.00000      2.75005      3.47664         0.044358      0.036515     -0.009830
      0.00000      5.50010      0.00000         0.121515     -0.036857      0.023798
      0.00000      5.50010      3.47664         0.121515     -0.036857     -0.023798
      2.75005      0.00000      0.00000        -0.016599      0.107194     -0.025936
      2.75005      0.00000      3.47664        -0.016599      0.107194      0.025936
      2.75005      2.75005      0.00000        -0.201696     -0.073400      0.012074
      2.75005      2.75005      3.47664        -0.201696     -0.073400     -0.012074
      2.75005      5.50010      0.00000        -0.063716     -0.035475      0.028591
      2.75005      5.50010      3.47664        -0.063716     -0.035475     -0.028591
      5.50010      0.00000      0.00000         0.001384     -0.114384     -0.017238
      5.50010      0.00000      3.47664         0.001384     -0.114384      0.017238
      5.50010      2.75005      0.00000         0.140960      0.137820     -0.017821
      5.50010      2.75005      3.47664         0.140960      0.137820      0.017821
      5.50010      5.50010      0.00000        -0.020541     -0.049234     -0.044086
      5.50010      5.50010      3.47664        -0.020541     -0.049234      0.044086
      1.37502      1.37502      1.73832         0.165998     -0.094165      0.000000
      1.37502      1.37502      5.21496         0.052523      0.028588      0.000000
      1.37502      4.12507      1.73832        -0.027803      0.103335      0.000000
      1.37502      4.12507      5.21496        -0.031008     -0.005583      0.000000
      1.37502      6.87512      1.73832        -0.037812     -0.440088      0.000000
      1.37502      6.87512      5.21496        -0.017784      0.088536      0.000000
      4.12507      1.37502      1.73832        -0.142361     -0.252541      0.000000
      4.12507      1.37502      5.21496        -0.045124     -0.041140      0.000000
      4.12507      4.12507      1.73832         0.016642      0.067097      0.000000
      4.12507      4.12507      5.21496         0.212421      0.283482      0.000000
      4.12507      6.87512      1.73832         0.149717      0.284133      0.000000
      4.12507      6.87512      5.21496         0.259217     -0.318873      0.000000
      6.87512      1.37502      1.73832         0.090043      0.284844      0.000000
      6.87512      1.37502      5.21496         0.015343     -0.072185      0.000000
      6.87512      4.12507      1.73832         0.034341     -0.032262      0.000000
      6.87512      4.12507      5.21496        -0.164591      0.229285      0.000000
      6.87512      6.87512      1.73832        -0.278209      0.117838      0.000000
      6.87512      6.87512      5.21496        -0.268678     -0.189084      0.000000
 -----------------------------------------------------------------------------------
    total drift:                                0.000080     -0.000041     -0.000000


--------------------------------------------------------------------------------------------------------



  FREE ENERGIE OF THE ION-ELECTRON SYSTEM (eV)
  ---------------------------------------------------
  free  energy   TOTEN  =      -236.11043916 eV

  energy  without entropy=     -236.11880436  energy(sigma->0) =     -236.11322756
 


--------------------------------------------------------------------------------------------------------


    POTLOK:  cpu time    0.6228: real time    0.6617


--------------------------------------------------------------------------------------------------------


     LOOP+:  cpu time 1201.5874: real time 1225.3610
    4ORBIT:  cpu time    0.0000: real time    0.0000
 


 total charge     
 
# of ion       s       p       d       tot
------------------------------------------
    1        0.404   0.430   0.000   0.834
    2        0.405   0.430   0.000   0.835
    3        0.404   0.429   0.000   0.833
    4        0.404   0.429   0.000   0.833
    5        0.405   0.427   0.000   0.832
    6        0.405   0.427   0.000   0.832
    7        0.404   0.428   0.000   0.832
    8        0.405   0.428   0.000   0.833
    9        0.404   0.429   0.000   0.833
   10        0.405   0.429   0.000   0.834
   11        0.405   0.427   0.000   0.832
   12        0.405   0.427   0.000   0.832
   13        0.405   0.426   0.000   0.831
   14        0.406   0.426   0.000   0.831
   15        0.405   0.430   0.000   0.835
   16        0.405   0.430   0.000   0.835
   17        0.406   0.423   0.000   0.829
   18        0.406   0.423   0.000   0.829
   19        0.335   0.350   5.143   5.828
   20        0.329   0.358   5.128   5.816
   21        0.334   0.352   5.138   5.824
   22        0.334   0.356   5.131   5.821
   23        0.337   0.358   5.118   5.813
   24        0.335   0.351   5.138   5.823
   25        0.336   0.356   5.122   5.813
   26        0.331   0.353   5.142   5.826
   27        0.330   0.354   5.143   5.827
   28        0.335   0.354   5.121   5.811
   29        0.336   0.353   5.130   5.819
   30        0.336   0.352   5.132   5.820
   31        0.337   0.360   5.111   5.809
   32        0.335   0.350   5.139   5.824
   33        0.331   0.357   5.132   5.819
   34        0.335   0.353   5.132   5.819
   35        0.336   0.358   5.123   5.816
   36        0.337   0.350   5.134   5.821
--------------------------------------------------
tot         13.307  14.073  92.356 119.737
 


 magnetization (x)
 
# of ion       s       p       d       tot
------------------------------------------
    1        0.004   0.010   0.000   0.014
    2        0.005   0.010   0.000   0.014
    3        0.010   0.019   0.000   0.029
    4        0.010   0.019   0.000   0.029
    5        0.005   0.012   0.000   0.016
    6        0.005   0.012   0.000   0.017
    7        0.001   0.001   0.000   0.001
    8        0.001   0.001   0.000   0.002
    9        0.006   0.011   0.000   0.017
   10        0.006   0.010   0.000   0.016
   11        0.003   0.009   0.000   0.012
   12        0.003   0.009   0.000   0.012
   13       -0.005  -0.011   0.000  -0.016
   14       -0.005  -0.011   0.000  -0.015
   15        0.003   0.007   0.000   0.011
   16        0.003   0.007   0.000   0.010
   17       -0.007  -0.016   0.000  -0.023
   18       -0.006  -0.016   0.000  -0.022
   19        0.032   0.013   2.270   2.315
   20        0.002  -0.007  -2.161  -2.166
   21       -0.017  -0.006  -2.279  -2.302
   22       -0.024  -0.025  -2.122  -2.171
   23       -0.037  -0.029  -2.436  -2.503
   24       -0.029  -0.008  -2.369  -2.406
   25        0.018   0.021   2.414   2.452
   26       -0.019  -0.022  -2.082  -2.123
   27       -0.019  -0.022  -2.062  -2.102
   28        0.017   0.020   2.441   2.478
   29        0.023   0.016   2.394   2.432
   30        0.022   0.013   2.380   2.416
   31       -0.040  -0.032  -2.462  -2.534
   32       -0.031  -0.009  -2.309  -2.349
   33       -0.011  -0.011  -2.217  -2.240
   34        0.019   0.011   2.356   2.386
   35        0.032   0.027   2.328   2.387
   36        0.026   0.007   2.438   2.471
--------------------------------------------------
tot          0.006   0.040  -3.478  -3.433
 

 total amount of memory used by VASP MPI-rank0   728596. kBytes
=======================================================================

   base      :      30000. kBytes
   nonl-proj :      34307. kBytes
   fftplans  :      21726. kBytes
   grid      :      14732. kBytes
   one-center:        279. kBytes
   wavefun   :     627552. kBytes
 
  
  
 General timing and accounting informations for this job:
 ========================================================
  
                  Total CPU time used (sec):     1226.919
                            User time (sec):     1204.701
                          System time (sec):       22.218
                         Elapsed time (sec):     1252.871
  
                   Maximum memory used (kb):      864848.
                   Average memory used (kb):           0.
  
                          Minor page faults:       433183
                          Major page faults:           20
                 Voluntary context switches:         4144
