 vasp.5.4.4.18Apr17-6-g9f103f2a35 (build Dec 20 2018 12:05:58) complex          
  
 executed on             LinuxIFC date 2019.06.20  21:53:30
 running on   32 total cores
 distrk:  each k-point on    8 cores,    4 groups
 distr:  one band on NCORES_PER_BAND=   4 cores,    2 groups


--------------------------------------------------------------------------------------------------------


 INCAR:
 POTCAR:    PAW_PBE Al 04Jan2001                  
 POTCAR:    PAW_PBE Mn 06Sep2000                  

 ----------------------------------------------------------------------------- 
|                                                                             |
|           W    W    AA    RRRRR   N    N  II  N    N   GGGG   !!!           |
|           W    W   A  A   R    R  NN   N  II  NN   N  G    G  !!!           |
|           W    W  A    A  R    R  N N  N  II  N N  N  G       !!!           |
|           W WW W  AAAAAA  RRRRR   N  N N  II  N  N N  G  GGG   !            |
|           WW  WW  A    A  R   R   N   NN  II  N   NN  G    G                |
|           W    W  A    A  R    R  N    N  II  N    N   GGGG   !!!           |
|                                                                             |
|      You have enabled k-point parallelism (KPAR>1).                         |
|      This developmental code was originally  written by Paul Kent at ORNL,  |
|      and carefully double checked in Vienna.                                |
|      GW as well as linear response parallelism added by Martijn Marsman     |
|      and Georg Kresse.                                                      |
|      Carefully verify results versus KPAR=1.                                |
|      Report problems to Paul Kent and Vienna.                               |
|                                                                             |
 ----------------------------------------------------------------------------- 

 POTCAR:    PAW_PBE Al 04Jan2001                  
   VRHFIN =Al: s2p1                                                             
   LEXCH  = PE                                                                  
   EATOM  =    53.5387 eV,    3.9350 Ry                                         
                                                                                
   TITEL  = PAW_PBE Al 04Jan2001                                                
   LULTRA =        F    use ultrasoft PP ?                                      
   IUNSCR =        1    unscreen: 0-lin 1-nonlin 2-no                           
   RPACOR =    1.500    partial core radius                                     
   POMASS =   26.981; ZVAL   =    3.000    mass and valenz                      
   RCORE  =    1.900    outmost cutoff radius                                   
   RWIGS  =    2.650; RWIGS  =    1.402    wigner-seitz radius (au A)           
   ENMAX  =  240.300; ENMIN  =  180.225 eV                                      
   ICORE  =        2    local potential                                         
   LCOR   =        T    correct aug charges                                     
   LPAW   =        T    paw PP                                                  
   EAUG   =  291.052                                                            
   DEXC   =    0.000                                                            
   RMAX   =    1.939    core radius for proj-oper                               
   RAUG   =    1.300    factor for augmentation sphere                          
   RDEP   =    1.966    radius for radial grids                                 
   RDEPT  =    1.856    core radius for aug-charge                              
                                                                                
   Atomic configuration                                                         
    6 entries                                                                   
     n  l   j            E        occ.                                          
     1  0  0.50     -1511.1048   2.0000                                         
     2  0  0.50      -108.1629   2.0000                                         
     2  1  1.50       -69.6402   6.0000                                         
     3  0  0.50        -7.7528   2.0000                                         
     3  1  1.50        -2.7121   1.0000                                         
     3  2  2.50        -2.7212   0.0000                                         
   Description                                                                  
     l       E           TYP  RCUT    TYP  RCUT                                 
     0     -7.7528455     23  1.900                                             
     0     -3.3096929     23  1.900                                             
     1     -2.7120682     23  1.900                                             
     1     13.6058260     23  1.900                                             
     2     -2.7211652      7  1.900                                             
  local pseudopotential read in
  partial core-charges read in
  partial kinetic energy density read in
  atomic valenz-charges read in
  non local Contribution for L=           0  read in
    real space projection operators read in
  non local Contribution for L=           0  read in
    real space projection operators read in
  non local Contribution for L=           1  read in
    real space projection operators read in
  non local Contribution for L=           1  read in
    real space projection operators read in
    PAW grid and wavefunctions read in
 
   number of l-projection  operators is LMAX  =           4
   number of lm-projection operators is LMMAX =           8
 
 POTCAR:    PAW_PBE Mn 06Sep2000                  
   VRHFIN =Mn: d6 s1                                                            
   LEXCH  = PE                                                                  
   EATOM  =   416.7541 eV,   30.6306 Ry                                         
                                                                                
   TITEL  = PAW_PBE Mn 06Sep2000                                                
   LULTRA =        F    use ultrasoft PP ?                                      
   IUNSCR =        1    unscreen: 0-lin 1-nonlin 2-no                           
   RPACOR =    2.000    partial core radius                                     
   POMASS =   54.938; ZVAL   =    7.000    mass and valenz                      
   RCORE  =    2.300    outmost cutoff radius                                   
   RWIGS  =    2.500; RWIGS  =    1.323    wigner-seitz radius (au A)           
   ENMAX  =  269.864; ENMIN  =  202.398 eV                                      
   RCLOC  =    1.725    cutoff for local pot                                    
   LCOR   =        T    correct aug charges                                     
   LPAW   =        T    paw PP                                                  
   EAUG   =  500.711                                                            
   DEXC   =    0.000                                                            
   RMAX   =    2.343    core radius for proj-oper                               
   RAUG   =    1.300    factor for augmentation sphere                          
   RDEP   =    2.338    radius for radial grids                                 
   RDEPT  =    1.911    core radius for aug-charge                              
                                                                                
   Atomic configuration                                                         
    9 entries                                                                   
     n  l   j            E        occ.                                          
     1  0  0.50     -6424.8288   2.0000                                         
     2  0  0.50      -739.1154   2.0000                                         
     2  1  1.50      -625.3949   6.0000                                         
     3  0  0.50       -81.6100   2.0000                                         
     3  1  1.50       -50.4667   6.0000                                         
     3  2  2.50        -3.3745   6.0000                                         
     4  0  0.50        -4.1331   1.0000                                         
     4  1  0.50        -4.0817   0.0000                                         
     4  3  2.50        -1.3606   0.0000                                         
   Description                                                                  
     l       E           TYP  RCUT    TYP  RCUT                                 
     2     -3.3744664     23  2.300                                             
     2     -4.7350490     23  2.300                                             
     0     -4.1331408     23  2.300                                             
     0      7.6656614     23  2.300                                             
     1     -2.7211652     23  2.300                                             
     1     20.4087390     23  2.300                                             
  local pseudopotential read in
  partial core-charges read in
  partial kinetic energy density read in
  atomic valenz-charges read in
  non local Contribution for L=           2  read in
    real space projection operators read in
  non local Contribution for L=           2  read in
    real space projection operators read in
  non local Contribution for L=           0  read in
    real space projection operators read in
  non local Contribution for L=           0  read in
    real space projection operators read in
  non local Contribution for L=           1  read in
    real space projection operators read in
  non local Contribution for L=           1  read in
    real space projection operators read in
    PAW grid and wavefunctions read in
 
   number of l-projection  operators is LMAX  =           6
   number of lm-projection operators is LMMAX =          18
 

 ----------------------------------------------------------------------------- 
|                                                                             |
|  ADVICE TO THIS USER RUNNING 'VASP/VAMP'   (HEAR YOUR MASTER'S VOICE ...):  |
|                                                                             |
|      You have a (more or less) 'large supercell' and for larger cells       |
|      it might be more efficient to use real space projection opertators     |
|      So try LREAL= Auto  in the INCAR   file.                               |
|      Mind:          For very  accurate calculation you might also keep the  |
|      reciprocal projection scheme          (i.e. LREAL=.FALSE.)             |
|                                                                             |
 ----------------------------------------------------------------------------- 

  PAW_PBE Al 04Jan2001                  :
 energy of atom  1       EATOM=  -53.5387
 kinetic energy error for atom=    0.0005 (will be added to EATOM!!)
  PAW_PBE Mn 06Sep2000                  :
 energy of atom  2       EATOM= -416.7541
 kinetic energy error for atom=    0.0080 (will be added to EATOM!!)
 
 
 POSCAR: NewRef: 27, @ ['Mn', array([1.37502469, 
  positions in cartesian coordinates
  velocities in cartesian coordinates
  No initial velocities read in
 exchange correlation table for  LEXCH =        8
   RHO(1)=    0.500       N(1)  =     2000
   RHO(2)=  100.500       N(2)  =     4000
 


--------------------------------------------------------------------------------------------------------


 ion  position               nearest neighbor table
   1  0.000  0.000  0.000-  28 2.61  30 2.61  34 2.61  36 2.61  46 2.61  48 2.61  52 2.61  54 2.61
                             4 2.75  10 2.75   7 2.75  19 2.75
   2  0.000  0.000  0.333-  28 2.61  34 2.61  46 2.61  52 2.61  29 2.61  47 2.61  35 2.61  53 2.61
                             5 2.75  11 2.75   8 2.75  20 2.75
   3  0.000  0.000  0.667-  29 2.61  35 2.61  47 2.61  53 2.61  30 2.61  48 2.61  36 2.61  54 2.61
                             6 2.75  12 2.75   9 2.75  21 2.75
   4  0.000  0.333  0.000-  28 2.61  30 2.61  46 2.61  48 2.61  31 2.61  33 2.61  49 2.61  51 2.61
                            13 2.75   1 2.75   7 2.75  22 2.75
   5  0.000  0.333  0.333-  28 2.61  46 2.61  31 2.61  49 2.61  47 2.61  29 2.61  32 2.61  50 2.61
                            14 2.75   2 2.75   8 2.75  23 2.75
   6  0.000  0.333  0.667-  29 2.61  47 2.61  32 2.61  50 2.61  48 2.61  30 2.61  33 2.61  51 2.61
                            15 2.75   3 2.75   9 2.75  24 2.75
   7  0.000  0.667  0.000-  31 2.61  33 2.61  49 2.61  51 2.61  34 2.61  36 2.61  52 2.61  54 2.61
                             4 2.75  16 2.75   1 2.75  25 2.75
   8  0.000  0.667  0.333-  31 2.61  49 2.61  34 2.61  52 2.61  50 2.61  32 2.61  35 2.61  53 2.61
                             5 2.75  17 2.75   2 2.75  26 2.75
   9  0.000  0.667  0.667-  32 2.61  50 2.61  35 2.61  53 2.61  51 2.61  33 2.61  36 2.61  54 2.61
                             6 2.75  18 2.75   3 2.75  27 2.75
  10  0.333  0.000  0.000-  28 2.61  30 2.61  34 2.61  36 2.61  37 2.61  39 2.61  43 2.61  45 2.61
                            19 2.75   1 2.75  13 2.75  16 2.75
  11  0.333  0.000  0.333-  28 2.61  34 2.61  37 2.61  43 2.61  29 2.61  35 2.61  38 2.61  44 2.61
                            20 2.75   2 2.75  14 2.75  17 2.75
  12  0.333  0.000  0.667-  29 2.61  35 2.61  38 2.61  44 2.61  30 2.61  36 2.61  39 2.61  45 2.61
                            21 2.75   3 2.75  15 2.75  18 2.75
  13  0.333  0.333  0.000-  28 2.61  30 2.61  31 2.61  33 2.61  37 2.61  39 2.61  40 2.61  42 2.61
                             4 2.75  10 2.75  16 2.75  22 2.75
  14  0.333  0.333  0.333-  28 2.61  31 2.61  37 2.61  29 2.61  40 2.61  38 2.61  32 2.61  41 2.61
                             5 2.75  11 2.75  17 2.75  23 2.75
  15  0.333  0.333  0.667-  29 2.61  32 2.61  38 2.61  30 2.61  41 2.61  39 2.61  33 2.61  42 2.61
                             6 2.75  12 2.75  18 2.75  24 2.75
  16  0.333  0.667  0.000-  31 2.61  33 2.61  34 2.61  36 2.61  40 2.61  42 2.61  43 2.61  45 2.61
                            25 2.75   7 2.75  13 2.75  10 2.75
  17  0.333  0.667  0.333-  31 2.61  34 2.61  40 2.61  32 2.61  43 2.61  41 2.61  35 2.61  44 2.61
                            26 2.75   8 2.75  14 2.75  11 2.75
  18  0.333  0.667  0.667-  32 2.61  35 2.61  41 2.61  33 2.61  44 2.61  42 2.61  36 2.61  45 2.61
                            27 2.75   9 2.75  15 2.75  12 2.75
  19  0.667  0.000  0.000-  37 2.61  39 2.61  43 2.61  45 2.61  46 2.61  48 2.61  52 2.61  54 2.61
                            10 2.75  22 2.75   1 2.75  25 2.75
  20  0.667  0.000  0.333-  37 2.61  43 2.61  46 2.61  52 2.61  38 2.61  44 2.61  47 2.61  53 2.61
                            11 2.75  23 2.75   2 2.75  26 2.75
  21  0.667  0.000  0.667-  38 2.61  44 2.61  47 2.61  53 2.61  39 2.61  45 2.61  48 2.61  54 2.61
                            12 2.75  24 2.75   3 2.75  27 2.75
  22  0.667  0.333  0.000-  37 2.61  39 2.61  40 2.61  42 2.61  46 2.61  48 2.61  49 2.61  51 2.61
                            25 2.75  13 2.75  19 2.75   4 2.75
  23  0.667  0.333  0.333-  37 2.61  40 2.61  46 2.61  38 2.61  49 2.61  47 2.61  41 2.61  50 2.61
                            26 2.75  14 2.75  20 2.75   5 2.75
  24  0.667  0.333  0.667-  38 2.61  41 2.61  47 2.61  39 2.61  50 2.61  48 2.61  42 2.61  51 2.61
                            27 2.75  15 2.75  21 2.75   6 2.75
  25  0.667  0.667  0.000-  40 2.61  42 2.61  43 2.61  45 2.61  49 2.61  51 2.61  52 2.61  54 2.61
                            16 2.75  22 2.75  19 2.75   7 2.75
  26  0.667  0.667  0.333-  40 2.61  43 2.61  49 2.61  41 2.61  52 2.61  50 2.61  44 2.61  53 2.61
                            17 2.75  23 2.75  20 2.75   8 2.75
  27  0.667  0.667  0.667-  41 2.61  44 2.61  50 2.61  42 2.61  53 2.61  51 2.61  45 2.61  54 2.61
                            18 2.75  24 2.75  21 2.75   9 2.75
  28  0.167  0.167  0.167-  14 2.61  11 2.61   5 2.61  13 2.61   2 2.61  10 2.61   4 2.61   1 2.61
                            31 2.75  37 2.75  34 2.75  46 2.75
  29  0.167  0.167  0.500-  15 2.61  12 2.61   6 2.61  14 2.61   3 2.61  11 2.61   5 2.61   2 2.61
                            32 2.75  38 2.75  35 2.75  47 2.75
  30  0.167  0.167  0.833-  13 2.61  15 2.61  10 2.61  12 2.61   4 2.61   6 2.61   1 2.61   3 2.61
                            33 2.75  39 2.75  36 2.75  48 2.75
  31  0.167  0.500  0.167-  17 2.61  14 2.61   8 2.61  16 2.61   5 2.61  13 2.61   7 2.61   4 2.61
                            28 2.75  34 2.75  40 2.75  49 2.75
  32  0.167  0.500  0.500-  18 2.61  15 2.61   9 2.61  17 2.61   6 2.61  14 2.61   8 2.61   5 2.61
                            29 2.75  35 2.75  41 2.75  50 2.75
  33  0.167  0.500  0.833-  16 2.61  18 2.61  13 2.61  15 2.61   7 2.61   9 2.61   4 2.61   6 2.61
                            30 2.75  36 2.75  42 2.75  51 2.75
  34  0.167  0.833  0.167-  11 2.61  17 2.61   2 2.61   8 2.61  16 2.61  10 2.61   7 2.61   1 2.61
                            31 2.75  43 2.75  28 2.75  52 2.75
  35  0.167  0.833  0.500-  12 2.61  18 2.61   3 2.61   9 2.61  17 2.61  11 2.61   8 2.61   2 2.61
                            32 2.75  44 2.75  29 2.75  53 2.75
  36  0.167  0.833  0.833-  10 2.61  12 2.61  16 2.61  18 2.61   1 2.61   3 2.61   7 2.61   9 2.61
                            33 2.75  45 2.75  30 2.75  54 2.75
  37  0.500  0.167  0.167-  23 2.61  20 2.61  14 2.61  22 2.61  11 2.61  19 2.61  13 2.61  10 2.61
                            28 2.75  40 2.75  46 2.75  43 2.75
  38  0.500  0.167  0.500-  24 2.61  21 2.61  15 2.61  23 2.61  12 2.61  20 2.61  14 2.61  11 2.61
                            29 2.75  41 2.75  47 2.75  44 2.75
  39  0.500  0.167  0.833-  22 2.61  24 2.61  19 2.61  21 2.61  13 2.61  15 2.61  10 2.61  12 2.61
                            30 2.75  42 2.75  48 2.75  45 2.75
  40  0.500  0.500  0.167-  26 2.61  23 2.61  17 2.61  25 2.61  14 2.61  22 2.61  16 2.61  13 2.61
                            31 2.75  37 2.75  43 2.75  49 2.75
  41  0.500  0.500  0.500-  27 2.61  24 2.61  18 2.61  26 2.61  15 2.61  23 2.61  17 2.61  14 2.61
                            32 2.75  38 2.75  44 2.75  50 2.75
  42  0.500  0.500  0.833-  25 2.61  27 2.61  22 2.61  24 2.61  16 2.61  18 2.61  13 2.61  15 2.61
                            33 2.75  39 2.75  45 2.75  51 2.75
  43  0.500  0.833  0.167-  20 2.61  26 2.61  11 2.61  17 2.61  25 2.61  19 2.61  16 2.61  10 2.61
                            34 2.75  40 2.75  52 2.75  37 2.75
  44  0.500  0.833  0.500-  21 2.61  27 2.61  12 2.61  18 2.61  26 2.61  20 2.61  17 2.61  11 2.61
                            35 2.75  41 2.75  53 2.75  38 2.75
  45  0.500  0.833  0.833-  19 2.61  21 2.61  25 2.61  27 2.61  10 2.61  12 2.61  16 2.61  18 2.61
                            36 2.75  42 2.75  54 2.75  39 2.75
  46  0.833  0.167  0.167-   5 2.61  23 2.61  20 2.61   2 2.61  22 2.61   4 2.61  19 2.61   1 2.61
                            37 2.75  49 2.75  28 2.75  52 2.75
  47  0.833  0.167  0.500-   6 2.61  24 2.61  21 2.61   3 2.61  23 2.61   5 2.61  20 2.61   2 2.61
                            38 2.75  50 2.75  29 2.75  53 2.75
  48  0.833  0.167  0.833-   4 2.61   6 2.61  22 2.61  24 2.61  19 2.61  21 2.61   1 2.61   3 2.61
                            39 2.75  51 2.75  30 2.75  54 2.75
  49  0.833  0.500  0.167-   8 2.61  26 2.61  23 2.61   5 2.61  25 2.61   7 2.61  22 2.61   4 2.61
                            40 2.75  46 2.75  52 2.75  31 2.75
  50  0.833  0.500  0.500-   9 2.61  27 2.61  24 2.61   6 2.61  26 2.61   8 2.61  23 2.61   5 2.61
                            41 2.75  47 2.75  53 2.75  32 2.75
  51  0.833  0.500  0.833-   7 2.61   9 2.61  25 2.61  27 2.61  22 2.61  24 2.61   4 2.61   6 2.61
                            42 2.75  48 2.75  54 2.75  33 2.75
  52  0.833  0.833  0.167-   2 2.61   8 2.61  20 2.61  26 2.61  19 2.61   7 2.61  25 2.61   1 2.61
                            43 2.75  49 2.75  46 2.75  34 2.75
  53  0.833  0.833  0.500-   3 2.61   9 2.61  21 2.61  27 2.61  20 2.61   8 2.61  26 2.61   2 2.61
                            44 2.75  50 2.75  47 2.75  35 2.75
  54  0.833  0.833  0.833-   1 2.61   3 2.61   7 2.61   9 2.61  19 2.61  21 2.61  25 2.61  27 2.61
                            45 2.75  51 2.75  48 2.75  36 2.75
 
  LATTYP: Found a simple tetragonal cell.
 ALAT       =     8.2501481662
 C/A-ratio  =     1.2642089792
  
  Lattice vectors:
  
 A1 = (   8.2501481662,   0.0000000000,   0.0000000000)
 A2 = (   0.0000000000,   8.2501481662,   0.0000000000)
 A3 = (   0.0000000000,   0.0000000000,  10.4299113916)


Analysis of symmetry for initial positions (statically):
=====================================================================
 Subroutine PRICEL returns following result:
 
  LATTYP: Found a simple tetragonal cell.
 ALAT       =     2.7500493888
 C/A-ratio  =     1.2642089792
  
  Lattice vectors:
  
 A1 = (   2.7500493888,   0.0000000000,   0.0000000000)
 A2 = (   0.0000000000,   2.7500493888,   0.0000000000)
 A3 = (   0.0000000000,   0.0000000000,   3.4766371306)
 
  27 primitive cells build up your supercell.
 

 Routine SETGRP: Setting up the symmetry group for a 
 simple tetragonal supercell.


 Subroutine GETGRP returns: Found 16 space group operations
 (whereof 16 operations were pure point group operations)
 out of a pool of 16 trial point group operations.


The static configuration has the point symmetry D_4h.


Analysis of symmetry for dynamics (positions and initial velocities):
=====================================================================
 Subroutine PRICEL returns following result:
 
  LATTYP: Found a simple tetragonal cell.
 ALAT       =     2.7500493888
 C/A-ratio  =     1.2642089792
  
  Lattice vectors:
  
 A1 = (   2.7500493888,   0.0000000000,   0.0000000000)
 A2 = (   0.0000000000,   2.7500493888,   0.0000000000)
 A3 = (   0.0000000000,   0.0000000000,   3.4766371306)
 
  27 primitive cells build up your supercell.
 

 Routine SETGRP: Setting up the symmetry group for a 
 simple tetragonal supercell.


 Subroutine GETGRP returns: Found 16 space group operations
 (whereof 16 operations were pure point group operations)
 out of a pool of 16 trial point group operations.


The dynamic configuration has the point symmetry D_4h.


Analysis of structural, dynamic, and magnetic symmetry:
=====================================================================
 Subroutine PRICEL returns following result:
 
  LATTYP: Found a simple orthorhombic cell.
 ALAT       =     2.7500493888
 B/A-ratio  =     2.9999999999
 C/A-ratio  =     3.7926269376
  
  Lattice vectors:
  
 A1 = (   0.0000000000,  -2.7500493888,   0.0000000000)
 A2 = (  -8.2501481662,   0.0000000000,   0.0000000000)
 A3 = (   0.0000000000,   0.0000000000, -10.4299113916)
 
   3 primitive cells build up your supercell.
 

 Routine SETGRP: Setting up the symmetry group for a 
 simple tetragonal supercell.


 Subroutine GETGRP returns: Found  4 space group operations
 (whereof  2 operations were pure point group operations)
 out of a pool of 16 trial point group operations.


The magnetic configuration has the point symmetry C_1h.
 The point group associated with its full space group is C_2v.


 Subroutine INISYM returns: Found  4 space group operations
 (whereof  2 operations are pure point group operations),
 and found     3 'primitive' translations

 
 
 KPOINTS: automatic KPOINTS                       

Automatic generation of k-mesh.
 generate k-points for:    5    5    4
Space group operators:
 irot       det(A)        alpha          n_x          n_y          n_z        tau_x        tau_y        tau_z
    1     1.000000     0.000001     1.000000     0.000000     0.000000     0.000000     0.000000     0.000000
    2    -1.000000   180.000000     0.000000     1.000000     0.000000     0.000000     0.000000     0.000000
    3     1.000000   180.000000     0.000000     0.000000     1.000000    -0.666667     0.000000     0.000000
    4    -1.000000   180.000000     1.000000     0.000000     0.000000    -0.666667     0.000000     0.000000
 
 Subroutine IBZKPT returns following result:
 ===========================================
 
 Found     27 irreducible k-points:
 
 Following reciprocal coordinates:
            Coordinates               Weight
  0.000000  0.000000  0.000000      1.000000
  0.200000  0.000000  0.000000      2.000000
  0.400000  0.000000  0.000000      2.000000
  0.000000  0.200000  0.000000      2.000000
  0.200000  0.200000  0.000000      4.000000
  0.400000  0.200000  0.000000      4.000000
  0.000000  0.400000  0.000000      2.000000
  0.200000  0.400000  0.000000      4.000000
  0.400000  0.400000  0.000000      4.000000
  0.000000  0.000000  0.250000      2.000000
  0.200000  0.000000  0.250000      4.000000
  0.400000  0.000000  0.250000      4.000000
  0.000000  0.200000  0.250000      4.000000
  0.200000  0.200000  0.250000      8.000000
  0.400000  0.200000  0.250000      8.000000
  0.000000  0.400000  0.250000      4.000000
  0.200000  0.400000  0.250000      8.000000
  0.400000  0.400000  0.250000      8.000000
  0.000000  0.000000  0.500000      1.000000
  0.200000  0.000000  0.500000      2.000000
  0.400000  0.000000  0.500000      2.000000
  0.000000  0.200000  0.500000      2.000000
  0.200000  0.200000  0.500000      4.000000
  0.400000  0.200000  0.500000      4.000000
  0.000000  0.400000  0.500000      2.000000
  0.200000  0.400000  0.500000      4.000000
  0.400000  0.400000  0.500000      4.000000
 
 Following cartesian coordinates:
            Coordinates               Weight
  0.000000  0.000000  0.000000      1.000000
  0.024242  0.000000  0.000000      2.000000
  0.048484  0.000000  0.000000      2.000000
  0.000000  0.024242  0.000000      2.000000
  0.024242  0.024242  0.000000      4.000000
  0.048484  0.024242  0.000000      4.000000
  0.000000  0.048484  0.000000      2.000000
  0.024242  0.048484  0.000000      4.000000
  0.048484  0.048484  0.000000      4.000000
  0.000000  0.000000  0.023970      2.000000
  0.024242  0.000000  0.023970      4.000000
  0.048484  0.000000  0.023970      4.000000
  0.000000  0.024242  0.023970      4.000000
  0.024242  0.024242  0.023970      8.000000
  0.048484  0.024242  0.023970      8.000000
  0.000000  0.048484  0.023970      4.000000
  0.024242  0.048484  0.023970      8.000000
  0.048484  0.048484  0.023970      8.000000
  0.000000  0.000000  0.047939      1.000000
  0.024242  0.000000  0.047939      2.000000
  0.048484  0.000000  0.047939      2.000000
  0.000000  0.024242  0.047939      2.000000
  0.024242  0.024242  0.047939      4.000000
  0.048484  0.024242  0.047939      4.000000
  0.000000  0.048484  0.047939      2.000000
  0.024242  0.048484  0.047939      4.000000
  0.048484  0.048484  0.047939      4.000000
 


--------------------------------------------------------------------------------------------------------




 Dimension of arrays:
   k-points           NKPTS =     27   k-points in BZ     NKDIM =     27   number of bands    NBANDS=    160
   number of dos      NEDOS =    301   number of ions     NIONS =     54
   non local maximal  LDIM  =      6   non local SUM 2l+1 LMDIM =     18
   total plane-waves  NPLWV = 204120
   max r-space proj   IRMAX =      1   max aug-charges    IRDMAX=  89713
   dimension x,y,z NGX =    54 NGY =   54 NGZ =   70
   dimension x,y,z NGXF=   108 NGYF=  108 NGZF=  140
   support grid    NGXF=   216 NGYF=  216 NGZF=  280
   ions per type =              27  27
   NGX,Y,Z   is equivalent  to a cutoff of  10.88, 10.88, 11.16 a.u.
   NGXF,Y,Z  is equivalent  to a cutoff of  21.76, 21.76, 22.32 a.u.

 SYSTEM =  AlMn_pv                                 
 POSCAR =  NewRef: 27, @ ['Mn', array([1.37502469, 

 Startparameter for this run:
   NWRITE =      2    write-flag & timer
   PREC   = accura    normal or accurate (medium, high low for compatibility)
   ISTART =      0    job   : 0-new  1-cont  2-samecut
   ICHARG =      2    charge: 1-file 2-atom 10-const
   ISPIN  =      2    spin polarized calculation?
   LNONCOLLINEAR =      F non collinear calculations
   LSORBIT =      F    spin-orbit coupling
   INIWAV =      1    electr: 0-lowe 1-rand  2-diag
   LASPH  =      F    aspherical Exc in radial PAW
   METAGGA=      F    non-selfconsistent MetaGGA calc.

 Electronic Relaxation 1
   ENCUT  =  404.8 eV  29.75 Ry    5.45 a.u.  13.53 13.53 17.11*2*pi/ulx,y,z
   ENINI  =  404.8     initial cutoff
   ENAUG  =  500.7 eV  augmentation charge cutoff
   NELM   =    100;   NELMIN=  4; NELMDL= -8     # of ELM steps 
   EDIFF  = 0.1E-06   stopping-criterion for ELM
   LREAL  =      F    real-space projection
   NLSPLINE    = F    spline interpolate recip. space projectors
   LCOMPAT=      F    compatible to vasp.4.4
   GGA_COMPAT  = T    GGA compatible to vasp.4.4-vasp.4.6
   LMAXPAW     = -100 max onsite density
   LMAXMIX     =    2 max onsite mixed and CHGCAR
   VOSKOWN=      0    Vosko Wilk Nusair interpolation
   ROPT   =    0.00000   0.00000
 Ionic relaxation
   EDIFFG = 0.1E-05   stopping-criterion for IOM
   NSW    =      0    number of steps for IOM
   NBLOCK =      1;   KBLOCK =      1    inner block; outer block 
   IBRION =     -1    ionic relax: 0-MD 1-quasi-New 2-CG
   NFREE  =      0    steps in history (QN), initial steepest desc. (CG)
   ISIF   =      2    stress and relaxation
   IWAVPR =     10    prediction:  0-non 1-charg 2-wave 3-comb
   ISYM   =      2    0-nonsym 1-usesym 2-fastsym
   LCORR  =      T    Harris-Foulkes like correction to forces

   POTIM  = 0.2000    time-step for ionic-motion
   TEIN   =    0.0    initial temperature
   TEBEG  =    0.0;   TEEND  =   0.0 temperature during run
   SMASS  =  -3.00    Nose mass-parameter (am)
   estimated Nose-frequenzy (Omega)   =  0.10E-29 period in steps =****** mass=  -0.156E-26a.u.
   SCALEE = 1.0000    scale energy and forces
   NPACO  =    256;   APACO  = 16.0  distance and # of slots for P.C.
   PSTRESS=    0.0 pullay stress

  Mass of Ions in am
   POMASS =  26.98 54.94
  Ionic Valenz
   ZVAL   =   3.00  7.00
  Atomic Wigner-Seitz radii
   RWIGS  =  -1.00 -1.00
  virtual crystal weights 
   VCA    =   1.00  1.00
   NELECT =     270.0000    total number of electrons
   NUPDOWN=      -1.0000    fix difference up-down

 DOS related values:
   EMIN   =  10.00;   EMAX   =-10.00  energy-range for DOS
   EFERMI =   0.00
   ISMEAR =     1;   SIGMA  =   0.20  broadening in eV -4-tet -1-fermi 0-gaus

 Electronic relaxation 2 (details)
   IALGO  =     58    algorithm
   LDIAG  =      T    sub-space diagonalisation (order eigenvalues)
   LSUBROT=      F    optimize rotation matrix (better conditioning)
   TURBO    =      0    0=normal 1=particle mesh
   IRESTART =      0    0=no restart 2=restart with 2 vectors
   NREBOOT  =      0    no. of reboots
   NMIN     =      0    reboot dimension
   EREF     =   0.00    reference energy to select bands
   IMIX   =      4    mixing-type and parameters
     AMIX     =   0.40;   BMIX     =  1.00
     AMIX_MAG =   1.60;   BMIX_MAG =  1.00
     AMIN     =   0.10
     WC   =   100.;   INIMIX=   1;  MIXPRE=   1;  MAXMIX= -45

 Intra band minimization:
   WEIMIN = 0.0000     energy-eigenvalue tresh-hold
   EBREAK =  0.16E-09  absolut break condition
   DEPER  =   0.30     relativ break condition  

   TIME   =   0.40     timestep for ELM

  volume/ion in A,a.u.               =      13.15        88.72
  Fermi-wavevector in a.u.,A,eV,Ry     =   1.186118  2.241439 19.141722  1.406877
  Thomas-Fermi vector in A             =   2.322298
 
 Write flags
   LWAVE        =      F    write WAVECAR
   LDOWNSAMPLE  =      F    k-point downsampling of WAVECAR
   LCHARG       =      F    write CHGCAR
   LVTOT        =      F    write LOCPOT, total local potential
   LVHAR        =      F    write LOCPOT, Hartree potential only
   LELF         =      F    write electronic localiz. function (ELF)
   LORBIT       =     10    0 simple, 1 ext, 2 COOP (PROOUT), +10 PAW based schemes


 Dipole corrections
   LMONO  =      F    monopole corrections only (constant potential shift)
   LDIPOL =      F    correct potential (dipole corrections)
   IDIPOL =      0    1-x, 2-y, 3-z, 4-all directions 
   EPSILON=  1.0000000 bulk dielectric constant

 Exchange correlation treatment:
   GGA     =    --    GGA type
   LEXCH   =     8    internal setting for exchange type
   VOSKOWN=      0    Vosko Wilk Nusair interpolation
   LHFCALC =     F    Hartree Fock is set to
   LHFONE  =     F    Hartree Fock one center treatment
   AEXX    =    0.0000 exact exchange contribution

 Linear response parameters
   LEPSILON=     F    determine dielectric tensor
   LRPA    =     F    only Hartree local field effects (RPA)
   LNABLA  =     F    use nabla operator in PAW spheres
   LVEL    =     F    velocity operator in full k-point grid
   LINTERFAST=   F  fast interpolation
   KINTER  =     0    interpolate to denser k-point grid
   CSHIFT  =0.1000    complex shift for real part using Kramers Kronig
   OMEGAMAX=  -1.0    maximum frequency
   DEG_THRESHOLD= 0.2000000E-02 threshold for treating states as degnerate
   RTIME   =   -0.100 relaxation time in fs
  (WPLASMAI=    0.000 imaginary part of plasma frequency in eV, 0.658/RTIME)
   DFIELD  = 0.0000000 0.0000000 0.0000000 field for delta impulse in time
 
 Orbital magnetization related:
   ORBITALMAG=     F  switch on orbital magnetization
   LCHIMAG   =     F  perturbation theory with respect to B field
   DQ        =  0.001000  dq finite difference perturbation B field
   LLRAUG    =     F  two centre corrections for induced B field



--------------------------------------------------------------------------------------------------------


 Static calculation
 charge density and potential will be updated during run
 spin polarized calculation
 Conjugate gradient for all bands (Freysoldt, et al. PRB 79, 241103 (2009))
 preconditioned conjugated gradient                                        
 perform sub-space diagonalisation
    before iterative eigenvector-optimisation
 modified Broyden-mixing scheme, WC =      100.0
 initial mixing is a Kerker type mixing with AMIX =  0.4000 and BMIX =      1.0000
 Hartree-type preconditioning will be used
 using additional bands           25
 reciprocal scheme for non local part
 use partial core corrections
 no Harris-corrections to forces 
 use gradient corrections 
 use of overlap-Matrix (Vanderbilt PP)
 Methfessel and Paxton  Order N= 1 SIGMA  =   0.20


--------------------------------------------------------------------------------------------------------


  energy-cutoff  :      404.80
  volume of cell :      709.91
      direct lattice vectors                 reciprocal lattice vectors
     8.250148166  0.000000000  0.000000000     0.121209944  0.000000000  0.000000000
     0.000000000  8.250148166  0.000000000     0.000000000  0.121209944  0.000000000
     0.000000000  0.000000000 10.429911392     0.000000000  0.000000000  0.095878092

  length of vectors
     8.250148166  8.250148166 10.429911392     0.121209944  0.121209944  0.095878092


 
 k-points in units of 2pi/SCALE and weight: automatic KPOINTS                       
   0.00000000  0.00000000  0.00000000       0.010
   0.02424199  0.00000000  0.00000000       0.020
   0.04848398  0.00000000  0.00000000       0.020
   0.00000000  0.02424199  0.00000000       0.020
   0.02424199  0.02424199  0.00000000       0.040
   0.04848398  0.02424199  0.00000000       0.040
   0.00000000  0.04848398  0.00000000       0.020
   0.02424199  0.04848398  0.00000000       0.040
   0.04848398  0.04848398  0.00000000       0.040
   0.00000000  0.00000000  0.02396952       0.020
   0.02424199  0.00000000  0.02396952       0.040
   0.04848398  0.00000000  0.02396952       0.040
   0.00000000  0.02424199  0.02396952       0.040
   0.02424199  0.02424199  0.02396952       0.080
   0.04848398  0.02424199  0.02396952       0.080
   0.00000000  0.04848398  0.02396952       0.040
   0.02424199  0.04848398  0.02396952       0.080
   0.04848398  0.04848398  0.02396952       0.080
   0.00000000  0.00000000  0.04793905       0.010
   0.02424199  0.00000000  0.04793905       0.020
   0.04848398  0.00000000  0.04793905       0.020
   0.00000000  0.02424199  0.04793905       0.020
   0.02424199  0.02424199  0.04793905       0.040
   0.04848398  0.02424199  0.04793905       0.040
   0.00000000  0.04848398  0.04793905       0.020
   0.02424199  0.04848398  0.04793905       0.040
   0.04848398  0.04848398  0.04793905       0.040
 
 k-points in reciprocal lattice and weights: automatic KPOINTS                       
   0.00000000  0.00000000  0.00000000       0.010
   0.20000000  0.00000000  0.00000000       0.020
   0.40000000  0.00000000  0.00000000       0.020
   0.00000000  0.20000000  0.00000000       0.020
   0.20000000  0.20000000  0.00000000       0.040
   0.40000000  0.20000000  0.00000000       0.040
   0.00000000  0.40000000  0.00000000       0.020
   0.20000000  0.40000000  0.00000000       0.040
   0.40000000  0.40000000  0.00000000       0.040
   0.00000000  0.00000000  0.25000000       0.020
   0.20000000  0.00000000  0.25000000       0.040
   0.40000000  0.00000000  0.25000000       0.040
   0.00000000  0.20000000  0.25000000       0.040
   0.20000000  0.20000000  0.25000000       0.080
   0.40000000  0.20000000  0.25000000       0.080
   0.00000000  0.40000000  0.25000000       0.040
   0.20000000  0.40000000  0.25000000       0.080
   0.40000000  0.40000000  0.25000000       0.080
   0.00000000  0.00000000  0.50000000       0.010
   0.20000000  0.00000000  0.50000000       0.020
   0.40000000  0.00000000  0.50000000       0.020
   0.00000000  0.20000000  0.50000000       0.020
   0.20000000  0.20000000  0.50000000       0.040
   0.40000000  0.20000000  0.50000000       0.040
   0.00000000  0.40000000  0.50000000       0.020
   0.20000000  0.40000000  0.50000000       0.040
   0.40000000  0.40000000  0.50000000       0.040
 
 position of ions in fractional coordinates (direct lattice) 
   0.00000000  0.00000000  0.00000000
   0.00000000  0.00000000  0.33333333
   0.00000000  0.00000000  0.66666667
   0.00000000  0.33333333  0.00000000
   0.00000000  0.33333333  0.33333333
   0.00000000  0.33333333  0.66666667
   0.00000000  0.66666667  0.00000000
   0.00000000  0.66666667  0.33333333
   0.00000000  0.66666667  0.66666667
   0.33333333  0.00000000  0.00000000
   0.33333333  0.00000000  0.33333333
   0.33333333  0.00000000  0.66666667
   0.33333333  0.33333333  0.00000000
   0.33333333  0.33333333  0.33333333
   0.33333333  0.33333333  0.66666667
   0.33333333  0.66666667  0.00000000
   0.33333333  0.66666667  0.33333333
   0.33333333  0.66666667  0.66666667
   0.66666667  0.00000000  0.00000000
   0.66666667  0.00000000  0.33333333
   0.66666667  0.00000000  0.66666667
   0.66666667  0.33333333  0.00000000
   0.66666667  0.33333333  0.33333333
   0.66666667  0.33333333  0.66666667
   0.66666667  0.66666667  0.00000000
   0.66666667  0.66666667  0.33333333
   0.66666667  0.66666667  0.66666667
   0.16666667  0.16666667  0.16666667
   0.16666667  0.16666667  0.50000000
   0.16666667  0.16666667  0.83333333
   0.16666667  0.50000000  0.16666667
   0.16666667  0.50000000  0.50000000
   0.16666667  0.50000000  0.83333333
   0.16666667  0.83333333  0.16666667
   0.16666667  0.83333333  0.50000000
   0.16666667  0.83333333  0.83333333
   0.50000000  0.16666667  0.16666667
   0.50000000  0.16666667  0.50000000
   0.50000000  0.16666667  0.83333333
   0.50000000  0.50000000  0.16666667
   0.50000000  0.50000000  0.50000000
   0.50000000  0.50000000  0.83333333
   0.50000000  0.83333333  0.16666667
   0.50000000  0.83333333  0.50000000
   0.50000000  0.83333333  0.83333333
   0.83333333  0.16666667  0.16666667
   0.83333333  0.16666667  0.50000000
   0.83333333  0.16666667  0.83333333
   0.83333333  0.50000000  0.16666667
   0.83333333  0.50000000  0.50000000
   0.83333333  0.50000000  0.83333333
   0.83333333  0.83333333  0.16666667
   0.83333333  0.83333333  0.50000000
   0.83333333  0.83333333  0.83333333
 
 position of ions in cartesian coordinates  (Angst):
   0.00000000  0.00000000  0.00000000
   0.00000000  0.00000000  3.47663713
   0.00000000  0.00000000  6.95327426
   0.00000000  2.75004939  0.00000000
   0.00000000  2.75004939  3.47663713
   0.00000000  2.75004939  6.95327426
   0.00000000  5.50009878  0.00000000
   0.00000000  5.50009878  3.47663713
   0.00000000  5.50009878  6.95327426
   2.75004939  0.00000000  0.00000000
   2.75004939  0.00000000  3.47663713
   2.75004939  0.00000000  6.95327426
   2.75004939  2.75004939  0.00000000
   2.75004939  2.75004939  3.47663713
   2.75004939  2.75004939  6.95327426
   2.75004939  5.50009878  0.00000000
   2.75004939  5.50009878  3.47663713
   2.75004939  5.50009878  6.95327426
   5.50009878  0.00000000  0.00000000
   5.50009878  0.00000000  3.47663713
   5.50009878  0.00000000  6.95327426
   5.50009878  2.75004939  0.00000000
   5.50009878  2.75004939  3.47663713
   5.50009878  2.75004939  6.95327426
   5.50009878  5.50009878  0.00000000
   5.50009878  5.50009878  3.47663713
   5.50009878  5.50009878  6.95327426
   1.37502469  1.37502469  1.73831857
   1.37502469  1.37502469  5.21495570
   1.37502469  1.37502469  8.69159283
   1.37502469  4.12507408  1.73831857
   1.37502469  4.12507408  5.21495570
   1.37502469  4.12507408  8.69159283
   1.37502469  6.87512347  1.73831857
   1.37502469  6.87512347  5.21495570
   1.37502469  6.87512347  8.69159283
   4.12507408  1.37502469  1.73831857
   4.12507408  1.37502469  5.21495570
   4.12507408  1.37502469  8.69159283
   4.12507408  4.12507408  1.73831857
   4.12507408  4.12507408  5.21495570
   4.12507408  4.12507408  8.69159283
   4.12507408  6.87512347  1.73831857
   4.12507408  6.87512347  5.21495570
   4.12507408  6.87512347  8.69159283
   6.87512347  1.37502469  1.73831857
   6.87512347  1.37502469  5.21495570
   6.87512347  1.37502469  8.69159283
   6.87512347  4.12507408  1.73831857
   6.87512347  4.12507408  5.21495570
   6.87512347  4.12507408  8.69159283
   6.87512347  6.87512347  1.73831857
   6.87512347  6.87512347  5.21495570
   6.87512347  6.87512347  8.69159283
 


--------------------------------------------------------------------------------------------------------


 k-point  1 :   0.0000 0.0000 0.0000  plane waves:   13099
 k-point  2 :   0.2000 0.0000 0.0000  plane waves:   13101
 k-point  3 :   0.4000 0.0000 0.0000  plane waves:   13111
 k-point  4 :   0.0000 0.2000 0.0000  plane waves:   13101
 k-point  5 :   0.2000 0.2000 0.0000  plane waves:   13137
 k-point  6 :   0.4000 0.2000 0.0000  plane waves:   13119
 k-point  7 :   0.0000 0.4000 0.0000  plane waves:   13111
 k-point  8 :   0.2000 0.4000 0.0000  plane waves:   13119
 k-point  9 :   0.4000 0.4000 0.0000  plane waves:   13129
 k-point 10 :   0.0000 0.0000 0.2500  plane waves:   13134
 k-point 11 :   0.2000 0.0000 0.2500  plane waves:   13149
 k-point 12 :   0.4000 0.0000 0.2500  plane waves:   13119
 k-point 13 :   0.0000 0.2000 0.2500  plane waves:   13149
 k-point 14 :   0.2000 0.2000 0.2500  plane waves:   13145
 k-point 15 :   0.4000 0.2000 0.2500  plane waves:   13134
 k-point 16 :   0.0000 0.4000 0.2500  plane waves:   13119
 k-point 17 :   0.2000 0.4000 0.2500  plane waves:   13134
 k-point 18 :   0.4000 0.4000 0.2500  plane waves:   13108
 k-point 19 :   0.0000 0.0000 0.5000  plane waves:   13186
 k-point 20 :   0.2000 0.0000 0.5000  plane waves:   13124
 k-point 21 :   0.4000 0.0000 0.5000  plane waves:   13152
 k-point 22 :   0.0000 0.2000 0.5000  plane waves:   13124
 k-point 23 :   0.2000 0.2000 0.5000  plane waves:   13136
 k-point 24 :   0.4000 0.2000 0.5000  plane waves:   13128
 k-point 25 :   0.0000 0.4000 0.5000  plane waves:   13152
 k-point 26 :   0.2000 0.4000 0.5000  plane waves:   13128
 k-point 27 :   0.4000 0.4000 0.5000  plane waves:   13112

 maximum and minimum number of plane-waves per node :      3304     3246

 maximum number of plane-waves:     13186
 maximum index in each direction: 
   IXMAX=   13   IYMAX=   13   IZMAX=   17
   IXMIN=  -13   IYMIN=  -13   IZMIN=  -17


 parallel 3D FFT for wavefunctions:
    minimum data exchange during FFTs selected (reduces bandwidth)
 parallel 3D FFT for charge:
    minimum data exchange during FFTs selected (reduces bandwidth)


 total amount of memory used by VASP MPI-rank0   833505. kBytes
=======================================================================

   base      :      30000. kBytes
   nonl-proj :      28494. kBytes
   fftplans  :      31580. kBytes
   grid      :      21385. kBytes
   one-center:        435. kBytes
   wavefun   :     721611. kBytes
 
     INWAV:  cpu time    0.0000: real time    0.0000
 Broyden mixing: mesh for mixing (old mesh)
   NGX = 27   NGY = 27   NGZ = 35
  (NGX  =108   NGY  =108   NGZ  =140)
  gives a total of  25515 points

 initial charge density was supplied:
 charge density of overlapping atoms calculated
 number of electron     270.0000000 magnetization      -9.0000000
 keeping initial charge density in first step


--------------------------------------------------------------------------------------------------------


 Maximum index for augmentation-charges        10967 (set IRDMAX)


--------------------------------------------------------------------------------------------------------


 First call to EWALD:  gamma=   0.199
 Maximum number of real-space cells 3x 3x 2
 Maximum number of reciprocal cells 3x 3x 3

    FEWALD:  cpu time    0.0909: real time    0.0909


--------------------------------------- Iteration      1(   1)  ---------------------------------------


    POTLOK:  cpu time    0.3933: real time    0.4243
    SETDIJ:  cpu time    1.2249: real time    1.2250
    TRIAL :  cpu time   27.5615: real time   28.4055
    CORREC:  cpu time    0.0049: real time    0.0058
    --------------------------------------------
      LOOP:  cpu time   29.4298: real time   30.3136

 eigenvalue-minimisations  : 17280
 total energy-change (2. order) : 0.2072114E+04  (-0.8691221E+04)
 number of electron     270.0000000 magnetization      -9.0000000
 augmentation part      270.0000000 magnetization      -9.0000000

 Free energy of the ion-electron system (eV)
  ---------------------------------------------------
  alpha Z        PSCENC =       798.38614055
  Ewald energy   TEWEN  =    -12901.57693327
  -Hartree energ DENC   =     -2855.60785864
  -exchange      EXHF   =         0.00000000
  -V(xc)+E(xc)   XCENC  =      -996.08226074
  PAW double counting   =     12741.82587617   -11476.22345381
  entropy T*S    EENTRO =        -0.00192762
  eigenvalues    EBANDS =      4063.72035692
  atomic energy  EATOM  =     12697.67401269
  ---------------------------------------------------
  free energy    TOTEN  =      2072.11395223 eV

  energy without entropy =     2072.11587986  energy(sigma->0) =     2072.11459477


--------------------------------------------------------------------------------------------------------




--------------------------------------- Iteration      1(   2)  ---------------------------------------


    TRIAL :  cpu time   27.9639: real time   29.2547
    CORREC:  cpu time    0.0063: real time    0.0073
    --------------------------------------------
      LOOP:  cpu time   27.9712: real time   29.2654

 eigenvalue-minimisations  : 17280
 total energy-change (2. order) :-0.2125093E+04  (-0.2090079E+04)
 number of electron     270.0000000 magnetization      -9.0000000
 augmentation part      270.0000000 magnetization      -9.0000000

 Free energy of the ion-electron system (eV)
  ---------------------------------------------------
  alpha Z        PSCENC =       798.38614055
  Ewald energy   TEWEN  =    -12901.57693327
  -Hartree energ DENC   =     -2855.60785864
  -exchange      EXHF   =         0.00000000
  -V(xc)+E(xc)   XCENC  =      -996.08226074
  PAW double counting   =     12741.82587617   -11476.22345381
  entropy T*S    EENTRO =         0.00084667
  eigenvalues    EBANDS =      1938.62455563
  atomic energy  EATOM  =     12697.67401269
  ---------------------------------------------------
  free energy    TOTEN  =       -52.97907476 eV

  energy without entropy =      -52.97992143  energy(sigma->0) =      -52.97935699


--------------------------------------------------------------------------------------------------------




--------------------------------------- Iteration      1(   3)  ---------------------------------------


    TRIAL :  cpu time   38.7700: real time   39.7134
    CORREC:  cpu time    0.0074: real time    0.0076
    --------------------------------------------
      LOOP:  cpu time   38.7787: real time   39.7246

 eigenvalue-minimisations  : 26160
 total energy-change (2. order) :-0.2905651E+03  (-0.2655916E+03)
 number of electron     270.0000000 magnetization      -9.0000000
 augmentation part      270.0000000 magnetization      -9.0000000

 Free energy of the ion-electron system (eV)
  ---------------------------------------------------
  alpha Z        PSCENC =       798.38614055
  Ewald energy   TEWEN  =    -12901.57693327
  -Hartree energ DENC   =     -2855.60785864
  -exchange      EXHF   =         0.00000000
  -V(xc)+E(xc)   XCENC  =      -996.08226074
  PAW double counting   =     12741.82587617   -11476.22345381
  entropy T*S    EENTRO =        -0.00213804
  eigenvalues    EBANDS =      1648.06241405
  atomic energy  EATOM  =     12697.67401269
  ---------------------------------------------------
  free energy    TOTEN  =      -343.54420105 eV

  energy without entropy =     -343.54206301  energy(sigma->0) =     -343.54348837


--------------------------------------------------------------------------------------------------------




--------------------------------------- Iteration      1(   4)  ---------------------------------------


    TRIAL :  cpu time   41.0539: real time   42.2706
    CORREC:  cpu time    0.0077: real time    0.0085
    --------------------------------------------
      LOOP:  cpu time   41.0625: real time   42.2824

 eigenvalue-minimisations  : 28072
 total energy-change (2. order) :-0.5271100E+02  (-0.4748893E+02)
 number of electron     270.0000000 magnetization      -9.0000000
 augmentation part      270.0000000 magnetization      -9.0000000

 Free energy of the ion-electron system (eV)
  ---------------------------------------------------
  alpha Z        PSCENC =       798.38614055
  Ewald energy   TEWEN  =    -12901.57693327
  -Hartree energ DENC   =     -2855.60785864
  -exchange      EXHF   =         0.00000000
  -V(xc)+E(xc)   XCENC  =      -996.08226074
  PAW double counting   =     12741.82587617   -11476.22345381
  entropy T*S    EENTRO =         0.01052525
  eigenvalues    EBANDS =      1595.33874622
  atomic energy  EATOM  =     12697.67401269
  ---------------------------------------------------
  free energy    TOTEN  =      -396.25520559 eV

  energy without entropy =     -396.26573084  energy(sigma->0) =     -396.25871401


--------------------------------------------------------------------------------------------------------




--------------------------------------- Iteration      1(   5)  ---------------------------------------


    TRIAL :  cpu time   42.7469: real time   43.6223
    CORREC:  cpu time    0.0080: real time    0.0089
    --------------------------------------------
      LOOP:  cpu time   42.7581: real time   43.6350

 eigenvalue-minimisations  : 29392
 total energy-change (2. order) :-0.6913195E+01  (-0.6569799E+01)
 number of electron     270.0000000 magnetization      -9.0000000
 augmentation part      270.0000000 magnetization      -9.0000000

 Free energy of the ion-electron system (eV)
  ---------------------------------------------------
  alpha Z        PSCENC =       798.38614055
  Ewald energy   TEWEN  =    -12901.57693327
  -Hartree energ DENC   =     -2855.60785864
  -exchange      EXHF   =         0.00000000
  -V(xc)+E(xc)   XCENC  =      -996.08226074
  PAW double counting   =     12741.82587617   -11476.22345381
  entropy T*S    EENTRO =         0.01596483
  eigenvalues    EBANDS =      1588.42011213
  atomic energy  EATOM  =     12697.67401269
  ---------------------------------------------------
  free energy    TOTEN  =      -403.16840011 eV

  energy without entropy =     -403.18436494  energy(sigma->0) =     -403.17372172


--------------------------------------------------------------------------------------------------------




--------------------------------------- Iteration      1(   6)  ---------------------------------------


    TRIAL :  cpu time   42.3600: real time   42.8144
    CORREC:  cpu time    0.0079: real time    0.0087
    --------------------------------------------
      LOOP:  cpu time   42.3687: real time   42.8265

 eigenvalue-minimisations  : 29040
 total energy-change (2. order) :-0.6330716E+00  (-0.6113955E+00)
 number of electron     270.0000000 magnetization      -9.0000000
 augmentation part      270.0000000 magnetization      -9.0000000

 Free energy of the ion-electron system (eV)
  ---------------------------------------------------
  alpha Z        PSCENC =       798.38614055
  Ewald energy   TEWEN  =    -12901.57693327
  -Hartree energ DENC   =     -2855.60785864
  -exchange      EXHF   =         0.00000000
  -V(xc)+E(xc)   XCENC  =      -996.08226074
  PAW double counting   =     12741.82587617   -11476.22345381
  entropy T*S    EENTRO =         0.01998417
  eigenvalues    EBANDS =      1587.78302114
  atomic energy  EATOM  =     12697.67401269
  ---------------------------------------------------
  free energy    TOTEN  =      -403.80147175 eV

  energy without entropy =     -403.82145592  energy(sigma->0) =     -403.80813314


--------------------------------------------------------------------------------------------------------




--------------------------------------- Iteration      1(   7)  ---------------------------------------


    TRIAL :  cpu time   42.8557: real time   43.9299
    CORREC:  cpu time    0.0081: real time    0.0089
    --------------------------------------------
      LOOP:  cpu time   42.8667: real time   43.9419

 eigenvalue-minimisations  : 29672
 total energy-change (2. order) :-0.7906237E-01  (-0.7720436E-01)
 number of electron     270.0000000 magnetization      -9.0000000
 augmentation part      270.0000000 magnetization      -9.0000000

 Free energy of the ion-electron system (eV)
  ---------------------------------------------------
  alpha Z        PSCENC =       798.38614055
  Ewald energy   TEWEN  =    -12901.57693327
  -Hartree energ DENC   =     -2855.60785864
  -exchange      EXHF   =         0.00000000
  -V(xc)+E(xc)   XCENC  =      -996.08226074
  PAW double counting   =     12741.82587617   -11476.22345381
  entropy T*S    EENTRO =         0.02152779
  eigenvalues    EBANDS =      1587.70241514
  atomic energy  EATOM  =     12697.67401269
  ---------------------------------------------------
  free energy    TOTEN  =      -403.88053412 eV

  energy without entropy =     -403.90206192  energy(sigma->0) =     -403.88771006


--------------------------------------------------------------------------------------------------------




--------------------------------------- Iteration      1(   8)  ---------------------------------------


    TRIAL :  cpu time   41.7529: real time   42.8266
    CORREC:  cpu time    0.0083: real time    0.0085
    CHARGE:  cpu time    1.5082: real time    1.5286
    --------------------------------------------
      LOOP:  cpu time   43.2706: real time   44.3676

 eigenvalue-minimisations  : 28456
 total energy-change (2. order) :-0.1023458E-01  (-0.1005750E-01)
 number of electron     269.9999995 magnetization      -5.9355476
 augmentation part       64.2292982 magnetization      -3.4711529

 Free energy of the ion-electron system (eV)
  ---------------------------------------------------
  alpha Z        PSCENC =       798.38614055
  Ewald energy   TEWEN  =    -12901.57693327
  -Hartree energ DENC   =     -2855.60785864
  -exchange      EXHF   =         0.00000000
  -V(xc)+E(xc)   XCENC  =      -996.08226074
  PAW double counting   =     12741.82587617   -11476.22345381
  entropy T*S    EENTRO =         0.02223807
  eigenvalues    EBANDS =      1587.69147029
  atomic energy  EATOM  =     12697.67401269
  ---------------------------------------------------
  free energy    TOTEN  =      -403.89076870 eV

  energy without entropy =     -403.91300677  energy(sigma->0) =     -403.89818139


--------------------------------------------------------------------------------------------------------




--------------------------------------- Iteration      1(   9)  ---------------------------------------


    POTLOK:  cpu time    0.3970: real time    0.3970
    SETDIJ:  cpu time    0.4883: real time    0.4883
    TRIAL :  cpu time   14.1111: real time   14.2411
    CORREC:  cpu time    4.7194: real time    4.7671
    CHARGE:  cpu time    1.5071: real time    1.5072
    --------------------------------------------
      LOOP:  cpu time   21.2273: real time   21.4073

 eigenvalue-minimisations  :     0
 total energy-change (2. order) : 0.2980718E+03  (-0.2198145E+03)
 number of electron     269.9999993 magnetization      -6.5762460
 augmentation part       82.9947016 magnetization      -4.4201522

 Free energy of the ion-electron system (eV)
  ---------------------------------------------------
  alpha Z        PSCENC =       798.38614055
  Ewald energy   TEWEN  =    -12901.57693327
  -Hartree energ DENC   =     -1272.71546833
  -exchange      EXHF   =         0.00000000
  -V(xc)+E(xc)   XCENC  =     -1041.74309987
  PAW double counting   =     19171.78070508   -17752.34875902
  entropy T*S    EENTRO =         0.00496269
  eigenvalues    EBANDS =       194.70221010
  atomic energy  EATOM  =     12697.67401269
  ---------------------------------------------------
  free energy    TOTEN  =      -105.81895400 eV

  energy without entropy =     -105.82391669  energy(sigma->0) =     -105.82060823


--------------------------------------------------------------------------------------------------------




--------------------------------------- Iteration      1(  10)  ---------------------------------------


    POTLOK:  cpu time    0.3903: real time    0.4215
    SETDIJ:  cpu time    0.4493: real time    0.4493
    TRIAL :  cpu time   14.0602: real time   14.7893
    CORREC:  cpu time    4.6993: real time    4.7241
    CHARGE:  cpu time    1.5007: real time    1.5007
    --------------------------------------------
      LOOP:  cpu time   21.1040: real time   21.8896

 eigenvalue-minimisations  :     0
 total energy-change (2. order) :-0.2136855E+03  (-0.1150145E+02)
 number of electron     269.9999993 magnetization      -6.7712071
 augmentation part       86.8411095 magnetization      -4.5574769

 Free energy of the ion-electron system (eV)
  ---------------------------------------------------
  alpha Z        PSCENC =       798.38614055
  Ewald energy   TEWEN  =    -12901.57693327
  -Hartree energ DENC   =     -2131.82194000
  -exchange      EXHF   =         0.00000000
  -V(xc)+E(xc)   XCENC  =     -1011.76515948
  PAW double counting   =     20736.77288613   -19503.45548679
  entropy T*S    EENTRO =         0.00335035
  eigenvalues    EBANDS =       996.27709011
  atomic energy  EATOM  =     12697.67401269
  ---------------------------------------------------
  free energy    TOTEN  =      -319.50442736 eV

  energy without entropy =     -319.50777772  energy(sigma->0) =     -319.50554415


--------------------------------------------------------------------------------------------------------




--------------------------------------- Iteration      1(  11)  ---------------------------------------


    POTLOK:  cpu time    0.3926: real time    0.3926
    SETDIJ:  cpu time    1.2317: real time    1.2317
    TRIAL :  cpu time   14.0408: real time   14.2006
    CORREC:  cpu time    4.7130: real time    4.8283
    CHARGE:  cpu time    1.4906: real time    1.5036
    --------------------------------------------
      LOOP:  cpu time   21.8863: real time   22.1754

 eigenvalue-minimisations  :     0
 total energy-change (2. order) :-0.1083418E+02  (-0.1108628E+02)
 number of electron     269.9999993 magnetization      -6.9946911
 augmentation part       89.1596481 magnetization      -4.8387783

 Free energy of the ion-electron system (eV)
  ---------------------------------------------------
  alpha Z        PSCENC =       798.38614055
  Ewald energy   TEWEN  =    -12901.57693327
  -Hartree energ DENC   =     -2365.98413004
  -exchange      EXHF   =         0.00000000
  -V(xc)+E(xc)   XCENC  =     -1003.15808387
  PAW double counting   =     21613.43429364   -20417.25981471
  entropy T*S    EENTRO =         0.00879230
  eigenvalues    EBANDS =      1248.14255693
  atomic energy  EATOM  =     12697.67401269
  ---------------------------------------------------
  free energy    TOTEN  =      -330.33860773 eV

  energy without entropy =     -330.34740002  energy(sigma->0) =     -330.34153849


--------------------------------------------------------------------------------------------------------




--------------------------------------- Iteration      1(  12)  ---------------------------------------


    POTLOK:  cpu time    0.3921: real time    0.3921
    SETDIJ:  cpu time    0.4753: real time    0.4753
    TRIAL :  cpu time   14.2147: real time   14.2634
    CORREC:  cpu time    4.7614: real time    4.7804
    CHARGE:  cpu time    1.5079: real time    1.5079
    --------------------------------------------
      LOOP:  cpu time   21.3799: real time   21.4481

 eigenvalue-minimisations  :     0
 total energy-change (2. order) :-0.1112164E+02  (-0.1123840E+02)
 number of electron     269.9999993 magnetization      -7.1405742
 augmentation part       86.7416982 magnetization      -4.9556008

 Free energy of the ion-electron system (eV)
  ---------------------------------------------------
  alpha Z        PSCENC =       798.38614055
  Ewald energy   TEWEN  =    -12901.57693327
  -Hartree energ DENC   =     -2562.58717572
  -exchange      EXHF   =         0.00000000
  -V(xc)+E(xc)   XCENC  =      -996.51183669
  PAW double counting   =     21840.56827875   -20653.63986622
  entropy T*S    EENTRO =        -0.01046390
  eigenvalues    EBANDS =      1436.21833769
  atomic energy  EATOM  =     12697.67401269
  ---------------------------------------------------
  free energy    TOTEN  =      -341.46024993 eV

  energy without entropy =     -341.44978602  energy(sigma->0) =     -341.45676196


--------------------------------------------------------------------------------------------------------




--------------------------------------- Iteration      1(  13)  ---------------------------------------


    POTLOK:  cpu time    0.3966: real time    0.4055
    SETDIJ:  cpu time    0.4578: real time    0.4578
    TRIAL :  cpu time   14.0530: real time   14.8268
    CORREC:  cpu time    5.6156: real time    5.6320
    CHARGE:  cpu time    1.5047: real time    1.5753
    --------------------------------------------
      LOOP:  cpu time   22.0314: real time   22.9025

 eigenvalue-minimisations  :     0
 total energy-change (2. order) :-0.1112474E+02  (-0.8101831E+00)
 number of electron     269.9999993 magnetization      -7.3257920
 augmentation part       86.2767371 magnetization      -4.9688460

 Free energy of the ion-electron system (eV)
  ---------------------------------------------------
  alpha Z        PSCENC =       798.38614055
  Ewald energy   TEWEN  =    -12901.57693327
  -Hartree energ DENC   =     -2517.73546524
  -exchange      EXHF   =         0.00000000
  -V(xc)+E(xc)   XCENC  =      -999.01130330
  PAW double counting   =     21263.35728138   -20024.67663449
  entropy T*S    EENTRO =        -0.01452564
  eigenvalues    EBANDS =      1331.00837314
  atomic energy  EATOM  =     12697.67401269
  ---------------------------------------------------
  free energy    TOTEN  =      -352.58499244 eV

  energy without entropy =     -352.57046681  energy(sigma->0) =     -352.58015056


--------------------------------------------------------------------------------------------------------




--------------------------------------- Iteration      1(  14)  ---------------------------------------


    POTLOK:  cpu time    0.3997: real time    0.4104
    SETDIJ:  cpu time    0.4773: real time    0.4773
    TRIAL :  cpu time   14.0695: real time   14.3120
    CORREC:  cpu time    4.6487: real time    4.6569
    CHARGE:  cpu time    1.5022: real time    1.5525
    --------------------------------------------
      LOOP:  cpu time   21.1101: real time   21.4229

 eigenvalue-minimisations  :     0
 total energy-change (2. order) :-0.8060924E+00  (-0.1289756E+01)
 number of electron     269.9999993 magnetization      -7.4452667
 augmentation part       85.9758886 magnetization      -4.9687342

 Free energy of the ion-electron system (eV)
  ---------------------------------------------------
  alpha Z        PSCENC =       798.38614055
  Ewald energy   TEWEN  =    -12901.57693327
  -Hartree energ DENC   =     -2492.71452949
  -exchange      EXHF   =         0.00000000
  -V(xc)+E(xc)   XCENC  =      -999.96871337
  PAW double counting   =     20969.19844250   -19722.65008147
  entropy T*S    EENTRO =        -0.01402133
  eigenvalues    EBANDS =      1298.27510261
  atomic energy  EATOM  =     12697.67401269
  ---------------------------------------------------
  free energy    TOTEN  =      -353.39108488 eV

  energy without entropy =     -353.37706355  energy(sigma->0) =     -353.38641110


--------------------------------------------------------------------------------------------------------




--------------------------------------- Iteration      1(  15)  ---------------------------------------


    POTLOK:  cpu time    0.3918: real time    0.3918
    SETDIJ:  cpu time    0.4811: real time    0.4811
    TRIAL :  cpu time   14.1882: real time   14.2475
    CORREC:  cpu time    4.6712: real time    4.7052
    CHARGE:  cpu time    1.4963: real time    1.4963
    --------------------------------------------
      LOOP:  cpu time   21.2334: real time   21.3283

 eigenvalue-minimisations  :     0
 total energy-change (2. order) :-0.1287976E+01  (-0.6441304E+00)
 number of electron     269.9999992 magnetization      -7.3126777
 augmentation part       86.5794645 magnetization      -4.9788790

 Free energy of the ion-electron system (eV)
  ---------------------------------------------------
  alpha Z        PSCENC =       798.38614055
  Ewald energy   TEWEN  =    -12901.57693327
  -Hartree energ DENC   =     -2462.40672344
  -exchange      EXHF   =         0.00000000
  -V(xc)+E(xc)   XCENC  =     -1001.13996529
  PAW double counting   =     20112.55194032   -18856.80433308
  entropy T*S    EENTRO =        -0.01594819
  eigenvalues    EBANDS =      1258.65082180
  atomic energy  EATOM  =     12697.67401269
  ---------------------------------------------------
  free energy    TOTEN  =      -354.67906104 eV

  energy without entropy =     -354.66311285  energy(sigma->0) =     -354.67374498


--------------------------------------------------------------------------------------------------------




--------------------------------------- Iteration      1(  16)  ---------------------------------------


    POTLOK:  cpu time    0.3918: real time    0.3918
    SETDIJ:  cpu time    0.5151: real time    0.5151
    TRIAL :  cpu time   14.0520: real time   14.8047
    CORREC:  cpu time    4.6844: real time    4.7721
    CHARGE:  cpu time    1.4975: real time    1.4975
    --------------------------------------------
      LOOP:  cpu time   21.1463: real time   21.9879

 eigenvalue-minimisations  :     0
 total energy-change (2. order) :-0.6411181E+00  (-0.2723729E+00)
 number of electron     269.9999992 magnetization      -7.4534208
 augmentation part       87.1815160 magnetization      -5.0517357

 Free energy of the ion-electron system (eV)
  ---------------------------------------------------
  alpha Z        PSCENC =       798.38614055
  Ewald energy   TEWEN  =    -12901.57693327
  -Hartree energ DENC   =     -2483.80572876
  -exchange      EXHF   =         0.00000000
  -V(xc)+E(xc)   XCENC  =     -1000.33396418
  PAW double counting   =     19739.24052756   -18487.45392220
  entropy T*S    EENTRO =        -0.01606982
  eigenvalues    EBANDS =      1282.56563669
  atomic energy  EATOM  =     12697.67401269
  ---------------------------------------------------
  free energy    TOTEN  =      -355.32017911 eV

  energy without entropy =     -355.30410928  energy(sigma->0) =     -355.31482250


--------------------------------------------------------------------------------------------------------




--------------------------------------- Iteration      1(  17)  ---------------------------------------


    POTLOK:  cpu time    0.3921: real time    0.3921
    SETDIJ:  cpu time    0.4774: real time    0.4775
    TRIAL :  cpu time   14.1202: real time   14.3044
    CORREC:  cpu time    4.6828: real time    4.7274
    CHARGE:  cpu time    1.5044: real time    1.5044
    --------------------------------------------
      LOOP:  cpu time   21.1927: real time   21.4228

 eigenvalue-minimisations  :     0
 total energy-change (2. order) :-0.2729941E+00  (-0.2398821E+00)
 number of electron     269.9999992 magnetization      -7.5033726
 augmentation part       87.3088659 magnetization      -5.1118089

 Free energy of the ion-electron system (eV)
  ---------------------------------------------------
  alpha Z        PSCENC =       798.38614055
  Ewald energy   TEWEN  =    -12901.57693327
  -Hartree energ DENC   =     -2510.73899142
  -exchange      EXHF   =         0.00000000
  -V(xc)+E(xc)   XCENC  =      -999.22589148
  PAW double counting   =     19620.59190459   -18374.70391490
  entropy T*S    EENTRO =        -0.01602090
  eigenvalues    EBANDS =      1314.01656987
  atomic energy  EATOM  =     12697.67401269
  ---------------------------------------------------
  free energy    TOTEN  =      -355.59317320 eV

  energy without entropy =     -355.57715230  energy(sigma->0) =     -355.58783290


--------------------------------------------------------------------------------------------------------




--------------------------------------- Iteration      1(  18)  ---------------------------------------


    POTLOK:  cpu time    0.3915: real time    0.3915
    SETDIJ:  cpu time    0.4686: real time    0.5002
    TRIAL :  cpu time   14.1388: real time   14.2479
    CORREC:  cpu time    4.9218: real time    5.4662
    CHARGE:  cpu time    1.5064: real time    1.5064
    --------------------------------------------
      LOOP:  cpu time   21.4326: real time   22.1188

 eigenvalue-minimisations  :     0
 total energy-change (2. order) :-0.2398878E+00  (-0.1814725E+00)
 number of electron     269.9999992 magnetization      -7.5061208
 augmentation part       87.0968388 magnetization      -5.1589035

 Free energy of the ion-electron system (eV)
  ---------------------------------------------------
  alpha Z        PSCENC =       798.38614055
  Ewald energy   TEWEN  =    -12901.57693327
  -Hartree energ DENC   =     -2514.45914460
  -exchange      EXHF   =         0.00000000
  -V(xc)+E(xc)   XCENC  =      -998.82924611
  PAW double counting   =     19531.13050323   -18286.41955378
  entropy T*S    EENTRO =        -0.01709930
  eigenvalues    EBANDS =      1318.27718117
  atomic energy  EATOM  =     12697.67401269
  ---------------------------------------------------
  free energy    TOTEN  =      -355.83306102 eV

  energy without entropy =     -355.81596172  energy(sigma->0) =     -355.82736125


--------------------------------------------------------------------------------------------------------




--------------------------------------- Iteration      1(  19)  ---------------------------------------


    POTLOK:  cpu time    0.3895: real time    0.4086
    SETDIJ:  cpu time    0.4530: real time    0.4530
    TRIAL :  cpu time   14.7962: real time   14.9026
    CORREC:  cpu time    4.6749: real time    4.7255
    CHARGE:  cpu time    1.4869: real time    1.5397
    --------------------------------------------
      LOOP:  cpu time   21.8025: real time   22.0328

 eigenvalue-minimisations  :     0
 total energy-change (2. order) :-0.1801090E+00  (-0.6111700E-01)
 number of electron     269.9999992 magnetization      -7.5490139
 augmentation part       86.9132593 magnetization      -5.1909564

 Free energy of the ion-electron system (eV)
  ---------------------------------------------------
  alpha Z        PSCENC =       798.38614055
  Ewald energy   TEWEN  =    -12901.57693327
  -Hartree energ DENC   =     -2501.84988661
  -exchange      EXHF   =         0.00000000
  -V(xc)+E(xc)   XCENC  =      -999.04054402
  PAW double counting   =     19468.71439578   -18221.70407185
  entropy T*S    EENTRO =        -0.01721518
  eigenvalues    EBANDS =      1303.40081605
  atomic energy  EATOM  =     12697.67401269
  ---------------------------------------------------
  free energy    TOTEN  =      -356.01316997 eV

  energy without entropy =     -355.99595479  energy(sigma->0) =     -356.00743158


--------------------------------------------------------------------------------------------------------




--------------------------------------- Iteration      1(  20)  ---------------------------------------


    POTLOK:  cpu time    0.3929: real time    0.3931
    SETDIJ:  cpu time    0.4734: real time    0.4735
    TRIAL :  cpu time   14.1237: real time   14.2488
    CORREC:  cpu time    4.7406: real time    4.7683
    CHARGE:  cpu time    1.4769: real time    1.4918
    --------------------------------------------
      LOOP:  cpu time   21.2321: real time   21.4017

 eigenvalue-minimisations  :     0
 total energy-change (2. order) :-0.6101916E-01  (-0.1139679E+00)
 number of electron     269.9999992 magnetization      -7.5864486
 augmentation part       86.7482851 magnetization      -5.2382891

 Free energy of the ion-electron system (eV)
  ---------------------------------------------------
  alpha Z        PSCENC =       798.38614055
  Ewald energy   TEWEN  =    -12901.57693327
  -Hartree energ DENC   =     -2493.16312524
  -exchange      EXHF   =         0.00000000
  -V(xc)+E(xc)   XCENC  =      -999.26535609
  PAW double counting   =     19450.08036094   -18201.22224468
  entropy T*S    EENTRO =        -0.01803784
  eigenvalues    EBANDS =      1293.03017116
  atomic energy  EATOM  =     12697.67401269
  ---------------------------------------------------
  free energy    TOTEN  =      -356.07418914 eV

  energy without entropy =     -356.05615130  energy(sigma->0) =     -356.06817652


--------------------------------------------------------------------------------------------------------




--------------------------------------- Iteration      1(  21)  ---------------------------------------


    POTLOK:  cpu time    0.3925: real time    0.3931
    SETDIJ:  cpu time    0.4781: real time    0.4782
    TRIAL :  cpu time   14.6863: real time   14.8208
    CORREC:  cpu time    4.6820: real time    4.7107
    CHARGE:  cpu time    1.5018: real time    1.5019
    --------------------------------------------
      LOOP:  cpu time   21.7618: real time   21.9447

 eigenvalue-minimisations  :     0
 total energy-change (2. order) :-0.1139342E+00  (-0.4706993E-01)
 number of electron     269.9999992 magnetization      -7.6520461
 augmentation part       86.8510397 magnetization      -5.2802757

 Free energy of the ion-electron system (eV)
  ---------------------------------------------------
  alpha Z        PSCENC =       798.38614055
  Ewald energy   TEWEN  =    -12901.57693327
  -Hartree energ DENC   =     -2489.32249478
  -exchange      EXHF   =         0.00000000
  -V(xc)+E(xc)   XCENC  =      -999.25601410
  PAW double counting   =     19452.55913621   -18202.59507721
  entropy T*S    EENTRO =        -0.01858215
  eigenvalues    EBANDS =      1287.96114440
  atomic energy  EATOM  =     12697.67401269
  ---------------------------------------------------
  free energy    TOTEN  =      -356.18812335 eV

  energy without entropy =     -356.16954120  energy(sigma->0) =     -356.18192930


--------------------------------------------------------------------------------------------------------




--------------------------------------- Iteration      1(  22)  ---------------------------------------


    POTLOK:  cpu time    0.3929: real time    0.3929
    SETDIJ:  cpu time    1.2733: real time    1.2732
    TRIAL :  cpu time   14.0571: real time   14.2734
    CORREC:  cpu time    4.6961: real time    4.7613
    CHARGE:  cpu time    1.4865: real time    1.4891
    --------------------------------------------
      LOOP:  cpu time   22.2355: real time   22.5210

 eigenvalue-minimisations  :     0
 total energy-change (2. order) :-0.4713246E-01  (-0.2386791E-01)
 number of electron     269.9999992 magnetization      -7.6747649
 augmentation part       86.9810997 magnetization      -5.3020278

 Free energy of the ion-electron system (eV)
  ---------------------------------------------------
  alpha Z        PSCENC =       798.38614055
  Ewald energy   TEWEN  =    -12901.57693327
  -Hartree energ DENC   =     -2496.85778357
  -exchange      EXHF   =         0.00000000
  -V(xc)+E(xc)   XCENC  =      -998.91919550
  PAW double counting   =     19472.88886913   -18224.40445806
  entropy T*S    EENTRO =        -0.01874676
  eigenvalues    EBANDS =      1296.59267437
  atomic energy  EATOM  =     12697.67401269
  ---------------------------------------------------
  free energy    TOTEN  =      -356.23525581 eV

  energy without entropy =     -356.21650905  energy(sigma->0) =     -356.22900689


--------------------------------------------------------------------------------------------------------




--------------------------------------- Iteration      1(  23)  ---------------------------------------


    POTLOK:  cpu time    0.3927: real time    0.3927
    SETDIJ:  cpu time    0.4783: real time    0.4783
    TRIAL :  cpu time   14.1705: real time   14.2357
    CORREC:  cpu time    4.7566: real time    4.7722
    CHARGE:  cpu time    1.4956: real time    1.5065
    --------------------------------------------
      LOOP:  cpu time   21.3019: real time   21.3941

 eigenvalue-minimisations  :     0
 total energy-change (2. order) :-0.2389982E-01  (-0.1970853E-01)
 number of electron     269.9999992 magnetization      -7.6842845
 augmentation part       87.0023856 magnetization      -5.3167833

 Free energy of the ion-electron system (eV)
  ---------------------------------------------------
  alpha Z        PSCENC =       798.38614055
  Ewald energy   TEWEN  =    -12901.57693327
  -Hartree energ DENC   =     -2504.59008544
  -exchange      EXHF   =         0.00000000
  -V(xc)+E(xc)   XCENC  =      -998.60632002
  PAW double counting   =     19488.23974045   -18241.31058525
  entropy T*S    EENTRO =        -0.01878393
  eigenvalues    EBANDS =      1305.54362142
  atomic energy  EATOM  =     12697.67401269
  ---------------------------------------------------
  free energy    TOTEN  =      -356.25915562 eV

  energy without entropy =     -356.24037170  energy(sigma->0) =     -356.25289432


--------------------------------------------------------------------------------------------------------




--------------------------------------- Iteration      1(  24)  ---------------------------------------


    POTLOK:  cpu time    0.3917: real time    0.3917
    SETDIJ:  cpu time    0.4615: real time    0.4615
    TRIAL :  cpu time   14.0542: real time   14.8264
[...]
   45       -0.017  -0.015  -2.390  -2.422
   46        0.015   0.017   2.288   2.319
   47       -0.018  -0.020  -2.380  -2.418
   48       -0.017  -0.015  -2.388  -2.419
   49        0.015   0.017   2.288   2.319
   50       -0.018  -0.020  -2.380  -2.418
   51       -0.017  -0.015  -2.388  -2.419
   52        0.015   0.017   2.288   2.319
   53       -0.018  -0.020  -2.380  -2.418
   54       -0.017  -0.015  -2.388  -2.419
--------------------------------------------------
tot          0.009   0.026  -7.862  -7.827
 
    FORLOC:  cpu time    0.0594: real time    0.0594
    FORNL :  cpu time   22.0323: real time   22.2521
    STRESS:  cpu time   32.1490: real time   32.9106
    FORCOR:  cpu time    0.4398: real time    0.4398
    OFIELD:  cpu time    0.0023: real time    0.0023

  FORCE on cell =-STRESS in cart. coord.  units (eV):
  Direction    XX          YY          ZZ          XY          YZ          ZX
  --------------------------------------------------------------------------------------
  Alpha Z   798.38614   798.38614   798.38614
  Ewald   -4053.61603 -4053.61603 -4794.40593    -0.00000    -0.00000    -0.00000
  Hartree  1083.45479  1085.96052   332.27705    -0.00000    -0.00000    -0.00000
  E(xc)   -1141.23028 -1141.83323 -1139.52813    -0.00000    -0.00000     0.00000
  Local     371.24360   364.94433  1906.51654     0.00000    -0.00000     0.00000
  n-local  -170.19203  -171.97210  -176.12769     0.43271    -0.26045    -0.29136
  augment   783.56580   786.01857   766.96999     0.00000     0.00001     0.00001
  Kinetic  2333.82629  2338.36766  2308.27776    -2.47497    -1.49677    -1.03002
  Fock        0.00000     0.00000     0.00000     0.00000     0.00000     0.00000
  -------------------------------------------------------------------------------------
  Total       5.43828     6.25587     2.36573     0.00000     0.00000     0.00000
  in kB      12.27348    14.11868     5.33915     0.00000     0.00000     0.00000
  external pressure =       10.58 kB  Pullay stress =        0.00 kB


 VOLUME and BASIS-vectors are now :
 -----------------------------------------------------------------------------
  energy-cutoff  :      404.80
  volume of cell :      709.91
      direct lattice vectors                 reciprocal lattice vectors
     8.250148166  0.000000000  0.000000000     0.121209944  0.000000000  0.000000000
     0.000000000  8.250148166  0.000000000     0.000000000  0.121209944  0.000000000
     0.000000000  0.000000000 10.429911392     0.000000000  0.000000000  0.095878092

  length of vectors
     8.250148166  8.250148166 10.429911392     0.121209944  0.121209944  0.095878092


 FORCES acting on ions:
    Electron-Ion                     Ewald-Force                    Non-Local-Force
 -----------------------------------------------------------------------------------------------
   -.474E-01 -.255E-10 0.743E-01   -.239E-08 -.239E-08 -.210E-08   0.135E+00 0.000E+00 -.708E-02
   0.104E-01 -.255E-10 0.170E-01   -.239E-08 -.239E-08 0.171E-08   0.233E-02 0.813E-19 -.123E-01
   0.816E-01 -.254E-10 -.563E-01   -.239E-08 -.239E-08 0.861E-08   -.571E-01 -.542E-19 -.481E-02
   -.474E-01 -.617E-09 0.743E-01   -.239E-08 -.802E-09 -.210E-08   0.135E+00 0.000E+00 -.708E-02
   0.104E-01 -.625E-09 0.170E-01   -.239E-08 -.802E-09 0.171E-08   0.233E-02 -.108E-18 -.123E-01
   0.816E-01 -.620E-09 -.563E-01   -.239E-08 -.802E-09 0.861E-08   -.571E-01 -.108E-18 -.481E-02
   -.474E-01 -.378E-08 0.743E-01   -.239E-08 0.631E-08 -.210E-08   0.135E+00 0.000E+00 -.708E-02
   0.104E-01 -.379E-08 0.170E-01   -.239E-08 0.631E-08 0.171E-08   0.233E-02 0.813E-19 -.123E-01
   0.816E-01 -.378E-08 -.563E-01   -.239E-08 0.631E-08 0.861E-08   -.571E-01 -.108E-18 -.481E-02
   0.474E-01 -.255E-10 0.743E-01   -.802E-09 -.239E-08 -.210E-08   -.135E+00 0.000E+00 -.708E-02
   -.104E-01 -.255E-10 0.170E-01   -.802E-09 -.239E-08 0.171E-08   -.233E-02 -.542E-19 -.123E-01
   -.816E-01 -.254E-10 -.563E-01   -.803E-09 -.239E-08 0.861E-08   0.571E-01 0.000E+00 -.481E-02
   0.474E-01 -.617E-09 0.743E-01   -.802E-09 -.802E-09 -.210E-08   -.135E+00 -.678E-20 -.708E-02
   -.104E-01 -.625E-09 0.170E-01   -.802E-09 -.802E-09 0.171E-08   -.233E-02 0.000E+00 -.123E-01
   -.816E-01 -.620E-09 -.563E-01   -.803E-09 -.802E-09 0.861E-08   0.571E-01 0.108E-18 -.481E-02
   0.474E-01 -.378E-08 0.743E-01   -.802E-09 0.631E-08 -.210E-08   -.135E+00 -.678E-20 -.708E-02
   -.104E-01 -.379E-08 0.170E-01   -.802E-09 0.631E-08 0.171E-08   -.233E-02 0.542E-19 -.123E-01
   -.816E-01 -.378E-08 -.563E-01   -.803E-09 0.631E-08 0.861E-08   0.571E-01 0.108E-18 -.481E-02
   -.328E-08 -.255E-10 0.446E-01   0.631E-08 -.239E-08 -.210E-08   -.407E-19 -.108E-18 -.421E-01
   -.329E-08 -.255E-10 -.146E+00   0.631E-08 -.239E-08 0.171E-08   -.108E-18 0.108E-18 0.742E-01
   -.327E-08 -.254E-10 -.204E-01   0.631E-08 -.239E-08 0.861E-08   -.254E-20 0.000E+00 0.726E-01
   -.328E-08 -.634E-09 0.446E-01   0.631E-08 -.802E-09 -.210E-08   0.678E-20 -.108E-18 -.421E-01
   -.329E-08 -.629E-09 -.146E+00   0.631E-08 -.802E-09 0.171E-08   -.108E-18 0.000E+00 0.742E-01
   -.327E-08 -.624E-09 -.204E-01   0.631E-08 -.802E-09 0.861E-08   0.847E-21 0.271E-19 0.726E-01
   -.328E-08 -.381E-08 0.446E-01   0.631E-08 0.631E-08 -.210E-08   0.203E-19 -.108E-18 -.421E-01
   -.329E-08 -.380E-08 -.146E+00   0.631E-08 0.631E-08 0.171E-08   -.108E-18 -.108E-18 0.742E-01
   -.327E-08 -.379E-08 -.204E-01   0.631E-08 0.631E-08 0.861E-08   0.169E-20 -.813E-19 0.726E-01
   0.484E-08 0.521E-08 -.118E+00   -.169E-07 -.169E-07 -.180E-07   -.542E-19 -.217E-18 0.223E+00
   0.484E-08 0.524E-08 -.117E+00   -.169E-07 -.169E-07 -.170E-08   -.217E-17 0.867E-18 0.112E+00
   0.476E-08 0.525E-08 0.189E+00   -.169E-07 -.169E-07 0.115E-07   -.347E-17 0.000E+00 -.209E+00
   0.484E-08 0.826E-11 -.118E+00   -.169E-07 0.802E-09 -.180E-07   -.108E-18 0.217E-18 0.223E+00
   0.484E-08 0.825E-11 -.117E+00   -.169E-07 0.802E-09 -.170E-08   -.434E-18 0.000E+00 0.112E+00
   0.476E-08 0.825E-11 0.189E+00   -.169E-07 0.802E-09 0.115E-07   0.173E-17 -.108E-18 -.209E+00
   0.484E-08 -.525E-08 -.118E+00   -.169E-07 0.130E-07 -.180E-07   -.542E-19 -.434E-18 0.223E+00
   0.484E-08 -.528E-08 -.117E+00   -.169E-07 0.130E-07 -.170E-08   0.000E+00 -.434E-18 0.112E+00
   0.476E-08 -.529E-08 0.189E+00   -.169E-07 0.130E-07 0.115E-07   0.173E-17 -.108E-18 -.209E+00
   0.198E-01 0.524E-08 0.720E-01   0.802E-09 -.169E-07 -.180E-07   -.908E-02 0.000E+00 -.624E-01
   -.778E-01 0.522E-08 0.470E-01   0.802E-09 -.169E-07 -.170E-08   0.937E-01 0.542E-19 -.143E+00
   0.251E+00 0.525E-08 -.810E-01   0.802E-09 -.169E-07 0.115E-07   -.402E-01 0.434E-18 0.128E+00
   0.198E-01 0.795E-11 0.720E-01   0.802E-09 0.802E-09 -.180E-07   -.908E-02 0.759E-18 -.624E-01
   -.778E-01 0.942E-11 0.470E-01   0.802E-09 0.802E-09 -.170E-08   0.937E-01 -.434E-18 -.143E+00
   0.251E+00 0.980E-11 -.810E-01   0.802E-09 0.802E-09 0.115E-07   -.402E-01 0.000E+00 0.128E+00
   0.198E-01 -.528E-08 0.720E-01   0.802E-09 0.130E-07 -.180E-07   -.908E-02 -.759E-18 -.624E-01
   -.778E-01 -.526E-08 0.470E-01   0.802E-09 0.130E-07 -.170E-08   0.937E-01 0.542E-19 -.143E+00
   0.251E+00 -.529E-08 -.810E-01   0.802E-09 0.130E-07 0.115E-07   -.402E-01 0.434E-18 0.128E+00
   -.198E-01 0.523E-08 0.720E-01   0.130E-07 -.169E-07 -.180E-07   0.908E-02 0.434E-18 -.624E-01
   0.778E-01 0.521E-08 0.470E-01   0.130E-07 -.169E-07 -.170E-08   -.937E-01 0.108E-18 -.143E+00
   -.251E+00 0.524E-08 -.810E-01   0.130E-07 -.169E-07 0.115E-07   0.402E-01 0.434E-18 0.128E+00
   -.198E-01 0.938E-11 0.720E-01   0.130E-07 0.802E-09 -.180E-07   0.908E-02 -.434E-18 -.624E-01
   0.778E-01 0.614E-11 0.470E-01   0.130E-07 0.802E-09 -.170E-08   -.937E-01 -.217E-18 -.143E+00
   -.251E+00 0.777E-11 -.810E-01   0.130E-07 0.802E-09 0.115E-07   0.402E-01 0.000E+00 0.128E+00
   -.198E-01 -.528E-08 0.720E-01   0.130E-07 0.130E-07 -.180E-07   0.908E-02 0.000E+00 -.624E-01
   0.778E-01 -.526E-08 0.470E-01   0.130E-07 0.130E-07 -.170E-08   -.937E-01 -.108E-18 -.143E+00
   -.251E+00 -.529E-08 -.810E-01   0.130E-07 0.130E-07 0.115E-07   0.402E-01 0.434E-18 0.128E+00
 -----------------------------------------------------------------------------------------------
   -.406E-07 -.449E-07 -.814E-01   -.614E-13 -.142E-13 0.128E-13   0.278E-16 0.583E-18 0.815E-01
 
 
 POSITION                                       TOTAL-FORCE (eV/Angst)
 -----------------------------------------------------------------------------------
      0.00000      0.00000      0.00000         0.076605      0.000000      0.066675
      0.00000      0.00000      3.47664         0.012682     -0.000000      0.006068
      0.00000      0.00000      6.95327         0.029843      0.000000     -0.059519
      0.00000      2.75005      0.00000         0.076605      0.000000      0.066675
      0.00000      2.75005      3.47664         0.012682     -0.000000      0.006068
      0.00000      2.75005      6.95327         0.029843      0.000000     -0.059519
      0.00000      5.50010      0.00000         0.076605      0.000000      0.066675
      0.00000      5.50010      3.47664         0.012682     -0.000000      0.006068
      0.00000      5.50010      6.95327         0.029843      0.000000     -0.059519
      2.75005      0.00000      0.00000        -0.076605      0.000000      0.066675
      2.75005      0.00000      3.47664        -0.012682      0.000000      0.006068
      2.75005      0.00000      6.95327        -0.029843      0.000000     -0.059519
      2.75005      2.75005      0.00000        -0.076605      0.000000      0.066675
      2.75005      2.75005      3.47664        -0.012682      0.000000      0.006068
      2.75005      2.75005      6.95327        -0.029843      0.000000     -0.059519
      2.75005      5.50010      0.00000        -0.076605     -0.000000      0.066675
      2.75005      5.50010      3.47664        -0.012682      0.000000      0.006068
      2.75005      5.50010      6.95327        -0.029843     -0.000000     -0.059519
      5.50010      0.00000      0.00000        -0.000000      0.000000      0.005431
      5.50010      0.00000      3.47664        -0.000000     -0.000000     -0.078654
      5.50010      0.00000      6.95327        -0.000000      0.000000      0.046608
      5.50010      2.75005      0.00000        -0.000000      0.000000      0.005431
      5.50010      2.75005      3.47664        -0.000000     -0.000000     -0.078654
      5.50010      2.75005      6.95327        -0.000000      0.000000      0.046608
      5.50010      5.50010      0.00000        -0.000000      0.000000      0.005431
      5.50010      5.50010      3.47664        -0.000000      0.000000     -0.078654
      5.50010      5.50010      6.95327        -0.000000      0.000000      0.046608
      1.37502      1.37502      1.73832        -0.000000      0.000000      0.098394
      1.37502      1.37502      5.21496        -0.000000      0.000000     -0.006616
      1.37502      1.37502      8.69159        -0.000000      0.000000     -0.014168
      1.37502      4.12507      1.73832        -0.000000      0.000000      0.098394
      1.37502      4.12507      5.21496        -0.000000      0.000000     -0.006616
      1.37502      4.12507      8.69159        -0.000000      0.000000     -0.014168
      1.37502      6.87512      1.73832        -0.000000     -0.000000      0.098394
      1.37502      6.87512      5.21496        -0.000000      0.000000     -0.006616
      1.37502      6.87512      8.69159        -0.000000     -0.000000     -0.014168
      4.12507      1.37502      1.73832         0.010019      0.000000      0.008865
      4.12507      1.37502      5.21496         0.018040      0.000000     -0.086813
      4.12507      1.37502      8.69159         0.214554      0.000000      0.039227
      4.12507      4.12507      1.73832         0.010019      0.000000      0.008865
      4.12507      4.12507      5.21496         0.018040      0.000000     -0.086813
      4.12507      4.12507      8.69159         0.214554      0.000000      0.039227
      4.12507      6.87512      1.73832         0.010019      0.000000      0.008865
      4.12507      6.87512      5.21496         0.018040      0.000000     -0.086813
      4.12507      6.87512      8.69159         0.214554     -0.000000      0.039227
      6.87512      1.37502      1.73832        -0.010019      0.000000      0.008865
      6.87512      1.37502      5.21496        -0.018040     -0.000000     -0.086813
      6.87512      1.37502      8.69159        -0.214554      0.000000      0.039227
      6.87512      4.12507      1.73832        -0.010019      0.000000      0.008865
      6.87512      4.12507      5.21496        -0.018040      0.000000     -0.086813
      6.87512      4.12507      8.69159        -0.214554      0.000000      0.039227
      6.87512      6.87512      1.73832        -0.010019     -0.000000      0.008865
      6.87512      6.87512      5.21496        -0.018040      0.000000     -0.086813
      6.87512      6.87512      8.69159        -0.214554     -0.000000      0.039227
 -----------------------------------------------------------------------------------
    total drift:                               -0.000000     -0.000000      0.000071


--------------------------------------------------------------------------------------------------------



  FREE ENERGIE OF THE ION-ELECTRON SYSTEM (eV)
  ---------------------------------------------------
  free  energy   TOTEN  =      -356.38063700 eV

  energy  without entropy=     -356.36450423  energy(sigma->0) =     -356.37525941
 


--------------------------------------------------------------------------------------------------------


    POTLOK:  cpu time    1.7730: real time    1.8657


--------------------------------------------------------------------------------------------------------


     LOOP+:  cpu time 1653.2916: real time 1687.2922
    4ORBIT:  cpu time    0.0000: real time    0.0000
 


 total charge     
 
# of ion       s       p       d       tot
------------------------------------------
    1        0.405   0.429   0.000   0.834
    2        0.405   0.426   0.000   0.832
    3        0.405   0.429   0.000   0.834
    4        0.405   0.429   0.000   0.834
    5        0.405   0.426   0.000   0.832
    6        0.405   0.429   0.000   0.834
    7        0.405   0.429   0.000   0.834
    8        0.405   0.426   0.000   0.832
    9        0.405   0.429   0.000   0.834
   10        0.405   0.429   0.000   0.834
   11        0.405   0.427   0.000   0.832
   12        0.405   0.429   0.000   0.833
   13        0.405   0.429   0.000   0.834
   14        0.405   0.427   0.000   0.832
   15        0.405   0.429   0.000   0.833
   16        0.405   0.429   0.000   0.834
   17        0.405   0.427   0.000   0.832
   18        0.405   0.429   0.000   0.833
   19        0.405   0.426   0.000   0.831
   20        0.405   0.428   0.000   0.833
   21        0.404   0.427   0.000   0.831
   22        0.405   0.426   0.000   0.831
   23        0.405   0.428   0.000   0.833
   24        0.404   0.427   0.000   0.831
   25        0.405   0.426   0.000   0.831
   26        0.405   0.428   0.000   0.833
   27        0.404   0.427   0.000   0.831
   28        0.335   0.350   5.135   5.820
   29        0.333   0.351   5.137   5.820
   30        0.331   0.355   5.136   5.822
   31        0.335   0.350   5.135   5.820
   32        0.333   0.351   5.137   5.820
   33        0.331   0.355   5.136   5.822
   34        0.335   0.350   5.135   5.820
   35        0.333   0.351   5.137   5.820
   36        0.331   0.355   5.136   5.822
   37        0.334   0.351   5.146   5.830
   38        0.334   0.350   5.143   5.828
   39        0.333   0.353   5.131   5.817
   40        0.334   0.351   5.146   5.830
   41        0.334   0.350   5.143   5.828
   42        0.333   0.353   5.131   5.817
   43        0.334   0.351   5.146   5.830
   44        0.334   0.350   5.143   5.828
   45        0.333   0.353   5.131   5.817
   46        0.334   0.351   5.126   5.811
   47        0.334   0.351   5.128   5.813
   48        0.333   0.354   5.133   5.820
   49        0.334   0.351   5.126   5.811
   50        0.334   0.351   5.128   5.813
   51        0.333   0.354   5.133   5.820
   52        0.334   0.351   5.126   5.811
   53        0.334   0.351   5.128   5.813
   54        0.333   0.354   5.133   5.820
--------------------------------------------------
tot         19.936  21.049 138.647 179.632
 


 magnetization (x)
 
# of ion       s       p       d       tot
------------------------------------------
    1       -0.010  -0.019   0.000  -0.029
    2       -0.000  -0.001   0.000  -0.001
    3        0.011   0.019   0.000   0.031
    4       -0.010  -0.019   0.000  -0.029
    5       -0.000  -0.001   0.000  -0.001
    6        0.011   0.019   0.000   0.031
    7       -0.010  -0.019   0.000  -0.029
    8       -0.000  -0.001   0.000  -0.001
    9        0.011   0.019   0.000   0.031
   10       -0.010  -0.020   0.000  -0.030
   11        0.000  -0.001   0.000  -0.001
   12        0.011   0.020   0.000   0.032
   13       -0.010  -0.020   0.000  -0.030
   14        0.000  -0.001   0.000  -0.001
   15        0.011   0.020   0.000   0.032
   16       -0.010  -0.020   0.000  -0.030
   17        0.000  -0.001   0.000  -0.001
   18        0.011   0.020   0.000   0.032
   19       -0.001  -0.003   0.000  -0.004
   20        0.000   0.000   0.000   0.000
   21        0.021   0.036   0.000   0.057
   22       -0.001  -0.003   0.000  -0.004
   23        0.000   0.000   0.000   0.000
   24        0.021   0.036   0.000   0.057
   25       -0.001  -0.003   0.000  -0.004
   26        0.000   0.000   0.000   0.000
   27        0.021   0.036   0.000   0.057
   28        0.018   0.019   2.355   2.392
   29       -0.014  -0.018  -2.256  -2.288
   30        0.016   0.012   2.245   2.273
   31        0.018   0.019   2.355   2.392
   32       -0.014  -0.018  -2.256  -2.288
   33        0.016   0.012   2.245   2.273
   34        0.018   0.019   2.355   2.392
   35       -0.014  -0.018  -2.256  -2.288
   36        0.016   0.012   2.245   2.273
   37        0.014   0.017   2.264   2.295
   38       -0.017  -0.020  -2.358  -2.396
   39       -0.017  -0.015  -2.390  -2.422
   40        0.014   0.017   2.264   2.295
   41       -0.017  -0.020  -2.358  -2.396
   42       -0.017  -0.015  -2.390  -2.422
   43        0.014   0.017   2.264   2.295
   44       -0.017  -0.020  -2.358  -2.396
   45       -0.017  -0.015  -2.390  -2.422
   46        0.015   0.017   2.288   2.319
   47       -0.018  -0.020  -2.380  -2.418
   48       -0.017  -0.015  -2.388  -2.419
   49        0.015   0.017   2.288   2.319
   50       -0.018  -0.020  -2.380  -2.418
   51       -0.017  -0.015  -2.388  -2.419
   52        0.015   0.017   2.288   2.319
   53       -0.018  -0.020  -2.380  -2.418
   54       -0.017  -0.015  -2.388  -2.419
--------------------------------------------------
tot          0.009   0.026  -7.862  -7.827
 

 total amount of memory used by VASP MPI-rank0   833505. kBytes
=======================================================================

   base      :      30000. kBytes
   nonl-proj :      28494. kBytes
   fftplans  :      31580. kBytes
   grid      :      21385. kBytes
   one-center:        435. kBytes
   wavefun   :     721611. kBytes
 
  
  
 General timing and accounting informations for this job:
 ========================================================
  
                  Total CPU time used (sec):     1682.970
                            User time (sec):     1658.469
                          System time (sec):       24.501
                         Elapsed time (sec):     1719.711
  
                   Maximum memory used (kb):      997428.
                   Average memory used (kb):           0.
  
                          Minor page faults:       573412
                          Major page faults:           17
                 Voluntary context switches:         2753
