 vasp.5.4.4.18Apr17-6-g9f103f2a35 (build Dec 20 2018 12:05:58) complex          
  
 executed on             LinuxIFC date 2019.06.20  20:24:17
 running on   32 total cores
 distrk:  each k-point on    8 cores,    4 groups
 distr:  one band on NCORES_PER_BAND=   4 cores,    2 groups


--------------------------------------------------------------------------------------------------------


 INCAR:
 POTCAR:    PAW_PBE Al 04Jan2001                  
 POTCAR:    PAW_PBE Mn 06Sep2000                  

 ----------------------------------------------------------------------------- 
|                                                                             |
|           W    W    AA    RRRRR   N    N  II  N    N   GGGG   !!!           |
|           W    W   A  A   R    R  NN   N  II  NN   N  G    G  !!!           |
|           W    W  A    A  R    R  N N  N  II  N N  N  G       !!!           |
|           W WW W  AAAAAA  RRRRR   N  N N  II  N  N N  G  GGG   !            |
|           WW  WW  A    A  R   R   N   NN  II  N   NN  G    G                |
|           W    W  A    A  R    R  N    N  II  N    N   GGGG   !!!           |
|                                                                             |
|      You have enabled k-point parallelism (KPAR>1).                         |
|      This developmental code was originally  written by Paul Kent at ORNL,  |
|      and carefully double checked in Vienna.                                |
|      GW as well as linear response parallelism added by Martijn Marsman     |
|      and Georg Kresse.                                                      |
|      Carefully verify results versus KPAR=1.                                |
|      Report problems to Paul Kent and Vienna.                               |
|                                                                             |
 ----------------------------------------------------------------------------- 

 POTCAR:    PAW_PBE Al 04Jan2001                  
   VRHFIN =Al: s2p1                                                             
   LEXCH  = PE                                                                  
   EATOM  =    53.5387 eV,    3.9350 Ry                                         
                                                                                
   TITEL  = PAW_PBE Al 04Jan2001                                                
   LULTRA =        F    use ultrasoft PP ?                                      
   IUNSCR =        1    unscreen: 0-lin 1-nonlin 2-no                           
   RPACOR =    1.500    partial core radius                                     
   POMASS =   26.981; ZVAL   =    3.000    mass and valenz                      
   RCORE  =    1.900    outmost cutoff radius                                   
   RWIGS  =    2.650; RWIGS  =    1.402    wigner-seitz radius (au A)           
   ENMAX  =  240.300; ENMIN  =  180.225 eV                                      
   ICORE  =        2    local potential                                         
   LCOR   =        T    correct aug charges                                     
   LPAW   =        T    paw PP                                                  
   EAUG   =  291.052                                                            
   DEXC   =    0.000                                                            
   RMAX   =    1.939    core radius for proj-oper                               
   RAUG   =    1.300    factor for augmentation sphere                          
   RDEP   =    1.966    radius for radial grids                                 
   RDEPT  =    1.856    core radius for aug-charge                              
                                                                                
   Atomic configuration                                                         
    6 entries                                                                   
     n  l   j            E        occ.                                          
     1  0  0.50     -1511.1048   2.0000                                         
     2  0  0.50      -108.1629   2.0000                                         
     2  1  1.50       -69.6402   6.0000                                         
     3  0  0.50        -7.7528   2.0000                                         
     3  1  1.50        -2.7121   1.0000                                         
     3  2  2.50        -2.7212   0.0000                                         
   Description                                                                  
     l       E           TYP  RCUT    TYP  RCUT                                 
     0     -7.7528455     23  1.900                                             
     0     -3.3096929     23  1.900                                             
     1     -2.7120682     23  1.900                                             
     1     13.6058260     23  1.900                                             
     2     -2.7211652      7  1.900                                             
  local pseudopotential read in
  partial core-charges read in
  partial kinetic energy density read in
  atomic valenz-charges read in
  non local Contribution for L=           0  read in
    real space projection operators read in
  non local Contribution for L=           0  read in
    real space projection operators read in
  non local Contribution for L=           1  read in
    real space projection operators read in
  non local Contribution for L=           1  read in
    real space projection operators read in
    PAW grid and wavefunctions read in
 
   number of l-projection  operators is LMAX  =           4
   number of lm-projection operators is LMMAX =           8
 
 POTCAR:    PAW_PBE Mn 06Sep2000                  
   VRHFIN =Mn: d6 s1                                                            
   LEXCH  = PE                                                                  
   EATOM  =   416.7541 eV,   30.6306 Ry                                         
                                                                                
   TITEL  = PAW_PBE Mn 06Sep2000                                                
   LULTRA =        F    use ultrasoft PP ?                                      
   IUNSCR =        1    unscreen: 0-lin 1-nonlin 2-no                           
   RPACOR =    2.000    partial core radius                                     
   POMASS =   54.938; ZVAL   =    7.000    mass and valenz                      
   RCORE  =    2.300    outmost cutoff radius                                   
   RWIGS  =    2.500; RWIGS  =    1.323    wigner-seitz radius (au A)           
   ENMAX  =  269.864; ENMIN  =  202.398 eV                                      
   RCLOC  =    1.725    cutoff for local pot                                    
   LCOR   =        T    correct aug charges                                     
   LPAW   =        T    paw PP                                                  
   EAUG   =  500.711                                                            
   DEXC   =    0.000                                                            
   RMAX   =    2.343    core radius for proj-oper                               
   RAUG   =    1.300    factor for augmentation sphere                          
   RDEP   =    2.338    radius for radial grids                                 
   RDEPT  =    1.911    core radius for aug-charge                              
                                                                                
   Atomic configuration                                                         
    9 entries                                                                   
     n  l   j            E        occ.                                          
     1  0  0.50     -6424.8288   2.0000                                         
     2  0  0.50      -739.1154   2.0000                                         
     2  1  1.50      -625.3949   6.0000                                         
     3  0  0.50       -81.6100   2.0000                                         
     3  1  1.50       -50.4667   6.0000                                         
     3  2  2.50        -3.3745   6.0000                                         
     4  0  0.50        -4.1331   1.0000                                         
     4  1  0.50        -4.0817   0.0000                                         
     4  3  2.50        -1.3606   0.0000                                         
   Description                                                                  
     l       E           TYP  RCUT    TYP  RCUT                                 
     2     -3.3744664     23  2.300                                             
     2     -4.7350490     23  2.300                                             
     0     -4.1331408     23  2.300                                             
     0      7.6656614     23  2.300                                             
     1     -2.7211652     23  2.300                                             
     1     20.4087390     23  2.300                                             
  local pseudopotential read in
  partial core-charges read in
  partial kinetic energy density read in
  atomic valenz-charges read in
  non local Contribution for L=           2  read in
    real space projection operators read in
  non local Contribution for L=           2  read in
    real space projection operators read in
  non local Contribution for L=           0  read in
    real space projection operators read in
  non local Contribution for L=           0  read in
    real space projection operators read in
  non local Contribution for L=           1  read in
    real space projection operators read in
  non local Contribution for L=           1  read in
    real space projection operators read in
    PAW grid and wavefunctions read in
 
   number of l-projection  operators is LMAX  =           6
   number of lm-projection operators is LMMAX =          18
 

 ----------------------------------------------------------------------------- 
|                                                                             |
|  ADVICE TO THIS USER RUNNING 'VASP/VAMP'   (HEAR YOUR MASTER'S VOICE ...):  |
|                                                                             |
|      You have a (more or less) 'large supercell' and for larger cells       |
|      it might be more efficient to use real space projection opertators     |
|      So try LREAL= Auto  in the INCAR   file.                               |
|      Mind:          For very  accurate calculation you might also keep the  |
|      reciprocal projection scheme          (i.e. LREAL=.FALSE.)             |
|                                                                             |
 ----------------------------------------------------------------------------- 

  PAW_PBE Al 04Jan2001                  :
 energy of atom  1       EATOM=  -53.5387
 kinetic energy error for atom=    0.0005 (will be added to EATOM!!)
  PAW_PBE Mn 06Sep2000                  :
 energy of atom  2       EATOM= -416.7541
 kinetic energy error for atom=    0.0080 (will be added to EATOM!!)
 
 
 POSCAR: NewRef: 27, @ ['Mn', array([1.37502469, 
  positions in cartesian coordinates
  velocities in cartesian coordinates
  No initial velocities read in
 exchange correlation table for  LEXCH =        8
   RHO(1)=    0.500       N(1)  =     2000
   RHO(2)=  100.500       N(2)  =     4000
 


--------------------------------------------------------------------------------------------------------


 ion  position               nearest neighbor table
   1  0.000  0.000  0.000-  28 2.61  30 2.61  34 2.61  36 2.61  46 2.61  48 2.61  52 2.61  54 2.61
                             4 2.75  10 2.75   7 2.75  19 2.75
   2  0.000  0.000  0.333-  28 2.61  34 2.61  46 2.61  52 2.61  29 2.61  47 2.61  35 2.61  53 2.61
                             5 2.75  11 2.75   8 2.75  20 2.75
   3  0.000  0.000  0.667-  29 2.61  35 2.61  47 2.61  53 2.61  30 2.61  48 2.61  36 2.61  54 2.61
                             6 2.75  12 2.75   9 2.75  21 2.75
   4  0.000  0.333  0.000-  28 2.61  30 2.61  46 2.61  48 2.61  31 2.61  33 2.61  49 2.61  51 2.61
                            13 2.75   1 2.75   7 2.75  22 2.75
   5  0.000  0.333  0.333-  28 2.61  46 2.61  31 2.61  49 2.61  47 2.61  29 2.61  32 2.61  50 2.61
                            14 2.75   2 2.75   8 2.75  23 2.75
   6  0.000  0.333  0.667-  29 2.61  47 2.61  32 2.61  50 2.61  48 2.61  30 2.61  33 2.61  51 2.61
                            15 2.75   3 2.75   9 2.75  24 2.75
   7  0.000  0.667  0.000-  31 2.61  33 2.61  49 2.61  51 2.61  34 2.61  36 2.61  52 2.61  54 2.61
                             4 2.75  16 2.75   1 2.75  25 2.75
   8  0.000  0.667  0.333-  31 2.61  49 2.61  34 2.61  52 2.61  50 2.61  32 2.61  35 2.61  53 2.61
                             5 2.75  17 2.75   2 2.75  26 2.75
   9  0.000  0.667  0.667-  32 2.61  50 2.61  35 2.61  53 2.61  51 2.61  33 2.61  36 2.61  54 2.61
                             6 2.75  18 2.75   3 2.75  27 2.75
  10  0.333  0.000  0.000-  28 2.61  30 2.61  34 2.61  36 2.61  37 2.61  39 2.61  43 2.61  45 2.61
                            19 2.75   1 2.75  13 2.75  16 2.75
  11  0.333  0.000  0.333-  28 2.61  34 2.61  37 2.61  43 2.61  29 2.61  35 2.61  38 2.61  44 2.61
                            20 2.75   2 2.75  14 2.75  17 2.75
  12  0.333  0.000  0.667-  29 2.61  35 2.61  38 2.61  44 2.61  30 2.61  36 2.61  39 2.61  45 2.61
                            21 2.75   3 2.75  15 2.75  18 2.75
  13  0.333  0.333  0.000-  28 2.61  30 2.61  31 2.61  33 2.61  37 2.61  39 2.61  40 2.61  42 2.61
                             4 2.75  10 2.75  16 2.75  22 2.75
  14  0.333  0.333  0.333-  28 2.61  31 2.61  37 2.61  29 2.61  40 2.61  38 2.61  32 2.61  41 2.61
                             5 2.75  11 2.75  17 2.75  23 2.75
  15  0.333  0.333  0.667-  29 2.61  32 2.61  38 2.61  30 2.61  41 2.61  39 2.61  33 2.61  42 2.61
                             6 2.75  12 2.75  18 2.75  24 2.75
  16  0.333  0.667  0.000-  31 2.61  33 2.61  34 2.61  36 2.61  40 2.61  42 2.61  43 2.61  45 2.61
                            25 2.75   7 2.75  13 2.75  10 2.75
  17  0.333  0.667  0.333-  31 2.61  34 2.61  40 2.61  32 2.61  43 2.61  41 2.61  35 2.61  44 2.61
                            26 2.75   8 2.75  14 2.75  11 2.75
  18  0.333  0.667  0.667-  32 2.61  35 2.61  41 2.61  33 2.61  44 2.61  42 2.61  36 2.61  45 2.61
                            27 2.75   9 2.75  15 2.75  12 2.75
  19  0.667  0.000  0.000-  37 2.61  39 2.61  43 2.61  45 2.61  46 2.61  48 2.61  52 2.61  54 2.61
                            10 2.75  22 2.75   1 2.75  25 2.75
  20  0.667  0.000  0.333-  37 2.61  43 2.61  46 2.61  52 2.61  38 2.61  44 2.61  47 2.61  53 2.61
                            11 2.75  23 2.75   2 2.75  26 2.75
  21  0.667  0.000  0.667-  38 2.61  44 2.61  47 2.61  53 2.61  39 2.61  45 2.61  48 2.61  54 2.61
                            12 2.75  24 2.75   3 2.75  27 2.75
  22  0.667  0.333  0.000-  37 2.61  39 2.61  40 2.61  42 2.61  46 2.61  48 2.61  49 2.61  51 2.61
                            25 2.75  13 2.75  19 2.75   4 2.75
  23  0.667  0.333  0.333-  37 2.61  40 2.61  46 2.61  38 2.61  49 2.61  47 2.61  41 2.61  50 2.61
                            26 2.75  14 2.75  20 2.75   5 2.75
  24  0.667  0.333  0.667-  38 2.61  41 2.61  47 2.61  39 2.61  50 2.61  48 2.61  42 2.61  51 2.61
                            27 2.75  15 2.75  21 2.75   6 2.75
  25  0.667  0.667  0.000-  40 2.61  42 2.61  43 2.61  45 2.61  49 2.61  51 2.61  52 2.61  54 2.61
                            16 2.75  22 2.75  19 2.75   7 2.75
  26  0.667  0.667  0.333-  40 2.61  43 2.61  49 2.61  41 2.61  52 2.61  50 2.61  44 2.61  53 2.61
                            17 2.75  23 2.75  20 2.75   8 2.75
  27  0.667  0.667  0.667-  41 2.61  44 2.61  50 2.61  42 2.61  53 2.61  51 2.61  45 2.61  54 2.61
                            18 2.75  24 2.75  21 2.75   9 2.75
  28  0.167  0.167  0.167-  14 2.61  11 2.61   5 2.61  13 2.61   2 2.61  10 2.61   4 2.61   1 2.61
                            31 2.75  37 2.75  34 2.75  46 2.75
  29  0.167  0.167  0.500-  15 2.61  12 2.61   6 2.61  14 2.61   3 2.61  11 2.61   5 2.61   2 2.61
                            32 2.75  38 2.75  35 2.75  47 2.75
  30  0.167  0.167  0.833-  13 2.61  15 2.61  10 2.61  12 2.61   4 2.61   6 2.61   1 2.61   3 2.61
                            33 2.75  39 2.75  36 2.75  48 2.75
  31  0.167  0.500  0.167-  17 2.61  14 2.61   8 2.61  16 2.61   5 2.61  13 2.61   7 2.61   4 2.61
                            28 2.75  34 2.75  40 2.75  49 2.75
  32  0.167  0.500  0.500-  18 2.61  15 2.61   9 2.61  17 2.61   6 2.61  14 2.61   8 2.61   5 2.61
                            29 2.75  35 2.75  41 2.75  50 2.75
  33  0.167  0.500  0.833-  16 2.61  18 2.61  13 2.61  15 2.61   7 2.61   9 2.61   4 2.61   6 2.61
                            30 2.75  36 2.75  42 2.75  51 2.75
  34  0.167  0.833  0.167-  11 2.61  17 2.61   2 2.61   8 2.61  16 2.61  10 2.61   7 2.61   1 2.61
                            31 2.75  43 2.75  28 2.75  52 2.75
  35  0.167  0.833  0.500-  12 2.61  18 2.61   3 2.61   9 2.61  17 2.61  11 2.61   8 2.61   2 2.61
                            32 2.75  44 2.75  29 2.75  53 2.75
  36  0.167  0.833  0.833-  10 2.61  12 2.61  16 2.61  18 2.61   1 2.61   3 2.61   7 2.61   9 2.61
                            33 2.75  45 2.75  30 2.75  54 2.75
  37  0.500  0.167  0.167-  23 2.61  20 2.61  14 2.61  22 2.61  11 2.61  19 2.61  13 2.61  10 2.61
                            28 2.75  40 2.75  46 2.75  43 2.75
  38  0.500  0.167  0.500-  24 2.61  21 2.61  15 2.61  23 2.61  12 2.61  20 2.61  14 2.61  11 2.61
                            29 2.75  41 2.75  47 2.75  44 2.75
  39  0.500  0.167  0.833-  22 2.61  24 2.61  19 2.61  21 2.61  13 2.61  15 2.61  10 2.61  12 2.61
                            30 2.75  42 2.75  48 2.75  45 2.75
  40  0.500  0.500  0.167-  26 2.61  23 2.61  17 2.61  25 2.61  14 2.61  22 2.61  16 2.61  13 2.61
                            31 2.75  37 2.75  43 2.75  49 2.75
  41  0.500  0.500  0.500-  27 2.61  24 2.61  18 2.61  26 2.61  15 2.61  23 2.61  17 2.61  14 2.61
                            32 2.75  38 2.75  44 2.75  50 2.75
  42  0.500  0.500  0.833-  25 2.61  27 2.61  22 2.61  24 2.61  16 2.61  18 2.61  13 2.61  15 2.61
                            33 2.75  39 2.75  45 2.75  51 2.75
  43  0.500  0.833  0.167-  20 2.61  26 2.61  11 2.61  17 2.61  25 2.61  19 2.61  16 2.61  10 2.61
                            34 2.75  40 2.75  52 2.75  37 2.75
  44  0.500  0.833  0.500-  21 2.61  27 2.61  12 2.61  18 2.61  26 2.61  20 2.61  17 2.61  11 2.61
                            35 2.75  41 2.75  53 2.75  38 2.75
  45  0.500  0.833  0.833-  19 2.61  21 2.61  25 2.61  27 2.61  10 2.61  12 2.61  16 2.61  18 2.61
                            36 2.75  42 2.75  54 2.75  39 2.75
  46  0.833  0.167  0.167-   5 2.61  23 2.61  20 2.61   2 2.61  22 2.61   4 2.61  19 2.61   1 2.61
                            37 2.75  49 2.75  28 2.75  52 2.75
  47  0.833  0.167  0.500-   6 2.61  24 2.61  21 2.61   3 2.61  23 2.61   5 2.61  20 2.61   2 2.61
                            38 2.75  50 2.75  29 2.75  53 2.75
  48  0.833  0.167  0.833-   4 2.61   6 2.61  22 2.61  24 2.61  19 2.61  21 2.61   1 2.61   3 2.61
                            39 2.75  51 2.75  30 2.75  54 2.75
  49  0.833  0.500  0.167-   8 2.61  26 2.61  23 2.61   5 2.61  25 2.61   7 2.61  22 2.61   4 2.61
                            40 2.75  46 2.75  52 2.75  31 2.75
  50  0.833  0.500  0.500-   9 2.61  27 2.61  24 2.61   6 2.61  26 2.61   8 2.61  23 2.61   5 2.61
                            41 2.75  47 2.75  53 2.75  32 2.75
  51  0.833  0.500  0.833-   7 2.61   9 2.61  25 2.61  27 2.61  22 2.61  24 2.61   4 2.61   6 2.61
                            42 2.75  48 2.75  54 2.75  33 2.75
  52  0.833  0.833  0.167-   2 2.61   8 2.61  20 2.61  26 2.61  19 2.61   7 2.61  25 2.61   1 2.61
                            43 2.75  49 2.75  46 2.75  34 2.75
  53  0.833  0.833  0.500-   3 2.61   9 2.61  21 2.61  27 2.61  20 2.61   8 2.61  26 2.61   2 2.61
                            44 2.75  50 2.75  47 2.75  35 2.75
  54  0.833  0.833  0.833-   1 2.61   3 2.61   7 2.61   9 2.61  19 2.61  21 2.61  25 2.61  27 2.61
                            45 2.75  51 2.75  48 2.75  36 2.75
 
  LATTYP: Found a simple tetragonal cell.
 ALAT       =     8.2501481662
 C/A-ratio  =     1.2642089792
  
  Lattice vectors:
  
 A1 = (   8.2501481662,   0.0000000000,   0.0000000000)
 A2 = (   0.0000000000,   8.2501481662,   0.0000000000)
 A3 = (   0.0000000000,   0.0000000000,  10.4299113916)


Analysis of symmetry for initial positions (statically):
=====================================================================
 Subroutine PRICEL returns following result:
 
  LATTYP: Found a simple tetragonal cell.
 ALAT       =     2.7500493888
 C/A-ratio  =     1.2642089792
  
  Lattice vectors:
  
 A1 = (   2.7500493888,   0.0000000000,   0.0000000000)
 A2 = (   0.0000000000,   2.7500493888,   0.0000000000)
 A3 = (   0.0000000000,   0.0000000000,   3.4766371306)
 
  27 primitive cells build up your supercell.
 

 Routine SETGRP: Setting up the symmetry group for a 
 simple tetragonal supercell.


 Subroutine GETGRP returns: Found 16 space group operations
 (whereof 16 operations were pure point group operations)
 out of a pool of 16 trial point group operations.


The static configuration has the point symmetry D_4h.


Analysis of symmetry for dynamics (positions and initial velocities):
=====================================================================
 Subroutine PRICEL returns following result:
 
  LATTYP: Found a simple tetragonal cell.
 ALAT       =     2.7500493888
 C/A-ratio  =     1.2642089792
  
  Lattice vectors:
  
 A1 = (   2.7500493888,   0.0000000000,   0.0000000000)
 A2 = (   0.0000000000,   2.7500493888,   0.0000000000)
 A3 = (   0.0000000000,   0.0000000000,   3.4766371306)
 
  27 primitive cells build up your supercell.
 

 Routine SETGRP: Setting up the symmetry group for a 
 simple tetragonal supercell.


 Subroutine GETGRP returns: Found 16 space group operations
 (whereof 16 operations were pure point group operations)
 out of a pool of 16 trial point group operations.


The dynamic configuration has the point symmetry D_4h.


Analysis of structural, dynamic, and magnetic symmetry:
=====================================================================
 Subroutine PRICEL returns:
 Original cell was already a primitive cell.
 

 Routine SETGRP: Setting up the symmetry group for a 
 simple tetragonal supercell.


 Subroutine GETGRP returns: Found  8 space group operations
 (whereof  2 operations were pure point group operations)
 out of a pool of 16 trial point group operations.


The magnetic configuration has the point symmetry C_1h.
 The point group associated with its full space group is C_4v.


 Subroutine INISYM returns: Found  8 space group operations
 (whereof  2 operations are pure point group operations),
 and found     1 'primitive' translations

 
 
 KPOINTS: automatic KPOINTS                       

Automatic generation of k-mesh.
 generate k-points for:    5    5    4
Space group operators:
 irot       det(A)        alpha          n_x          n_y          n_z        tau_x        tau_y        tau_z
    1     1.000000     0.000001     1.000000     0.000000     0.000000     0.000000     0.000000     0.000000
    2    -1.000000   180.000000     0.707107    -0.707107     0.000000     0.000000     0.000000     0.000000
    3     1.000000    90.000000     0.000000     0.000000    -1.000000     0.666667     0.000000     0.000000
    4     1.000000   180.000000     0.000000     0.000000     1.000000     0.666667     0.666667     0.000000
    5     1.000000    90.000000     0.000000     0.000000     1.000000     0.000000     0.666667     0.000000
    6    -1.000000   180.000000     0.000000     1.000000     0.000000     0.000000     0.666667     0.000000
    7    -1.000000   180.000000     0.707107     0.707107     0.000000     0.666667     0.666667     0.000000
    8    -1.000000   180.000000     1.000000     0.000000     0.000000     0.666667     0.000000     0.000000
 
 Subroutine IBZKPT returns following result:
 ===========================================
 
 Found     18 irreducible k-points:
 
 Following reciprocal coordinates:
            Coordinates               Weight
  0.000000  0.000000  0.000000      1.000000
  0.200000  0.000000  0.000000      4.000000
  0.400000  0.000000  0.000000      4.000000
  0.200000  0.200000  0.000000      4.000000
  0.400000  0.200000  0.000000      8.000000
  0.400000  0.400000  0.000000      4.000000
  0.000000  0.000000  0.250000      2.000000
  0.200000  0.000000  0.250000      8.000000
  0.400000  0.000000  0.250000      8.000000
  0.200000  0.200000  0.250000      8.000000
  0.400000  0.200000  0.250000     16.000000
  0.400000  0.400000  0.250000      8.000000
  0.000000  0.000000  0.500000      1.000000
  0.200000  0.000000  0.500000      4.000000
  0.400000  0.000000  0.500000      4.000000
  0.200000  0.200000  0.500000      4.000000
  0.400000  0.200000  0.500000      8.000000
  0.400000  0.400000  0.500000      4.000000
 
 Following cartesian coordinates:
            Coordinates               Weight
  0.000000  0.000000  0.000000      1.000000
  0.024242  0.000000  0.000000      4.000000
  0.048484  0.000000  0.000000      4.000000
  0.024242  0.024242  0.000000      4.000000
  0.048484  0.024242  0.000000      8.000000
  0.048484  0.048484  0.000000      4.000000
  0.000000  0.000000  0.023970      2.000000
  0.024242  0.000000  0.023970      8.000000
  0.048484  0.000000  0.023970      8.000000
  0.024242  0.024242  0.023970      8.000000
  0.048484  0.024242  0.023970     16.000000
  0.048484  0.048484  0.023970      8.000000
  0.000000  0.000000  0.047939      1.000000
  0.024242  0.000000  0.047939      4.000000
  0.048484  0.000000  0.047939      4.000000
  0.024242  0.024242  0.047939      4.000000
  0.048484  0.024242  0.047939      8.000000
  0.048484  0.048484  0.047939      4.000000
 


--------------------------------------------------------------------------------------------------------




 Dimension of arrays:
   k-points           NKPTS =     18   k-points in BZ     NKDIM =     18   number of bands    NBANDS=    154
   number of dos      NEDOS =    301   number of ions     NIONS =     54
   non local maximal  LDIM  =      6   non local SUM 2l+1 LMDIM =     18
   total plane-waves  NPLWV = 204120
   max r-space proj   IRMAX =      1   max aug-charges    IRDMAX=  89713
   dimension x,y,z NGX =    54 NGY =   54 NGZ =   70
   dimension x,y,z NGXF=   108 NGYF=  108 NGZF=  140
   support grid    NGXF=   216 NGYF=  216 NGZF=  280
   ions per type =              27  27
   NGX,Y,Z   is equivalent  to a cutoff of  10.88, 10.88, 11.16 a.u.
   NGXF,Y,Z  is equivalent  to a cutoff of  21.76, 21.76, 22.32 a.u.

 SYSTEM =  AlMn_pv                                 
 POSCAR =  NewRef: 27, @ ['Mn', array([1.37502469, 

 Startparameter for this run:
   NWRITE =      2    write-flag & timer
   PREC   = accura    normal or accurate (medium, high low for compatibility)
   ISTART =      0    job   : 0-new  1-cont  2-samecut
   ICHARG =      2    charge: 1-file 2-atom 10-const
   ISPIN  =      2    spin polarized calculation?
   LNONCOLLINEAR =      F non collinear calculations
   LSORBIT =      F    spin-orbit coupling
   INIWAV =      1    electr: 0-lowe 1-rand  2-diag
   LASPH  =      F    aspherical Exc in radial PAW
   METAGGA=      F    non-selfconsistent MetaGGA calc.

 Electronic Relaxation 1
   ENCUT  =  404.8 eV  29.75 Ry    5.45 a.u.  13.53 13.53 17.11*2*pi/ulx,y,z
   ENINI  =  404.8     initial cutoff
   ENAUG  =  500.7 eV  augmentation charge cutoff
   NELM   =    100;   NELMIN=  4; NELMDL= -8     # of ELM steps 
   EDIFF  = 0.1E-06   stopping-criterion for ELM
   LREAL  =      F    real-space projection
   NLSPLINE    = F    spline interpolate recip. space projectors
   LCOMPAT=      F    compatible to vasp.4.4
   GGA_COMPAT  = T    GGA compatible to vasp.4.4-vasp.4.6
   LMAXPAW     = -100 max onsite density
   LMAXMIX     =    2 max onsite mixed and CHGCAR
   VOSKOWN=      0    Vosko Wilk Nusair interpolation
   ROPT   =    0.00000   0.00000
 Ionic relaxation
   EDIFFG = 0.1E-05   stopping-criterion for IOM
   NSW    =      0    number of steps for IOM
   NBLOCK =      1;   KBLOCK =      1    inner block; outer block 
   IBRION =     -1    ionic relax: 0-MD 1-quasi-New 2-CG
   NFREE  =      0    steps in history (QN), initial steepest desc. (CG)
   ISIF   =      2    stress and relaxation
   IWAVPR =     10    prediction:  0-non 1-charg 2-wave 3-comb
   ISYM   =      2    0-nonsym 1-usesym 2-fastsym
   LCORR  =      T    Harris-Foulkes like correction to forces

   POTIM  = 0.2000    time-step for ionic-motion
   TEIN   =    0.0    initial temperature
   TEBEG  =    0.0;   TEEND  =   0.0 temperature during run
   SMASS  =  -3.00    Nose mass-parameter (am)
   estimated Nose-frequenzy (Omega)   =  0.10E-29 period in steps =****** mass=  -0.156E-26a.u.
   SCALEE = 1.0000    scale energy and forces
   NPACO  =    256;   APACO  = 16.0  distance and # of slots for P.C.
   PSTRESS=    0.0 pullay stress

  Mass of Ions in am
   POMASS =  26.98 54.94
  Ionic Valenz
   ZVAL   =   3.00  7.00
  Atomic Wigner-Seitz radii
   RWIGS  =  -1.00 -1.00
  virtual crystal weights 
   VCA    =   1.00  1.00
   NELECT =     270.0000    total number of electrons
   NUPDOWN=      -1.0000    fix difference up-down

 DOS related values:
   EMIN   =  10.00;   EMAX   =-10.00  energy-range for DOS
   EFERMI =   0.00
   ISMEAR =     1;   SIGMA  =   0.20  broadening in eV -4-tet -1-fermi 0-gaus

 Electronic relaxation 2 (details)
   IALGO  =     58    algorithm
   LDIAG  =      T    sub-space diagonalisation (order eigenvalues)
   LSUBROT=      F    optimize rotation matrix (better conditioning)
   TURBO    =      0    0=normal 1=particle mesh
   IRESTART =      0    0=no restart 2=restart with 2 vectors
   NREBOOT  =      0    no. of reboots
   NMIN     =      0    reboot dimension
   EREF     =   0.00    reference energy to select bands
   IMIX   =      4    mixing-type and parameters
     AMIX     =   0.40;   BMIX     =  1.00
     AMIX_MAG =   1.60;   BMIX_MAG =  1.00
     AMIN     =   0.10
     WC   =   100.;   INIMIX=   1;  MIXPRE=   1;  MAXMIX= -45

 Intra band minimization:
   WEIMIN = 0.0000     energy-eigenvalue tresh-hold
   EBREAK =  0.16E-09  absolut break condition
   DEPER  =   0.30     relativ break condition  

   TIME   =   0.40     timestep for ELM

  volume/ion in A,a.u.               =      13.15        88.72
  Fermi-wavevector in a.u.,A,eV,Ry     =   1.186118  2.241439 19.141722  1.406877
  Thomas-Fermi vector in A             =   2.322298
 
 Write flags
   LWAVE        =      F    write WAVECAR
   LDOWNSAMPLE  =      F    k-point downsampling of WAVECAR
   LCHARG       =      F    write CHGCAR
   LVTOT        =      F    write LOCPOT, total local potential
   LVHAR        =      F    write LOCPOT, Hartree potential only
   LELF         =      F    write electronic localiz. function (ELF)
   LORBIT       =     10    0 simple, 1 ext, 2 COOP (PROOUT), +10 PAW based schemes


 Dipole corrections
   LMONO  =      F    monopole corrections only (constant potential shift)
   LDIPOL =      F    correct potential (dipole corrections)
   IDIPOL =      0    1-x, 2-y, 3-z, 4-all directions 
   EPSILON=  1.0000000 bulk dielectric constant

 Exchange correlation treatment:
   GGA     =    --    GGA type
   LEXCH   =     8    internal setting for exchange type
   VOSKOWN=      0    Vosko Wilk Nusair interpolation
   LHFCALC =     F    Hartree Fock is set to
   LHFONE  =     F    Hartree Fock one center treatment
   AEXX    =    0.0000 exact exchange contribution

 Linear response parameters
   LEPSILON=     F    determine dielectric tensor
   LRPA    =     F    only Hartree local field effects (RPA)
   LNABLA  =     F    use nabla operator in PAW spheres
   LVEL    =     F    velocity operator in full k-point grid
   LINTERFAST=   F  fast interpolation
   KINTER  =     0    interpolate to denser k-point grid
   CSHIFT  =0.1000    complex shift for real part using Kramers Kronig
   OMEGAMAX=  -1.0    maximum frequency
   DEG_THRESHOLD= 0.2000000E-02 threshold for treating states as degnerate
   RTIME   =   -0.100 relaxation time in fs
  (WPLASMAI=    0.000 imaginary part of plasma frequency in eV, 0.658/RTIME)
   DFIELD  = 0.0000000 0.0000000 0.0000000 field for delta impulse in time
 
 Orbital magnetization related:
   ORBITALMAG=     F  switch on orbital magnetization
   LCHIMAG   =     F  perturbation theory with respect to B field
   DQ        =  0.001000  dq finite difference perturbation B field
   LLRAUG    =     F  two centre corrections for induced B field



--------------------------------------------------------------------------------------------------------


 Static calculation
 charge density and potential will be updated during run
 spin polarized calculation
 Conjugate gradient for all bands (Freysoldt, et al. PRB 79, 241103 (2009))
 preconditioned conjugated gradient                                        
 perform sub-space diagonalisation
    before iterative eigenvector-optimisation
 modified Broyden-mixing scheme, WC =      100.0
 initial mixing is a Kerker type mixing with AMIX =  0.4000 and BMIX =      1.0000
 Hartree-type preconditioning will be used
 using additional bands           19
 reciprocal scheme for non local part
 use partial core corrections
 no Harris-corrections to forces 
 use gradient corrections 
 use of overlap-Matrix (Vanderbilt PP)
 Methfessel and Paxton  Order N= 1 SIGMA  =   0.20


--------------------------------------------------------------------------------------------------------


  energy-cutoff  :      404.80
  volume of cell :      709.91
      direct lattice vectors                 reciprocal lattice vectors
     8.250148166  0.000000000  0.000000000     0.121209944  0.000000000  0.000000000
     0.000000000  8.250148166  0.000000000     0.000000000  0.121209944  0.000000000
     0.000000000  0.000000000 10.429911392     0.000000000  0.000000000  0.095878092

  length of vectors
     8.250148166  8.250148166 10.429911392     0.121209944  0.121209944  0.095878092


 
 k-points in units of 2pi/SCALE and weight: automatic KPOINTS                       
   0.00000000  0.00000000  0.00000000       0.010
   0.02424199  0.00000000  0.00000000       0.040
   0.04848398  0.00000000  0.00000000       0.040
   0.02424199  0.02424199  0.00000000       0.040
   0.04848398  0.02424199  0.00000000       0.080
   0.04848398  0.04848398  0.00000000       0.040
   0.00000000  0.00000000  0.02396952       0.020
   0.02424199  0.00000000  0.02396952       0.080
   0.04848398  0.00000000  0.02396952       0.080
   0.02424199  0.02424199  0.02396952       0.080
   0.04848398  0.02424199  0.02396952       0.160
   0.04848398  0.04848398  0.02396952       0.080
   0.00000000  0.00000000  0.04793905       0.010
   0.02424199  0.00000000  0.04793905       0.040
   0.04848398  0.00000000  0.04793905       0.040
   0.02424199  0.02424199  0.04793905       0.040
   0.04848398  0.02424199  0.04793905       0.080
   0.04848398  0.04848398  0.04793905       0.040
 
 k-points in reciprocal lattice and weights: automatic KPOINTS                       
   0.00000000  0.00000000  0.00000000       0.010
   0.20000000  0.00000000  0.00000000       0.040
   0.40000000  0.00000000  0.00000000       0.040
   0.20000000  0.20000000  0.00000000       0.040
   0.40000000  0.20000000  0.00000000       0.080
   0.40000000  0.40000000  0.00000000       0.040
   0.00000000  0.00000000  0.25000000       0.020
   0.20000000  0.00000000  0.25000000       0.080
   0.40000000  0.00000000  0.25000000       0.080
   0.20000000  0.20000000  0.25000000       0.080
   0.40000000  0.20000000  0.25000000       0.160
   0.40000000  0.40000000  0.25000000       0.080
   0.00000000  0.00000000  0.50000000       0.010
   0.20000000  0.00000000  0.50000000       0.040
   0.40000000  0.00000000  0.50000000       0.040
   0.20000000  0.20000000  0.50000000       0.040
   0.40000000  0.20000000  0.50000000       0.080
   0.40000000  0.40000000  0.50000000       0.040
 
 position of ions in fractional coordinates (direct lattice) 
   0.00000000  0.00000000  0.00000000
   0.00000000  0.00000000  0.33333333
   0.00000000  0.00000000  0.66666667
   0.00000000  0.33333333  0.00000000
   0.00000000  0.33333333  0.33333333
   0.00000000  0.33333333  0.66666667
   0.00000000  0.66666667  0.00000000
   0.00000000  0.66666667  0.33333333
   0.00000000  0.66666667  0.66666667
   0.33333333  0.00000000  0.00000000
   0.33333333  0.00000000  0.33333333
   0.33333333  0.00000000  0.66666667
   0.33333333  0.33333333  0.00000000
   0.33333333  0.33333333  0.33333333
   0.33333333  0.33333333  0.66666667
   0.33333333  0.66666667  0.00000000
   0.33333333  0.66666667  0.33333333
   0.33333333  0.66666667  0.66666667
   0.66666667  0.00000000  0.00000000
   0.66666667  0.00000000  0.33333333
   0.66666667  0.00000000  0.66666667
   0.66666667  0.33333333  0.00000000
   0.66666667  0.33333333  0.33333333
   0.66666667  0.33333333  0.66666667
   0.66666667  0.66666667  0.00000000
   0.66666667  0.66666667  0.33333333
   0.66666667  0.66666667  0.66666667
   0.16666667  0.16666667  0.16666667
   0.16666667  0.16666667  0.50000000
   0.16666667  0.16666667  0.83333333
   0.16666667  0.50000000  0.16666667
   0.16666667  0.50000000  0.50000000
   0.16666667  0.50000000  0.83333333
   0.16666667  0.83333333  0.16666667
   0.16666667  0.83333333  0.50000000
   0.16666667  0.83333333  0.83333333
   0.50000000  0.16666667  0.16666667
   0.50000000  0.16666667  0.50000000
   0.50000000  0.16666667  0.83333333
   0.50000000  0.50000000  0.16666667
   0.50000000  0.50000000  0.50000000
   0.50000000  0.50000000  0.83333333
   0.50000000  0.83333333  0.16666667
   0.50000000  0.83333333  0.50000000
   0.50000000  0.83333333  0.83333333
   0.83333333  0.16666667  0.16666667
   0.83333333  0.16666667  0.50000000
   0.83333333  0.16666667  0.83333333
   0.83333333  0.50000000  0.16666667
   0.83333333  0.50000000  0.50000000
   0.83333333  0.50000000  0.83333333
   0.83333333  0.83333333  0.16666667
   0.83333333  0.83333333  0.50000000
   0.83333333  0.83333333  0.83333333
 
 position of ions in cartesian coordinates  (Angst):
   0.00000000  0.00000000  0.00000000
   0.00000000  0.00000000  3.47663713
   0.00000000  0.00000000  6.95327426
   0.00000000  2.75004939  0.00000000
   0.00000000  2.75004939  3.47663713
   0.00000000  2.75004939  6.95327426
   0.00000000  5.50009878  0.00000000
   0.00000000  5.50009878  3.47663713
   0.00000000  5.50009878  6.95327426
   2.75004939  0.00000000  0.00000000
   2.75004939  0.00000000  3.47663713
   2.75004939  0.00000000  6.95327426
   2.75004939  2.75004939  0.00000000
   2.75004939  2.75004939  3.47663713
   2.75004939  2.75004939  6.95327426
   2.75004939  5.50009878  0.00000000
   2.75004939  5.50009878  3.47663713
   2.75004939  5.50009878  6.95327426
   5.50009878  0.00000000  0.00000000
   5.50009878  0.00000000  3.47663713
   5.50009878  0.00000000  6.95327426
   5.50009878  2.75004939  0.00000000
   5.50009878  2.75004939  3.47663713
   5.50009878  2.75004939  6.95327426
   5.50009878  5.50009878  0.00000000
   5.50009878  5.50009878  3.47663713
   5.50009878  5.50009878  6.95327426
   1.37502469  1.37502469  1.73831857
   1.37502469  1.37502469  5.21495570
   1.37502469  1.37502469  8.69159283
   1.37502469  4.12507408  1.73831857
   1.37502469  4.12507408  5.21495570
   1.37502469  4.12507408  8.69159283
   1.37502469  6.87512347  1.73831857
   1.37502469  6.87512347  5.21495570
   1.37502469  6.87512347  8.69159283
   4.12507408  1.37502469  1.73831857
   4.12507408  1.37502469  5.21495570
   4.12507408  1.37502469  8.69159283
   4.12507408  4.12507408  1.73831857
   4.12507408  4.12507408  5.21495570
   4.12507408  4.12507408  8.69159283
   4.12507408  6.87512347  1.73831857
   4.12507408  6.87512347  5.21495570
   4.12507408  6.87512347  8.69159283
   6.87512347  1.37502469  1.73831857
   6.87512347  1.37502469  5.21495570
   6.87512347  1.37502469  8.69159283
   6.87512347  4.12507408  1.73831857
   6.87512347  4.12507408  5.21495570
   6.87512347  4.12507408  8.69159283
   6.87512347  6.87512347  1.73831857
   6.87512347  6.87512347  5.21495570
   6.87512347  6.87512347  8.69159283
 


--------------------------------------------------------------------------------------------------------


 k-point  1 :   0.0000 0.0000 0.0000  plane waves:   13099
 k-point  2 :   0.2000 0.0000 0.0000  plane waves:   13101
 k-point  3 :   0.4000 0.0000 0.0000  plane waves:   13111
 k-point  4 :   0.2000 0.2000 0.0000  plane waves:   13137
 k-point  5 :   0.4000 0.2000 0.0000  plane waves:   13119
 k-point  6 :   0.4000 0.4000 0.0000  plane waves:   13129
 k-point  7 :   0.0000 0.0000 0.2500  plane waves:   13134
 k-point  8 :   0.2000 0.0000 0.2500  plane waves:   13149
 k-point  9 :   0.4000 0.0000 0.2500  plane waves:   13119
 k-point 10 :   0.2000 0.2000 0.2500  plane waves:   13145
 k-point 11 :   0.4000 0.2000 0.2500  plane waves:   13134
 k-point 12 :   0.4000 0.4000 0.2500  plane waves:   13108
 k-point 13 :   0.0000 0.0000 0.5000  plane waves:   13186
 k-point 14 :   0.2000 0.0000 0.5000  plane waves:   13124
 k-point 15 :   0.4000 0.0000 0.5000  plane waves:   13152
 k-point 16 :   0.2000 0.2000 0.5000  plane waves:   13136
 k-point 17 :   0.4000 0.2000 0.5000  plane waves:   13128
 k-point 18 :   0.4000 0.4000 0.5000  plane waves:   13112

 maximum and minimum number of plane-waves per node :      3304     3246

 maximum number of plane-waves:     13186
 maximum index in each direction: 
   IXMAX=   13   IYMAX=   13   IZMAX=   17
   IXMIN=  -13   IYMIN=  -13   IZMIN=  -17


 parallel 3D FFT for wavefunctions:
    minimum data exchange during FFTs selected (reduces bandwidth)
 parallel 3D FFT for charge:
    minimum data exchange during FFTs selected (reduces bandwidth)


 total amount of memory used by VASP MPI-rank0   566378. kBytes
=======================================================================

   base      :      30000. kBytes
   nonl-proj :      19946. kBytes
   fftplans  :      31580. kBytes
   grid      :      21385. kBytes
   one-center:        435. kBytes
   wavefun   :     463032. kBytes
 
     INWAV:  cpu time    0.0000: real time    0.0000
 Broyden mixing: mesh for mixing (old mesh)
   NGX = 27   NGY = 27   NGZ = 35
  (NGX  =108   NGY  =108   NGZ  =140)
  gives a total of  25515 points

 initial charge density was supplied:
 charge density of overlapping atoms calculated
 number of electron     270.0000000 magnetization     -21.0000000
 keeping initial charge density in first step


--------------------------------------------------------------------------------------------------------


 Maximum index for augmentation-charges        10967 (set IRDMAX)


--------------------------------------------------------------------------------------------------------


 First call to EWALD:  gamma=   0.199
 Maximum number of real-space cells 3x 3x 2
 Maximum number of reciprocal cells 3x 3x 3

    FEWALD:  cpu time    0.0118: real time    0.0118


--------------------------------------- Iteration      1(   1)  ---------------------------------------


    POTLOK:  cpu time    0.3958: real time    0.3964
    SETDIJ:  cpu time    0.4561: real time    0.4571
    TRIAL :  cpu time   19.0763: real time   19.2386
    CORREC:  cpu time    0.0034: real time    0.0044
    --------------------------------------------
      LOOP:  cpu time   20.0754: real time   20.2629

 eigenvalue-minimisations  : 11088
 total energy-change (2. order) : 0.2094260E+04  (-0.8613204E+04)
 number of electron     270.0000000 magnetization     -21.0000000
 augmentation part      270.0000000 magnetization     -21.0000000

 Free energy of the ion-electron system (eV)
  ---------------------------------------------------
  alpha Z        PSCENC =       798.38614055
  Ewald energy   TEWEN  =    -12901.57693327
  -Hartree energ DENC   =     -2855.60785864
  -exchange      EXHF   =         0.00000000
  -V(xc)+E(xc)   XCENC  =      -995.96582483
  PAW double counting   =     12741.82587617   -11476.22345381
  entropy T*S    EENTRO =        -0.00635458
  eigenvalues    EBANDS =      4085.75393739
  atomic energy  EATOM  =     12697.67401269
  ---------------------------------------------------
  free energy    TOTEN  =      2094.25954166 eV

  energy without entropy =     2094.26589624  energy(sigma->0) =     2094.26165985


--------------------------------------------------------------------------------------------------------




--------------------------------------- Iteration      1(   2)  ---------------------------------------


    TRIAL :  cpu time   18.8510: real time   19.6189
    CORREC:  cpu time    0.0043: real time    0.0044
    --------------------------------------------
      LOOP:  cpu time   18.8565: real time   19.6266

 eigenvalue-minimisations  : 11088
 total energy-change (2. order) :-0.2123566E+04  (-0.2098279E+04)
 number of electron     270.0000000 magnetization     -21.0000000
 augmentation part      270.0000000 magnetization     -21.0000000

 Free energy of the ion-electron system (eV)
  ---------------------------------------------------
  alpha Z        PSCENC =       798.38614055
  Ewald energy   TEWEN  =    -12901.57693327
  -Hartree energ DENC   =     -2855.60785864
  -exchange      EXHF   =         0.00000000
  -V(xc)+E(xc)   XCENC  =      -995.96582483
  PAW double counting   =     12741.82587617   -11476.22345381
  entropy T*S    EENTRO =         0.00049026
  eigenvalues    EBANDS =      1962.18117787
  atomic energy  EATOM  =     12697.67401269
  ---------------------------------------------------
  free energy    TOTEN  =       -29.30637302 eV

  energy without entropy =      -29.30686327  energy(sigma->0) =      -29.30653643


--------------------------------------------------------------------------------------------------------




--------------------------------------- Iteration      1(   3)  ---------------------------------------


    TRIAL :  cpu time   26.5304: real time   26.7710
    CORREC:  cpu time    0.0051: real time    0.0060
    --------------------------------------------
      LOOP:  cpu time   26.5364: real time   26.7804

 eigenvalue-minimisations  : 16896
 total energy-change (2. order) :-0.3069690E+03  (-0.2859067E+03)
 number of electron     270.0000000 magnetization     -21.0000000
 augmentation part      270.0000000 magnetization     -21.0000000

 Free energy of the ion-electron system (eV)
  ---------------------------------------------------
  alpha Z        PSCENC =       798.38614055
  Ewald energy   TEWEN  =    -12901.57693327
  -Hartree energ DENC   =     -2855.60785864
  -exchange      EXHF   =         0.00000000
  -V(xc)+E(xc)   XCENC  =      -995.96582483
  PAW double counting   =     12741.82587617   -11476.22345381
  entropy T*S    EENTRO =        -0.00193237
  eigenvalues    EBANDS =      1655.21462403
  atomic energy  EATOM  =     12697.67401269
  ---------------------------------------------------
  free energy    TOTEN  =      -336.27534949 eV

  energy without entropy =     -336.27341712  energy(sigma->0) =     -336.27470537


--------------------------------------------------------------------------------------------------------




--------------------------------------- Iteration      1(   4)  ---------------------------------------


    TRIAL :  cpu time   27.8988: real time   28.0406
    CORREC:  cpu time    0.0053: real time    0.0054
    --------------------------------------------
      LOOP:  cpu time   27.9249: real time   28.0690

 eigenvalue-minimisations  : 18056
 total energy-change (2. order) :-0.5800091E+02  (-0.5349182E+02)
 number of electron     270.0000000 magnetization     -21.0000000
 augmentation part      270.0000000 magnetization     -21.0000000

 Free energy of the ion-electron system (eV)
  ---------------------------------------------------
  alpha Z        PSCENC =       798.38614055
  Ewald energy   TEWEN  =    -12901.57693327
  -Hartree energ DENC   =     -2855.60785864
  -exchange      EXHF   =         0.00000000
  -V(xc)+E(xc)   XCENC  =      -995.96582483
  PAW double counting   =     12741.82587617   -11476.22345381
  entropy T*S    EENTRO =         0.00961325
  eigenvalues    EBANDS =      1597.20216553
  atomic energy  EATOM  =     12697.67401269
  ---------------------------------------------------
  free energy    TOTEN  =      -394.27626238 eV

  energy without entropy =     -394.28587562  energy(sigma->0) =     -394.27946679


--------------------------------------------------------------------------------------------------------




--------------------------------------- Iteration      1(   5)  ---------------------------------------


    TRIAL :  cpu time   29.0229: real time   29.9315
    CORREC:  cpu time    0.0053: real time    0.0062
    --------------------------------------------
      LOOP:  cpu time   29.0294: real time   29.9415

 eigenvalue-minimisations  : 18944
 total energy-change (2. order) :-0.8672858E+01  (-0.8204321E+01)
 number of electron     270.0000000 magnetization     -21.0000000
 augmentation part      270.0000000 magnetization     -21.0000000

 Free energy of the ion-electron system (eV)
  ---------------------------------------------------
  alpha Z        PSCENC =       798.38614055
  Ewald energy   TEWEN  =    -12901.57693327
  -Hartree energ DENC   =     -2855.60785864
  -exchange      EXHF   =         0.00000000
  -V(xc)+E(xc)   XCENC  =      -995.96582483
  PAW double counting   =     12741.82587617   -11476.22345381
  entropy T*S    EENTRO =         0.02071567
  eigenvalues    EBANDS =      1588.51820533
  atomic energy  EATOM  =     12697.67401269
  ---------------------------------------------------
  free energy    TOTEN  =      -402.94912015 eV

  energy without entropy =     -402.96983582  energy(sigma->0) =     -402.95602537


--------------------------------------------------------------------------------------------------------




--------------------------------------- Iteration      1(   6)  ---------------------------------------


    TRIAL :  cpu time   28.7991: real time   28.9978
    CORREC:  cpu time    0.0053: real time    0.0055
    --------------------------------------------
      LOOP:  cpu time   28.8072: real time   29.0064

 eigenvalue-minimisations  : 18744
 total energy-change (2. order) :-0.1095110E+01  (-0.1040367E+01)
 number of electron     270.0000000 magnetization     -21.0000000
 augmentation part      270.0000000 magnetization     -21.0000000

 Free energy of the ion-electron system (eV)
  ---------------------------------------------------
  alpha Z        PSCENC =       798.38614055
  Ewald energy   TEWEN  =    -12901.57693327
  -Hartree energ DENC   =     -2855.60785864
  -exchange      EXHF   =         0.00000000
  -V(xc)+E(xc)   XCENC  =      -995.96582483
  PAW double counting   =     12741.82587617   -11476.22345381
  entropy T*S    EENTRO =         0.02120751
  eigenvalues    EBANDS =      1587.42260334
  atomic energy  EATOM  =     12697.67401269
  ---------------------------------------------------
  free energy    TOTEN  =      -404.04423029 eV

  energy without entropy =     -404.06543781  energy(sigma->0) =     -404.05129947


--------------------------------------------------------------------------------------------------------




--------------------------------------- Iteration      1(   7)  ---------------------------------------


    TRIAL :  cpu time   29.1407: real time   30.0477
    CORREC:  cpu time    0.0055: real time    0.0063
    --------------------------------------------
      LOOP:  cpu time   29.1498: real time   30.0579

 eigenvalue-minimisations  : 19144
 total energy-change (2. order) :-0.1988661E+00  (-0.1901996E+00)
 number of electron     270.0000000 magnetization     -21.0000000
 augmentation part      270.0000000 magnetization     -21.0000000

 Free energy of the ion-electron system (eV)
  ---------------------------------------------------
  alpha Z        PSCENC =       798.38614055
  Ewald energy   TEWEN  =    -12901.57693327
  -Hartree energ DENC   =     -2855.60785864
  -exchange      EXHF   =         0.00000000
  -V(xc)+E(xc)   XCENC  =      -995.96582483
  PAW double counting   =     12741.82587617   -11476.22345381
  entropy T*S    EENTRO =         0.02377695
  eigenvalues    EBANDS =      1587.22116779
  atomic energy  EATOM  =     12697.67401269
  ---------------------------------------------------
  free energy    TOTEN  =      -404.24309641 eV

  energy without entropy =     -404.26687336  energy(sigma->0) =     -404.25102206


--------------------------------------------------------------------------------------------------------




--------------------------------------- Iteration      1(   8)  ---------------------------------------


    TRIAL :  cpu time   28.3489: real time   28.5256
    CORREC:  cpu time    0.0055: real time    0.0056
    CHARGE:  cpu time    1.1856: real time    1.1858
    --------------------------------------------
      LOOP:  cpu time   29.5434: real time   29.7208

 eigenvalue-minimisations  : 18416
 total energy-change (2. order) :-0.4448688E-01  (-0.4264654E-01)
 number of electron     269.9999995 magnetization     -14.4348193
 augmentation part       64.2486054 magnetization      -8.3708080

 Free energy of the ion-electron system (eV)
  ---------------------------------------------------
  alpha Z        PSCENC =       798.38614055
  Ewald energy   TEWEN  =    -12901.57693327
  -Hartree energ DENC   =     -2855.60785864
  -exchange      EXHF   =         0.00000000
  -V(xc)+E(xc)   XCENC  =      -995.96582483
  PAW double counting   =     12741.82587617   -11476.22345381
  entropy T*S    EENTRO =         0.02562172
  eigenvalues    EBANDS =      1587.17483613
  atomic energy  EATOM  =     12697.67401269
  ---------------------------------------------------
  free energy    TOTEN  =      -404.28758330 eV

  energy without entropy =     -404.31320502  energy(sigma->0) =     -404.29612387


--------------------------------------------------------------------------------------------------------




--------------------------------------- Iteration      1(   9)  ---------------------------------------


    POTLOK:  cpu time    0.3967: real time    0.3966
    SETDIJ:  cpu time    0.4462: real time    0.4673
    TRIAL :  cpu time    9.4969: real time   10.2677
    CORREC:  cpu time    3.5784: real time    3.6537
    CHARGE:  cpu time    1.1828: real time    1.1831
    --------------------------------------------
      LOOP:  cpu time   15.1098: real time   15.9777

 eigenvalue-minimisations  :     0
 total energy-change (2. order) : 0.2985241E+03  (-0.2199388E+03)
 number of electron     269.9999993 magnetization     -15.3195950
 augmentation part       82.8206676 magnetization     -10.1895317

 Free energy of the ion-electron system (eV)
  ---------------------------------------------------
  alpha Z        PSCENC =       798.38614055
  Ewald energy   TEWEN  =    -12901.57693327
  -Hartree energ DENC   =     -1274.55566832
  -exchange      EXHF   =         0.00000000
  -V(xc)+E(xc)   XCENC  =     -1041.55466459
  PAW double counting   =     19173.66636267   -17754.23055155
  entropy T*S    EENTRO =         0.01928149
  eigenvalues    EBANDS =       196.40223408
  atomic energy  EATOM  =     12697.67401269
  ---------------------------------------------------
  free energy    TOTEN  =      -105.76344602 eV

  energy without entropy =     -105.78272751  energy(sigma->0) =     -105.76987318


--------------------------------------------------------------------------------------------------------




--------------------------------------- Iteration      1(  10)  ---------------------------------------


    POTLOK:  cpu time    0.3907: real time    0.3914
    SETDIJ:  cpu time    0.4942: real time    0.5050
    TRIAL :  cpu time    9.5198: real time    9.6024
    CORREC:  cpu time    3.5815: real time    3.5948
    CHARGE:  cpu time    1.1717: real time    1.1719
    --------------------------------------------
      LOOP:  cpu time   15.1615: real time   15.2704

 eigenvalue-minimisations  :     0
 total energy-change (2. order) :-0.2135790E+03  (-0.1187928E+02)
 number of electron     269.9999993 magnetization     -15.5257782
 augmentation part       86.8873844 magnetization     -10.5053799

 Free energy of the ion-electron system (eV)
  ---------------------------------------------------
  alpha Z        PSCENC =       798.38614055
  Ewald energy   TEWEN  =    -12901.57693327
  -Hartree energ DENC   =     -2122.53872272
  -exchange      EXHF   =         0.00000000
  -V(xc)+E(xc)   XCENC  =     -1012.02329240
  PAW double counting   =     20677.71917140   -19442.20510847
  entropy T*S    EENTRO =         0.01008737
  eigenvalues    EBANDS =       985.20302789
  atomic energy  EATOM  =     12697.67401269
  ---------------------------------------------------
  free energy    TOTEN  =      -319.34242286 eV

  energy without entropy =     -319.35251023  energy(sigma->0) =     -319.34578531


--------------------------------------------------------------------------------------------------------




--------------------------------------- Iteration      1(  11)  ---------------------------------------


    POTLOK:  cpu time    0.3916: real time    0.3917
    SETDIJ:  cpu time    0.5279: real time    0.5504
    TRIAL :  cpu time    9.5473: real time    9.5991
    CORREC:  cpu time    3.5543: real time    3.6263
    CHARGE:  cpu time    1.1844: real time    1.1846
    --------------------------------------------
      LOOP:  cpu time   15.2095: real time   15.3565

 eigenvalue-minimisations  :     0
 total energy-change (2. order) :-0.1135354E+02  (-0.1189685E+02)
 number of electron     269.9999993 magnetization     -15.5728630
 augmentation part       89.0856598 magnetization     -10.8726172

 Free energy of the ion-electron system (eV)
  ---------------------------------------------------
  alpha Z        PSCENC =       798.38614055
  Ewald energy   TEWEN  =    -12901.57693327
  -Hartree energ DENC   =     -2366.74648232
  -exchange      EXHF   =         0.00000000
  -V(xc)+E(xc)   XCENC  =     -1003.04958084
  PAW double counting   =     21615.90296003   -20420.26861641
  entropy T*S    EENTRO =         0.00852802
  eigenvalues    EBANDS =      1248.97244667
  atomic energy  EATOM  =     12697.67401269
  ---------------------------------------------------
  free energy    TOTEN  =      -330.69596551 eV

  energy without entropy =     -330.70449353  energy(sigma->0) =     -330.69880819


--------------------------------------------------------------------------------------------------------




--------------------------------------- Iteration      1(  12)  ---------------------------------------


    POTLOK:  cpu time    0.3925: real time    0.3924
    SETDIJ:  cpu time    0.5161: real time    0.5163
    TRIAL :  cpu time    9.8614: real time    9.8712
    CORREC:  cpu time    3.5807: real time    3.5963
    CHARGE:  cpu time    1.1689: real time    1.1689
    --------------------------------------------
      LOOP:  cpu time   15.5235: real time   15.5503

 eigenvalue-minimisations  :     0
 total energy-change (2. order) :-0.1189363E+02  (-0.1042840E+02)
 number of electron     269.9999993 magnetization     -15.8466512
 augmentation part       86.7517341 magnetization     -10.9752865

 Free energy of the ion-electron system (eV)
  ---------------------------------------------------
  alpha Z        PSCENC =       798.38614055
  Ewald energy   TEWEN  =    -12901.57693327
  -Hartree energ DENC   =     -2564.06427218
  -exchange      EXHF   =         0.00000000
  -V(xc)+E(xc)   XCENC  =      -996.56630428
  PAW double counting   =     21806.41646950   -20616.99932245
  entropy T*S    EENTRO =        -0.01303762
  eigenvalues    EBANDS =      1434.13208968
  atomic energy  EATOM  =     12697.67401269
  ---------------------------------------------------
  free energy    TOTEN  =      -342.58959175 eV

  energy without entropy =     -342.57655413  energy(sigma->0) =     -342.58524588


--------------------------------------------------------------------------------------------------------




--------------------------------------- Iteration      1(  13)  ---------------------------------------


    POTLOK:  cpu time    0.3926: real time    0.3930
    SETDIJ:  cpu time    0.4644: real time    0.4644
    TRIAL :  cpu time    9.5017: real time   10.3265
    CORREC:  cpu time    3.6208: real time    3.6459
    CHARGE:  cpu time    1.1695: real time    1.1697
    --------------------------------------------
      LOOP:  cpu time   15.1659: real time   16.0179

 eigenvalue-minimisations  :     0
 total energy-change (2. order) :-0.1031301E+02  (-0.9392370E+00)
 number of electron     269.9999993 magnetization     -16.1021778
 augmentation part       86.1203316 magnetization     -10.9568358

 Free energy of the ion-electron system (eV)
  ---------------------------------------------------
  alpha Z        PSCENC =       798.38614055
  Ewald energy   TEWEN  =    -12901.57693327
  -Hartree energ DENC   =     -2517.48776647
  -exchange      EXHF   =         0.00000000
  -V(xc)+E(xc)   XCENC  =      -999.05876026
  PAW double counting   =     21297.51661271   -20059.15636541
  entropy T*S    EENTRO =        -0.01573394
  eigenvalues    EBANDS =      1330.81349133
  atomic energy  EATOM  =     12697.67401269
  ---------------------------------------------------
  free energy    TOTEN  =      -352.90260575 eV

  energy without entropy =     -352.88687182  energy(sigma->0) =     -352.89736111


--------------------------------------------------------------------------------------------------------




--------------------------------------- Iteration      1(  14)  ---------------------------------------


    POTLOK:  cpu time    0.3920: real time    0.4364
    SETDIJ:  cpu time    0.4518: real time    0.4517
    TRIAL :  cpu time    9.5691: real time    9.6006
    CORREC:  cpu time    3.6032: real time    3.6995
    CHARGE:  cpu time    1.1689: real time    1.1690
    --------------------------------------------
      LOOP:  cpu time   15.1999: real time   15.3732

 eigenvalue-minimisations  :     0
 total energy-change (2. order) :-0.9333136E+00  (-0.1298996E+01)
 number of electron     269.9999993 magnetization     -16.0085496
 augmentation part       85.9563214 magnetization     -10.8328869

 Free energy of the ion-electron system (eV)
  ---------------------------------------------------
  alpha Z        PSCENC =       798.38614055
  Ewald energy   TEWEN  =    -12901.57693327
  -Hartree energ DENC   =     -2482.38591734
  -exchange      EXHF   =         0.00000000
  -V(xc)+E(xc)   XCENC  =     -1000.41469280
  PAW double counting   =     20875.19578068   -19626.37681259
  entropy T*S    EENTRO =        -0.01868656
  eigenvalues    EBANDS =      1285.67823670
  atomic energy  EATOM  =     12697.67401269
  ---------------------------------------------------
  free energy    TOTEN  =      -353.83591932 eV

  energy without entropy =     -353.81723276  energy(sigma->0) =     -353.82969047


--------------------------------------------------------------------------------------------------------




--------------------------------------- Iteration      1(  15)  ---------------------------------------


    POTLOK:  cpu time    0.3922: real time    0.3921
    SETDIJ:  cpu time    0.4818: real time    0.4820
    TRIAL :  cpu time    9.5185: real time    9.6390
    CORREC:  cpu time    3.5600: real time    3.5813
    CHARGE:  cpu time    1.1697: real time    1.1709
    --------------------------------------------
      LOOP:  cpu time   15.1291: real time   15.2724

 eigenvalue-minimisations  :     0
 total energy-change (2. order) :-0.1297556E+01  (-0.5670873E+00)
 number of electron     269.9999992 magnetization     -15.9755154
 augmentation part       86.7515109 magnetization     -10.8450880

 Free energy of the ion-electron system (eV)
  ---------------------------------------------------
  alpha Z        PSCENC =       798.38614055
  Ewald energy   TEWEN  =    -12901.57693327
  -Hartree energ DENC   =     -2459.07318797
  -exchange      EXHF   =         0.00000000
  -V(xc)+E(xc)   XCENC  =     -1001.45942446
  PAW double counting   =     20008.31156335   -18751.69863719
  entropy T*S    EENTRO =        -0.02309283
  eigenvalues    EBANDS =      1254.32167802
  atomic energy  EATOM  =     12697.67401269
  ---------------------------------------------------
  free energy    TOTEN  =      -355.13347483 eV

  energy without entropy =     -355.11038200  energy(sigma->0) =     -355.12577722


--------------------------------------------------------------------------------------------------------




--------------------------------------- Iteration      1(  16)  ---------------------------------------


    POTLOK:  cpu time    0.3921: real time    0.3924
    SETDIJ:  cpu time    0.4584: real time    0.4583
    TRIAL :  cpu time    9.5735: real time    9.5840
    CORREC:  cpu time    3.5785: real time    3.5939
    CHARGE:  cpu time    1.1114: real time    1.8934
    --------------------------------------------
      LOOP:  cpu time   15.1252: real time   15.9344

 eigenvalue-minimisations  :     0
 total energy-change (2. order) :-0.5690943E+00  (-0.2287695E+00)
 number of electron     269.9999992 magnetization     -16.0968776
 augmentation part       87.2070745 magnetization     -10.9296569

 Free energy of the ion-electron system (eV)
  ---------------------------------------------------
  alpha Z        PSCENC =       798.38614055
  Ewald energy   TEWEN  =    -12901.57693327
  -Hartree energ DENC   =     -2491.79082152
  -exchange      EXHF   =         0.00000000
  -V(xc)+E(xc)   XCENC  =     -1000.26014469
  PAW double counting   =     19690.88908103   -18440.78633742
  entropy T*S    EENTRO =        -0.02322458
  eigenvalues    EBANDS =      1291.78552637
  atomic energy  EATOM  =     12697.67401269
  ---------------------------------------------------
  free energy    TOTEN  =      -355.70256910 eV

  energy without entropy =     -355.67934452  energy(sigma->0) =     -355.69482757


--------------------------------------------------------------------------------------------------------




--------------------------------------- Iteration      1(  17)  ---------------------------------------


    POTLOK:  cpu time    0.3915: real time    0.3920
    SETDIJ:  cpu time    0.5029: real time    0.5028
    TRIAL :  cpu time    9.6167: real time    9.7163
    CORREC:  cpu time    3.6161: real time    3.6737
    CHARGE:  cpu time    1.1820: real time    1.1821
    --------------------------------------------
      LOOP:  cpu time   15.3104: real time   15.4691

 eigenvalue-minimisations  :     0
 total energy-change (2. order) :-0.2299031E+00  (-0.3568903E+00)
 number of electron     269.9999992 magnetization     -16.0628971
 augmentation part       87.2549952 magnetization     -11.0479078

 Free energy of the ion-electron system (eV)
  ---------------------------------------------------
  alpha Z        PSCENC =       798.38614055
  Ewald energy   TEWEN  =    -12901.57693327
  -Hartree energ DENC   =     -2511.92708819
  -exchange      EXHF   =         0.00000000
  -V(xc)+E(xc)   XCENC  =      -999.41197349
  PAW double counting   =     19593.08435752   -18347.43960916
  entropy T*S    EENTRO =        -0.02493486
  eigenvalues    EBANDS =      1315.30184569
  atomic energy  EATOM  =     12697.67401269
  ---------------------------------------------------
  free energy    TOTEN  =      -355.93247223 eV

  energy without entropy =     -355.90753737  energy(sigma->0) =     -355.92416061


--------------------------------------------------------------------------------------------------------




--------------------------------------- Iteration      1(  18)  ---------------------------------------


    POTLOK:  cpu time    0.3930: real time    0.3991
    SETDIJ:  cpu time    0.4395: real time    0.4630
    TRIAL :  cpu time    9.5592: real time    9.5788
    CORREC:  cpu time    3.5839: real time    3.6511
    CHARGE:  cpu time    1.1610: real time    1.1710
    --------------------------------------------
      LOOP:  cpu time   15.1405: real time   15.2678

 eigenvalue-minimisations  :     0
 total energy-change (2. order) :-0.3569094E+00  (-0.1254674E+00)
 number of electron     269.9999992 magnetization     -16.0915780
 augmentation part       86.9830908 magnetization     -11.1003394

 Free energy of the ion-electron system (eV)
  ---------------------------------------------------
  alpha Z        PSCENC =       798.38614055
  Ewald energy   TEWEN  =    -12901.57693327
  -Hartree energ DENC   =     -2509.78983042
  -exchange      EXHF   =         0.00000000
  -V(xc)+E(xc)   XCENC  =      -999.05917967
  PAW double counting   =     19466.84691025   -18221.54775884
  entropy T*S    EENTRO =        -0.02565614
  eigenvalues    EBANDS =      1312.80219192
  atomic energy  EATOM  =     12697.67401269
  ---------------------------------------------------
  free energy    TOTEN  =      -356.28938165 eV

  energy without entropy =     -356.26372551  energy(sigma->0) =     -356.28082960


--------------------------------------------------------------------------------------------------------




--------------------------------------- Iteration      1(  19)  ---------------------------------------


    POTLOK:  cpu time    0.3914: real time    0.3914
    SETDIJ:  cpu time    0.4795: real time    0.4796
    TRIAL :  cpu time    9.5358: real time    9.6413
    CORREC:  cpu time    3.5745: real time    3.5780
    CHARGE:  cpu time    1.1715: real time    1.1803
    --------------------------------------------
      LOOP:  cpu time   15.1588: real time   15.2778

 eigenvalue-minimisations  :     0
 total energy-change (2. order) :-0.1251703E+00  (-0.1155072E+00)
 number of electron     269.9999992 magnetization     -16.1801529
 augmentation part       86.7111675 magnetization     -11.1847168

 Free energy of the ion-electron system (eV)
  ---------------------------------------------------
  alpha Z        PSCENC =       798.38614055
  Ewald energy   TEWEN  =    -12901.57693327
  -Hartree energ DENC   =     -2495.25273858
  -exchange      EXHF   =         0.00000000
  -V(xc)+E(xc)   XCENC  =      -999.40398291
  PAW double counting   =     19423.92573248   -18175.73721432
  entropy T*S    EENTRO =        -0.02558238
  eigenvalues    EBANDS =      1295.59608756
  atomic energy  EATOM  =     12697.67401269
  ---------------------------------------------------
  free energy    TOTEN  =      -356.41455193 eV

  energy without entropy =     -356.38896955  energy(sigma->0) =     -356.40602447


--------------------------------------------------------------------------------------------------------




--------------------------------------- Iteration      1(  20)  ---------------------------------------


    POTLOK:  cpu time    0.3923: real time    0.3924
    SETDIJ:  cpu time    0.4579: real time    0.4579
    TRIAL :  cpu time    9.5613: real time    9.5748
    CORREC:  cpu time    3.6715: real time    4.3605
    CHARGE:  cpu time    1.1791: real time    1.1790
    --------------------------------------------
      LOOP:  cpu time   15.2709: real time   15.9744

 eigenvalue-minimisations  :     0
 total energy-change (2. order) :-0.1154929E+00  (-0.9643511E-01)
 number of electron     269.9999992 magnetization     -16.1997868
 augmentation part       86.7431078 magnetization     -11.2529908

 Free energy of the ion-electron system (eV)
  ---------------------------------------------------
  alpha Z        PSCENC =       798.38614055
  Ewald energy   TEWEN  =    -12901.57693327
  -Hartree energ DENC   =     -2484.55210594
  -exchange      EXHF   =         0.00000000
  -V(xc)+E(xc)   XCENC  =      -999.63034961
  PAW double counting   =     19408.68989766   -18157.99350841
  entropy T*S    EENTRO =        -0.02650992
  eigenvalues    EBANDS =      1282.49838388
  atomic energy  EATOM  =     12697.67401269
  ---------------------------------------------------
  free energy    TOTEN  =      -356.53004483 eV

  energy without entropy =     -356.50353491  energy(sigma->0) =     -356.52120819


--------------------------------------------------------------------------------------------------------




--------------------------------------- Iteration      1(  21)  ---------------------------------------


    POTLOK:  cpu time    0.3923: real time    0.3924
    SETDIJ:  cpu time    0.4580: real time    0.4580
    TRIAL :  cpu time    9.6241: real time    9.7375
    CORREC:  cpu time    3.5144: real time    3.6353
    CHARGE:  cpu time    1.1675: real time    1.1677
    --------------------------------------------
      LOOP:  cpu time   15.1607: real time   15.3964

 eigenvalue-minimisations  :     0
 total energy-change (2. order) :-0.9642699E-01  (-0.5851441E-01)
 number of electron     269.9999992 magnetization     -16.2495137
 augmentation part       86.9445484 magnetization     -11.3115778

 Free energy of the ion-electron system (eV)
  ---------------------------------------------------
  alpha Z        PSCENC =       798.38614055
  Ewald energy   TEWEN  =    -12901.57693327
  -Hartree energ DENC   =     -2490.05154194
  -exchange      EXHF   =         0.00000000
  -V(xc)+E(xc)   XCENC  =      -999.29159841
  PAW double counting   =     19431.33498492   -18181.55149655
  entropy T*S    EENTRO =        -0.02664962
  eigenvalues    EBANDS =      1288.47647012
  atomic energy  EATOM  =     12697.67401269
  ---------------------------------------------------
  free energy    TOTEN  =      -356.62647182 eV

  energy without entropy =     -356.59982220  energy(sigma->0) =     -356.61758861


--------------------------------------------------------------------------------------------------------




--------------------------------------- Iteration      1(  22)  ---------------------------------------


    POTLOK:  cpu time    0.3971: real time    0.4030
    SETDIJ:  cpu time    0.4563: real time    0.4565
    TRIAL :  cpu time    9.5937: real time    9.6669
    CORREC:  cpu time    3.5743: real time    3.5829
    CHARGE:  cpu time    1.1750: real time    1.1751
    --------------------------------------------
      LOOP:  cpu time   15.2125: real time   15.3014

 eigenvalue-minimisations  :     0
 total energy-change (2. order) :-0.5871907E-01  (-0.3252221E-01)
 number of electron     269.9999992 magnetization     -16.3183392
 augmentation part       86.9994667 magnetization     -11.3460397

 Free energy of the ion-electron system (eV)
  ---------------------------------------------------
  alpha Z        PSCENC =       798.38614055
  Ewald energy   TEWEN  =    -12901.57693327
  -Hartree energ DENC   =     -2503.01326102
  -exchange      EXHF   =         0.00000000
  -V(xc)+E(xc)   XCENC  =      -998.75328439
  PAW double counting   =     19462.55282346   -18215.29590932
  entropy T*S    EENTRO =        -0.02702097
  eigenvalues    EBANDS =      1303.36787003
  atomic energy  EATOM  =     12697.67401269
  ---------------------------------------------------
  free energy    TOTEN  =      -356.68519089 eV

  energy without entropy =     -356.65816992  energy(sigma->0) =     -356.67618390


--------------------------------------------------------------------------------------------------------




--------------------------------------- Iteration      1(  23)  ---------------------------------------


    POTLOK:  cpu time    0.3918: real time    0.3919
    SETDIJ:  cpu time    0.4962: real time    0.4962
    TRIAL :  cpu time    9.5118: real time    9.6340
    CORREC:  cpu time    3.5777: real time    3.5877
    CHARGE:  cpu time    1.1721: real time    1.1722
    --------------------------------------------
      LOOP:  cpu time   15.1666: real time   15.3002

 eigenvalue-minimisations  :     0
 total energy-change (2. order) :-0.3253278E-01  (-0.5072303E-01)
 number of electron     269.9999992 magnetization     -16.4064077
 augmentation part       86.9316870 magnetization     -11.4030588

 Free energy of the ion-electron system (eV)
  ---------------------------------------------------
  alpha Z        PSCENC =       798.38614055
  Ewald energy   TEWEN  =    -12901.57693327
  -Hartree energ DENC   =     -2506.47438544
  -exchange      EXHF   =         0.00000000
  -V(xc)+E(xc)   XCENC  =      -998.56472953
  PAW double counting   =     19468.87488557   -18222.21720326
  entropy T*S    EENTRO =        -0.02755020
  eigenvalues    EBANDS =      1307.20750999
  atomic energy  EATOM  =     12697.67401269
  ---------------------------------------------------
  free energy    TOTEN  =      -356.71772367 eV

  energy without entropy =     -356.69017347  energy(sigma->0) =     -356.70854027


--------------------------------------------------------------------------------------------------------




--------------------------------------- Iteration      1(  24)  ---------------------------------------


    POTLOK:  cpu time    0.3921: real time    0.3921
    SETDIJ:  cpu time    0.5069: real time    0.5072
    TRIAL :  cpu time    9.5567: real time    9.5719
    CORREC:  cpu time    3.7652: real time    4.4261
    CHARGE:  cpu time    1.1673: real time    1.1673
    --------------------------------------------
      LOOP:  cpu time   15.4013: real time   16.0789

 eigenvalue-minimisations  :     0
 total energy-change (2. order) :-0.5072033E-01  (-0.4332932E-01)
 number of electron     269.9999992 magnetization     -16.5658197
 augmentation part       86.8637955 magnetization     -11.5166390

 Free energy of the ion-electron system (eV)
  ---------------------------------------------------
  alpha Z        PSCENC =       798.38614055
  Ewald energy   TEWEN  =    -12901.57693327
  -Hartree energ DENC   =     -2502.84110143
  -exchange      EXHF   =         0.00000000
  -V(xc)+E(xc)   XCENC  =      -998.55096175
  PAW double counting   =     19462.89614531   -18215.25541879
  entropy T*S    EENTRO =        -0.02793009
  eigenvalues    EBANDS =      1302.52722289
  atomic energy  EATOM  =     12697.67401269
  ---------------------------------------------------
  free energy    TOTEN  =      -356.76844400 eV

  energy without entropy =     -356.74051391  energy(sigma->0) =     -356.75913397


--------------------------------------------------------------------------------------------------------




--------------------------------------- Iteration      1(  25)  ---------------------------------------


    POTLOK:  cpu time    0.3871: real time    0.4002
    SETDIJ:  cpu time    0.5067: real time    0.5068
    TRIAL :  cpu time    9.5855: real time    9.7274
    CORREC:  cpu time    3.5535: real time    3.5848
    CHARGE:  cpu time    1.1667: real time    1.1671
    --------------------------------------------
      LOOP:  cpu time   15.2203: real time   15.4080

 eigenvalue-minimisations  :     0
 total energy-change (2. order) :-0.4332034E-01  (-0.2740421E-01)
 number of electron     269.9999992 magnetization     -16.6678964
 augmentation part       86.9204159 magnetization     -11.6179533

 Free energy of the ion-electron system (eV)
  ---------------------------------------------------
  alpha Z        PSCENC =       798.38614055
  Ewald energy   TEWEN  =    -12901.57693327
[...]
   45       -0.025  -0.027  -2.386  -2.438
   46        0.013   0.019   2.270   2.303
   47       -0.019  -0.018  -2.377  -2.414
   48       -0.024  -0.027  -2.414  -2.465
   49        0.014   0.019   2.284   2.317
   50       -0.020  -0.018  -2.388  -2.425
   51       -0.024  -0.027  -2.412  -2.464
   52        0.020   0.014   2.386   2.421
   53       -0.012  -0.022  -2.202  -2.235
   54        0.029   0.024   2.255   2.309
--------------------------------------------------
tot          0.016   0.083 -17.296 -17.197
 
    FORLOC:  cpu time    0.0581: real time    0.0580
    FORNL :  cpu time   16.4922: real time   16.6120
    STRESS:  cpu time   24.3079: real time   24.5195
    FORCOR:  cpu time    0.4394: real time    0.4394
    OFIELD:  cpu time    0.0022: real time    0.0022

  FORCE on cell =-STRESS in cart. coord.  units (eV):
  Direction    XX          YY          ZZ          XY          YZ          ZX
  --------------------------------------------------------------------------------------
  Alpha Z   798.38614   798.38614   798.38614
  Ewald   -4053.61603 -4053.61603 -4794.40593    -0.00000    -0.00000    -0.00000
  Hartree  1084.82045  1084.82045   331.99302    -0.00000    -0.00000    -0.00000
  E(xc)   -1141.91588 -1141.91588 -1139.81769    -0.00000     0.00000     0.00000
  Local     367.85305   367.85305  1907.23201    -0.00000     0.00000     0.00000
  n-local  -172.14046  -169.64490  -175.48188     0.27443    -0.16729    -0.28685
  augment   785.11652   785.11652   766.94109     0.00000     0.00001     0.00001
  Kinetic  2328.50502  2344.02026  2307.41813    -2.39306    -1.68971    -1.74383
  Fock        0.00000     0.00000     0.00000     0.00000     0.00000     0.00000
  -------------------------------------------------------------------------------------
  Total       6.01421     6.01421     2.26490     0.00000     0.00000     0.00000
  in kB      13.57329    13.57329     5.11158     0.00000     0.00000     0.00000
  external pressure =       10.75 kB  Pullay stress =        0.00 kB


 VOLUME and BASIS-vectors are now :
 -----------------------------------------------------------------------------
  energy-cutoff  :      404.80
  volume of cell :      709.91
      direct lattice vectors                 reciprocal lattice vectors
     8.250148166  0.000000000  0.000000000     0.121209944  0.000000000  0.000000000
     0.000000000  8.250148166  0.000000000     0.000000000  0.121209944  0.000000000
     0.000000000  0.000000000 10.429911392     0.000000000  0.000000000  0.095878092

  length of vectors
     8.250148166  8.250148166 10.429911392     0.121209944  0.121209944  0.095878092


 FORCES acting on ions:
    Electron-Ion                     Ewald-Force                    Non-Local-Force
 -----------------------------------------------------------------------------------------------
   0.106E+00 0.106E+00 0.124E+00   -.239E-08 -.239E-08 -.210E-08   -.879E-01 -.879E-01 -.423E-01
   0.556E-02 0.556E-02 -.399E-01   -.239E-08 -.239E-08 0.171E-08   -.972E-02 -.972E-02 0.175E-01
   0.482E-02 0.482E-02 -.257E-01   -.239E-08 -.239E-08 0.861E-08   0.180E-01 0.180E-01 -.196E-01
   -.161E-01 0.373E-09 0.726E-01   -.239E-08 -.802E-09 -.210E-08   0.728E-02 0.108E-18 -.380E-01
   0.941E-02 0.373E-09 -.142E+00   -.239E-08 -.802E-09 0.171E-08   -.442E-02 -.108E-18 0.601E-01
   -.286E-01 0.373E-09 0.167E-01   -.239E-08 -.802E-09 0.861E-08   0.100E-02 -.678E-19 0.129E-01
   0.106E+00 -.106E+00 0.124E+00   -.239E-08 0.631E-08 -.210E-08   -.879E-01 0.879E-01 -.423E-01
   0.556E-02 -.556E-02 -.399E-01   -.239E-08 0.631E-08 0.171E-08   -.972E-02 0.972E-02 0.175E-01
   0.482E-02 -.482E-02 -.257E-01   -.239E-08 0.631E-08 0.861E-08   0.180E-01 -.180E-01 -.196E-01
   0.373E-09 -.161E-01 0.726E-01   -.802E-09 -.239E-08 -.210E-08   0.163E-18 0.728E-02 -.380E-01
   0.373E-09 0.941E-02 -.142E+00   -.802E-09 -.239E-08 0.171E-08   0.000E+00 -.442E-02 0.601E-01
   0.373E-09 -.286E-01 0.167E-01   -.803E-09 -.239E-08 0.861E-08   0.108E-18 0.100E-02 0.129E-01
   0.373E-09 0.373E-09 0.111E+00   -.802E-09 -.802E-09 -.210E-08   0.000E+00 -.136E-19 -.835E-01
   0.373E-09 0.373E-09 -.949E-01   -.802E-09 -.802E-09 0.171E-08   0.000E+00 0.000E+00 0.627E-01
   0.373E-09 0.373E-09 -.156E-01   -.803E-09 -.802E-09 0.861E-08   0.000E+00 0.847E-20 0.393E-01
   0.373E-09 0.161E-01 0.726E-01   -.802E-09 0.631E-08 -.210E-08   0.542E-19 -.728E-02 -.380E-01
   0.373E-09 -.941E-02 -.142E+00   -.802E-09 0.631E-08 0.171E-08   -.220E-19 0.442E-02 0.601E-01
   0.373E-09 0.286E-01 0.167E-01   -.803E-09 0.631E-08 0.861E-08   0.108E-18 -.100E-02 0.129E-01
   -.106E+00 0.106E+00 0.124E+00   0.631E-08 -.239E-08 -.210E-08   0.879E-01 -.879E-01 -.423E-01
   -.556E-02 0.556E-02 -.399E-01   0.631E-08 -.239E-08 0.171E-08   0.972E-02 -.972E-02 0.175E-01
   -.482E-02 0.482E-02 -.257E-01   0.631E-08 -.239E-08 0.861E-08   -.180E-01 0.180E-01 -.196E-01
   0.161E-01 0.373E-09 0.726E-01   0.631E-08 -.802E-09 -.210E-08   -.728E-02 0.000E+00 -.380E-01
   -.941E-02 0.373E-09 -.142E+00   0.631E-08 -.802E-09 0.171E-08   0.442E-02 0.000E+00 0.601E-01
   0.286E-01 0.373E-09 0.167E-01   0.631E-08 -.802E-09 0.861E-08   -.100E-02 0.136E-19 0.129E-01
   -.106E+00 -.106E+00 0.124E+00   0.631E-08 0.631E-08 -.210E-08   0.879E-01 0.879E-01 -.423E-01
   -.556E-02 -.556E-02 -.399E-01   0.631E-08 0.631E-08 0.171E-08   0.972E-02 0.972E-02 0.175E-01
   -.482E-02 -.482E-02 -.257E-01   0.631E-08 0.631E-08 0.861E-08   -.180E-01 -.180E-01 -.196E-01
   -.176E-01 -.176E-01 -.128E-01   -.169E-07 -.169E-07 -.180E-07   -.433E-02 -.433E-02 0.281E-02
   -.301E-01 -.301E-01 -.565E-01   -.169E-07 -.169E-07 -.170E-08   0.611E-01 0.611E-01 0.167E-03
   -.110E+00 -.110E+00 0.415E-01   -.169E-07 -.169E-07 0.115E-07   0.118E+00 0.118E+00 0.266E-01
   -.176E-01 0.176E-01 -.128E-01   -.169E-07 0.802E-09 -.180E-07   -.433E-02 0.433E-02 0.281E-02
   -.301E-01 0.301E-01 -.565E-01   -.169E-07 0.802E-09 -.170E-08   0.611E-01 -.611E-01 0.167E-03
   -.110E+00 0.110E+00 0.415E-01   -.169E-07 0.802E-09 0.115E-07   0.118E+00 -.118E+00 0.266E-01
   0.531E-01 -.605E-08 0.144E+00   -.169E-07 0.130E-07 -.180E-07   -.114E-01 -.217E-18 -.141E+00
   -.599E-01 -.605E-08 0.479E-01   -.169E-07 0.130E-07 -.170E-08   0.788E-02 0.651E-18 -.116E+00
   0.309E+00 -.605E-08 -.571E-01   -.169E-07 0.130E-07 0.115E-07   -.157E+00 0.000E+00 0.701E-01
   0.176E-01 -.176E-01 -.128E-01   0.802E-09 -.169E-07 -.180E-07   0.433E-02 -.433E-02 0.281E-02
   0.301E-01 -.301E-01 -.565E-01   0.802E-09 -.169E-07 -.170E-08   -.611E-01 0.611E-01 0.167E-03
   0.110E+00 -.110E+00 0.415E-01   0.802E-09 -.169E-07 0.115E-07   -.118E+00 0.118E+00 0.266E-01
   0.176E-01 0.176E-01 -.128E-01   0.802E-09 0.802E-09 -.180E-07   0.433E-02 0.433E-02 0.281E-02
   0.301E-01 0.301E-01 -.565E-01   0.802E-09 0.802E-09 -.170E-08   -.611E-01 -.611E-01 0.167E-03
   0.110E+00 0.110E+00 0.415E-01   0.802E-09 0.802E-09 0.115E-07   -.118E+00 -.118E+00 0.266E-01
   -.531E-01 -.605E-08 0.144E+00   0.802E-09 0.130E-07 -.180E-07   0.114E-01 0.217E-18 -.141E+00
   0.599E-01 -.605E-08 0.479E-01   0.802E-09 0.130E-07 -.170E-08   -.788E-02 0.000E+00 -.116E+00
   -.309E+00 -.605E-08 -.571E-01   0.802E-09 0.130E-07 0.115E-07   0.157E+00 -.217E-18 0.701E-01
   -.605E-08 0.531E-01 0.144E+00   0.130E-07 -.169E-07 -.180E-07   -.217E-18 -.114E-01 -.141E+00
   -.605E-08 -.599E-01 0.479E-01   0.130E-07 -.169E-07 -.170E-08   0.217E-18 0.788E-02 -.116E+00
   -.605E-08 0.309E+00 -.571E-01   0.130E-07 -.169E-07 0.115E-07   0.217E-18 -.157E+00 0.701E-01
   -.605E-08 -.531E-01 0.144E+00   0.130E-07 0.802E-09 -.180E-07   0.217E-18 0.114E-01 -.141E+00
   -.605E-08 0.599E-01 0.479E-01   0.130E-07 0.802E-09 -.170E-08   0.000E+00 -.788E-02 -.116E+00
   -.605E-08 -.309E+00 -.571E-01   0.130E-07 0.802E-09 0.115E-07   -.867E-18 0.157E+00 0.701E-01
   -.605E-08 -.605E-08 -.266E+00   0.130E-07 0.130E-07 -.180E-07   0.000E+00 -.813E-19 0.411E+00
   -.605E-08 -.605E-08 -.258E+00   0.130E-07 0.130E-07 -.170E-08   -.867E-18 -.347E-17 0.256E+00
   -.605E-08 -.605E-08 0.281E+00   0.130E-07 0.130E-07 0.115E-07   0.000E+00 0.000E+00 -.246E+00
 -----------------------------------------------------------------------------------------------
   -.361E-07 -.361E-07 0.226E+00   -.614E-13 -.142E-13 0.128E-13   -.291E-16 0.520E-16 -.226E+00
 
 
 POSITION                                       TOTAL-FORCE (eV/Angst)
 -----------------------------------------------------------------------------------
      0.00000      0.00000      0.00000         0.025906      0.025906      0.084595
      0.00000      0.00000      3.47664        -0.003366     -0.003366     -0.023691
      0.00000      0.00000      6.95327         0.020731      0.020731     -0.042405
      0.00000      2.75005      0.00000        -0.009884      0.000000      0.037696
      0.00000      2.75005      3.47664         0.005307      0.000000     -0.087556
      0.00000      2.75005      6.95327        -0.028237     -0.000000      0.028880
      0.00000      5.50010      0.00000         0.025906     -0.025906      0.084595
      0.00000      5.50010      3.47664        -0.003366      0.003366     -0.023691
      0.00000      5.50010      6.95327         0.020731     -0.020731     -0.042405
      2.75005      0.00000      0.00000        -0.000000     -0.009884      0.037696
      2.75005      0.00000      3.47664        -0.000000      0.005307     -0.087556
      2.75005      0.00000      6.95327        -0.000000     -0.028237      0.028880
      2.75005      2.75005      0.00000        -0.000000      0.000000      0.035318
      2.75005      2.75005      3.47664        -0.000000      0.000000     -0.037355
      2.75005      2.75005      6.95327        -0.000000      0.000000      0.020423
      2.75005      5.50010      0.00000        -0.000000      0.009884      0.037696
      2.75005      5.50010      3.47664        -0.000000     -0.005307     -0.087556
      2.75005      5.50010      6.95327        -0.000000      0.028237      0.028880
      5.50010      0.00000      0.00000        -0.025906      0.025906      0.084595
      5.50010      0.00000      3.47664         0.003366     -0.003366     -0.023691
      5.50010      0.00000      6.95327        -0.020731      0.020731     -0.042405
      5.50010      2.75005      0.00000         0.009884      0.000000      0.037696
      5.50010      2.75005      3.47664        -0.005307      0.000000     -0.087556
      5.50010      2.75005      6.95327         0.028237     -0.000000      0.028880
      5.50010      5.50010      0.00000        -0.025906     -0.025906      0.084595
      5.50010      5.50010      3.47664         0.003366      0.003366     -0.023691
      5.50010      5.50010      6.95327        -0.020731     -0.020731     -0.042405
      1.37502      1.37502      1.73832        -0.022162     -0.022162     -0.011601
      1.37502      1.37502      5.21496         0.030460      0.030460     -0.048778
      1.37502      1.37502      8.69159         0.005585      0.005585      0.060345
      1.37502      4.12507      1.73832        -0.022162      0.022162     -0.011601
      1.37502      4.12507      5.21496         0.030460     -0.030460     -0.048778
      1.37502      4.12507      8.69159         0.005585     -0.005585      0.060345
      1.37502      6.87512      1.73832         0.040867      0.000000      0.006494
      1.37502      6.87512      5.21496        -0.049987      0.000000     -0.059023
      1.37502      6.87512      8.69159         0.156012     -0.000000      0.007752
      4.12507      1.37502      1.73832         0.022162     -0.022162     -0.011601
      4.12507      1.37502      5.21496        -0.030460      0.030460     -0.048778
      4.12507      1.37502      8.69159        -0.005585      0.005585      0.060345
      4.12507      4.12507      1.73832         0.022162      0.022162     -0.011601
      4.12507      4.12507      5.21496        -0.030460     -0.030460     -0.048778
      4.12507      4.12507      8.69159        -0.005585     -0.005585      0.060345
      4.12507      6.87512      1.73832        -0.040867      0.000000      0.006494
      4.12507      6.87512      5.21496         0.049987      0.000000     -0.059023
      4.12507      6.87512      8.69159        -0.156012     -0.000000      0.007752
      6.87512      1.37502      1.73832        -0.000000      0.040867      0.006494
      6.87512      1.37502      5.21496        -0.000000     -0.049987     -0.059023
      6.87512      1.37502      8.69159        -0.000000      0.156012      0.007752
      6.87512      4.12507      1.73832        -0.000000     -0.040867      0.006494
      6.87512      4.12507      5.21496        -0.000000      0.049987     -0.059023
      6.87512      4.12507      8.69159        -0.000000     -0.156012      0.007752
      6.87512      6.87512      1.73832        -0.000000      0.000000      0.137005
      6.87512      6.87512      5.21496        -0.000000     -0.000000     -0.007238
      6.87512      6.87512      8.69159        -0.000000      0.000000      0.041015
 -----------------------------------------------------------------------------------
    total drift:                               -0.000000     -0.000000     -0.000055


--------------------------------------------------------------------------------------------------------



  FREE ENERGIE OF THE ION-ELECTRON SYSTEM (eV)
  ---------------------------------------------------
  free  energy   TOTEN  =      -356.94602938 eV

  energy  without entropy=     -356.91487253  energy(sigma->0) =     -356.93564377
 


--------------------------------------------------------------------------------------------------------


    POTLOK:  cpu time    0.9295: real time    0.9295


--------------------------------------------------------------------------------------------------------


     LOOP+:  cpu time 1496.4739: real time 1518.0149
    4ORBIT:  cpu time    0.0000: real time    0.0000
 


 total charge     
 
# of ion       s       p       d       tot
------------------------------------------
    1        0.406   0.428   0.000   0.834
    2        0.405   0.427   0.000   0.832
    3        0.404   0.429   0.000   0.834
    4        0.405   0.427   0.000   0.832
    5        0.405   0.427   0.000   0.832
    6        0.404   0.429   0.000   0.833
    7        0.406   0.428   0.000   0.834
    8        0.405   0.427   0.000   0.832
    9        0.404   0.430   0.000   0.834
   10        0.405   0.426   0.000   0.832
   11        0.405   0.427   0.000   0.833
   12        0.404   0.429   0.000   0.833
   13        0.405   0.427   0.000   0.832
   14        0.405   0.428   0.000   0.833
   15        0.404   0.429   0.000   0.833
   16        0.405   0.426   0.000   0.832
   17        0.405   0.427   0.000   0.833
   18        0.404   0.429   0.000   0.833
   19        0.405   0.428   0.000   0.834
   20        0.405   0.427   0.000   0.832
   21        0.404   0.430   0.000   0.834
   22        0.405   0.427   0.000   0.832
   23        0.405   0.427   0.000   0.832
   24        0.404   0.429   0.000   0.833
   25        0.405   0.429   0.000   0.834
   26        0.405   0.427   0.000   0.832
   27        0.404   0.430   0.000   0.834
   28        0.335   0.350   5.139   5.824
   29        0.333   0.351   5.139   5.823
   30        0.332   0.352   5.141   5.825
   31        0.335   0.350   5.138   5.823
   32        0.333   0.352   5.133   5.818
   33        0.332   0.352   5.133   5.817
   34        0.334   0.352   5.142   5.829
   35        0.333   0.350   5.147   5.829
   36        0.334   0.354   5.154   5.842
   37        0.334   0.351   5.135   5.820
   38        0.334   0.352   5.137   5.822
   39        0.332   0.352   5.135   5.819
   40        0.335   0.350   5.132   5.816
   41        0.333   0.351   5.133   5.818
   42        0.332   0.352   5.141   5.825
   43        0.334   0.353   5.129   5.816
   44        0.333   0.350   5.133   5.816
   45        0.334   0.354   5.156   5.844
   46        0.334   0.352   5.135   5.820
   47        0.333   0.350   5.138   5.821
   48        0.333   0.358   5.099   5.790
   49        0.334   0.352   5.127   5.813
   50        0.333   0.351   5.132   5.816
   51        0.333   0.358   5.098   5.789
   52        0.335   0.348   5.138   5.821
   53        0.331   0.353   5.136   5.820
   54        0.333   0.352   5.139   5.825
--------------------------------------------------
tot         19.933  21.056 138.640 179.628
 


 magnetization (x)
 
# of ion       s       p       d       tot
------------------------------------------
    1       -0.004  -0.010   0.000  -0.014
    2        0.000  -0.001   0.000  -0.001
    3        0.017   0.030   0.000   0.047
    4       -0.001  -0.003   0.000  -0.004
    5        0.000   0.000   0.000   0.000
    6        0.021   0.036   0.000   0.057
    7       -0.004  -0.009   0.000  -0.014
    8        0.000  -0.002   0.000  -0.002
    9        0.017   0.030   0.000   0.047
   10       -0.001  -0.002   0.000  -0.002
   11        0.000   0.000   0.000   0.000
   12        0.022   0.037   0.000   0.059
   13        0.000  -0.001   0.000  -0.001
   14        0.000  -0.002   0.000  -0.002
   15        0.023   0.039   0.000   0.061
   16       -0.001  -0.002   0.000  -0.003
   17       -0.000   0.001   0.000   0.001
   18        0.022   0.037   0.000   0.058
   19       -0.004  -0.009   0.000  -0.014
   20        0.000  -0.002   0.000  -0.002
   21        0.017   0.030   0.000   0.047
   22       -0.001  -0.003   0.000  -0.004
   23        0.000   0.000   0.000   0.000
   24        0.021   0.036   0.000   0.057
   25       -0.004  -0.009   0.000  -0.013
   26       -0.000  -0.001   0.000  -0.001
   27        0.017   0.029   0.000   0.046
   28        0.016   0.016   2.294   2.325
   29       -0.017  -0.021  -2.369  -2.407
   30       -0.014  -0.015  -2.352  -2.381
   31        0.016   0.016   2.294   2.326
   32       -0.017  -0.021  -2.375  -2.413
   33       -0.014  -0.014  -2.353  -2.381
   34        0.014   0.020   2.270   2.304
   35       -0.019  -0.018  -2.375  -2.411
   36       -0.025  -0.026  -2.388  -2.439
   37        0.016   0.016   2.294   2.326
   38       -0.017  -0.021  -2.372  -2.410
   39       -0.014  -0.015  -2.351  -2.380
   40        0.016   0.016   2.303   2.335
   41       -0.017  -0.022  -2.378  -2.416
   42       -0.014  -0.015  -2.352  -2.381
   43        0.014   0.020   2.288   2.322
   44       -0.019  -0.017  -2.393  -2.429
   45       -0.025  -0.027  -2.386  -2.438
   46        0.013   0.019   2.270   2.303
   47       -0.019  -0.018  -2.377  -2.414
   48       -0.024  -0.027  -2.414  -2.465
   49        0.014   0.019   2.284   2.317
   50       -0.020  -0.018  -2.388  -2.425
   51       -0.024  -0.027  -2.412  -2.464
   52        0.020   0.014   2.386   2.421
   53       -0.012  -0.022  -2.202  -2.235
   54        0.029   0.024   2.255   2.309
--------------------------------------------------
tot          0.016   0.083 -17.296 -17.197
 

 total amount of memory used by VASP MPI-rank0   566378. kBytes
=======================================================================

   base      :      30000. kBytes
   nonl-proj :      19946. kBytes
   fftplans  :      31580. kBytes
   grid      :      21385. kBytes
   one-center:        435. kBytes
   wavefun   :     463032. kBytes
 
  
  
 General timing and accounting informations for this job:
 ========================================================
  
                  Total CPU time used (sec):     1516.832
                            User time (sec):     1493.513
                          System time (sec):       23.319
                         Elapsed time (sec):     1542.563
  
                   Maximum memory used (kb):      716028.
                   Average memory used (kb):           0.
  
                          Minor page faults:       794033
                          Major page faults:           16
                 Voluntary context switches:         3533
