 vasp.5.4.4.18Apr17-6-g9f103f2a35 (build Dec 20 2018 12:05:58) complex          
  
 executed on             LinuxIFC date 2019.06.20  21:14:37
 running on   32 total cores
 distrk:  each k-point on    8 cores,    4 groups
 distr:  one band on NCORES_PER_BAND=   4 cores,    2 groups


--------------------------------------------------------------------------------------------------------


 INCAR:
 POTCAR:    PAW_PBE Al 04Jan2001                  
 POTCAR:    PAW_PBE Mn 06Sep2000                  

 ----------------------------------------------------------------------------- 
|                                                                             |
|           W    W    AA    RRRRR   N    N  II  N    N   GGGG   !!!           |
|           W    W   A  A   R    R  NN   N  II  NN   N  G    G  !!!           |
|           W    W  A    A  R    R  N N  N  II  N N  N  G       !!!           |
|           W WW W  AAAAAA  RRRRR   N  N N  II  N  N N  G  GGG   !            |
|           WW  WW  A    A  R   R   N   NN  II  N   NN  G    G                |
|           W    W  A    A  R    R  N    N  II  N    N   GGGG   !!!           |
|                                                                             |
|      You have enabled k-point parallelism (KPAR>1).                         |
|      This developmental code was originally  written by Paul Kent at ORNL,  |
|      and carefully double checked in Vienna.                                |
|      GW as well as linear response parallelism added by Martijn Marsman     |
|      and Georg Kresse.                                                      |
|      Carefully verify results versus KPAR=1.                                |
|      Report problems to Paul Kent and Vienna.                               |
|                                                                             |
 ----------------------------------------------------------------------------- 

 POTCAR:    PAW_PBE Al 04Jan2001                  
   VRHFIN =Al: s2p1                                                             
   LEXCH  = PE                                                                  
   EATOM  =    53.5387 eV,    3.9350 Ry                                         
                                                                                
   TITEL  = PAW_PBE Al 04Jan2001                                                
   LULTRA =        F    use ultrasoft PP ?                                      
   IUNSCR =        1    unscreen: 0-lin 1-nonlin 2-no                           
   RPACOR =    1.500    partial core radius                                     
   POMASS =   26.981; ZVAL   =    3.000    mass and valenz                      
   RCORE  =    1.900    outmost cutoff radius                                   
   RWIGS  =    2.650; RWIGS  =    1.402    wigner-seitz radius (au A)           
   ENMAX  =  240.300; ENMIN  =  180.225 eV                                      
   ICORE  =        2    local potential                                         
   LCOR   =        T    correct aug charges                                     
   LPAW   =        T    paw PP                                                  
   EAUG   =  291.052                                                            
   DEXC   =    0.000                                                            
   RMAX   =    1.939    core radius for proj-oper                               
   RAUG   =    1.300    factor for augmentation sphere                          
   RDEP   =    1.966    radius for radial grids                                 
   RDEPT  =    1.856    core radius for aug-charge                              
                                                                                
   Atomic configuration                                                         
    6 entries                                                                   
     n  l   j            E        occ.                                          
     1  0  0.50     -1511.1048   2.0000                                         
     2  0  0.50      -108.1629   2.0000                                         
     2  1  1.50       -69.6402   6.0000                                         
     3  0  0.50        -7.7528   2.0000                                         
     3  1  1.50        -2.7121   1.0000                                         
     3  2  2.50        -2.7212   0.0000                                         
   Description                                                                  
     l       E           TYP  RCUT    TYP  RCUT                                 
     0     -7.7528455     23  1.900                                             
     0     -3.3096929     23  1.900                                             
     1     -2.7120682     23  1.900                                             
     1     13.6058260     23  1.900                                             
     2     -2.7211652      7  1.900                                             
  local pseudopotential read in
  partial core-charges read in
  partial kinetic energy density read in
  atomic valenz-charges read in
  non local Contribution for L=           0  read in
    real space projection operators read in
  non local Contribution for L=           0  read in
    real space projection operators read in
  non local Contribution for L=           1  read in
    real space projection operators read in
  non local Contribution for L=           1  read in
    real space projection operators read in
    PAW grid and wavefunctions read in
 
   number of l-projection  operators is LMAX  =           4
   number of lm-projection operators is LMMAX =           8
 
 POTCAR:    PAW_PBE Mn 06Sep2000                  
   VRHFIN =Mn: d6 s1                                                            
   LEXCH  = PE                                                                  
   EATOM  =   416.7541 eV,   30.6306 Ry                                         
                                                                                
   TITEL  = PAW_PBE Mn 06Sep2000                                                
   LULTRA =        F    use ultrasoft PP ?                                      
   IUNSCR =        1    unscreen: 0-lin 1-nonlin 2-no                           
   RPACOR =    2.000    partial core radius                                     
   POMASS =   54.938; ZVAL   =    7.000    mass and valenz                      
   RCORE  =    2.300    outmost cutoff radius                                   
   RWIGS  =    2.500; RWIGS  =    1.323    wigner-seitz radius (au A)           
   ENMAX  =  269.864; ENMIN  =  202.398 eV                                      
   RCLOC  =    1.725    cutoff for local pot                                    
   LCOR   =        T    correct aug charges                                     
   LPAW   =        T    paw PP                                                  
   EAUG   =  500.711                                                            
   DEXC   =    0.000                                                            
   RMAX   =    2.343    core radius for proj-oper                               
   RAUG   =    1.300    factor for augmentation sphere                          
   RDEP   =    2.338    radius for radial grids                                 
   RDEPT  =    1.911    core radius for aug-charge                              
                                                                                
   Atomic configuration                                                         
    9 entries                                                                   
     n  l   j            E        occ.                                          
     1  0  0.50     -6424.8288   2.0000                                         
     2  0  0.50      -739.1154   2.0000                                         
     2  1  1.50      -625.3949   6.0000                                         
     3  0  0.50       -81.6100   2.0000                                         
     3  1  1.50       -50.4667   6.0000                                         
     3  2  2.50        -3.3745   6.0000                                         
     4  0  0.50        -4.1331   1.0000                                         
     4  1  0.50        -4.0817   0.0000                                         
     4  3  2.50        -1.3606   0.0000                                         
   Description                                                                  
     l       E           TYP  RCUT    TYP  RCUT                                 
     2     -3.3744664     23  2.300                                             
     2     -4.7350490     23  2.300                                             
     0     -4.1331408     23  2.300                                             
     0      7.6656614     23  2.300                                             
     1     -2.7211652     23  2.300                                             
     1     20.4087390     23  2.300                                             
  local pseudopotential read in
  partial core-charges read in
  partial kinetic energy density read in
  atomic valenz-charges read in
  non local Contribution for L=           2  read in
    real space projection operators read in
  non local Contribution for L=           2  read in
    real space projection operators read in
  non local Contribution for L=           0  read in
    real space projection operators read in
  non local Contribution for L=           0  read in
    real space projection operators read in
  non local Contribution for L=           1  read in
    real space projection operators read in
  non local Contribution for L=           1  read in
    real space projection operators read in
    PAW grid and wavefunctions read in
 
   number of l-projection  operators is LMAX  =           6
   number of lm-projection operators is LMMAX =          18
 

 ----------------------------------------------------------------------------- 
|                                                                             |
|  ADVICE TO THIS USER RUNNING 'VASP/VAMP'   (HEAR YOUR MASTER'S VOICE ...):  |
|                                                                             |
|      You have a (more or less) 'large supercell' and for larger cells       |
|      it might be more efficient to use real space projection opertators     |
|      So try LREAL= Auto  in the INCAR   file.                               |
|      Mind:          For very  accurate calculation you might also keep the  |
|      reciprocal projection scheme          (i.e. LREAL=.FALSE.)             |
|                                                                             |
 ----------------------------------------------------------------------------- 

  PAW_PBE Al 04Jan2001                  :
 energy of atom  1       EATOM=  -53.5387
 kinetic energy error for atom=    0.0005 (will be added to EATOM!!)
  PAW_PBE Mn 06Sep2000                  :
 energy of atom  2       EATOM= -416.7541
 kinetic energy error for atom=    0.0080 (will be added to EATOM!!)
 
 
 POSCAR: NewRef: 27, @ ['Mn', array([1.37502469, 
  positions in cartesian coordinates
  velocities in cartesian coordinates
  No initial velocities read in
 exchange correlation table for  LEXCH =        8
   RHO(1)=    0.500       N(1)  =     2000
   RHO(2)=  100.500       N(2)  =     4000
 


--------------------------------------------------------------------------------------------------------


 ion  position               nearest neighbor table
   1  0.000  0.000  0.000-  28 2.61  30 2.61  34 2.61  36 2.61  46 2.61  48 2.61  52 2.61  54 2.61
                             4 2.75  10 2.75   7 2.75  19 2.75
   2  0.000  0.000  0.333-  28 2.61  34 2.61  46 2.61  52 2.61  29 2.61  47 2.61  35 2.61  53 2.61
                             5 2.75  11 2.75   8 2.75  20 2.75
   3  0.000  0.000  0.667-  29 2.61  35 2.61  47 2.61  53 2.61  30 2.61  48 2.61  36 2.61  54 2.61
                             6 2.75  12 2.75   9 2.75  21 2.75
   4  0.000  0.333  0.000-  28 2.61  30 2.61  46 2.61  48 2.61  31 2.61  33 2.61  49 2.61  51 2.61
                            13 2.75   1 2.75   7 2.75  22 2.75
   5  0.000  0.333  0.333-  28 2.61  46 2.61  31 2.61  49 2.61  47 2.61  29 2.61  32 2.61  50 2.61
                            14 2.75   2 2.75   8 2.75  23 2.75
   6  0.000  0.333  0.667-  29 2.61  47 2.61  32 2.61  50 2.61  48 2.61  30 2.61  33 2.61  51 2.61
                            15 2.75   3 2.75   9 2.75  24 2.75
   7  0.000  0.667  0.000-  31 2.61  33 2.61  49 2.61  51 2.61  34 2.61  36 2.61  52 2.61  54 2.61
                             4 2.75  16 2.75   1 2.75  25 2.75
   8  0.000  0.667  0.333-  31 2.61  49 2.61  34 2.61  52 2.61  50 2.61  32 2.61  35 2.61  53 2.61
                             5 2.75  17 2.75   2 2.75  26 2.75
   9  0.000  0.667  0.667-  32 2.61  50 2.61  35 2.61  53 2.61  51 2.61  33 2.61  36 2.61  54 2.61
                             6 2.75  18 2.75   3 2.75  27 2.75
  10  0.333  0.000  0.000-  28 2.61  30 2.61  34 2.61  36 2.61  37 2.61  39 2.61  43 2.61  45 2.61
                            19 2.75   1 2.75  13 2.75  16 2.75
  11  0.333  0.000  0.333-  28 2.61  34 2.61  37 2.61  43 2.61  29 2.61  35 2.61  38 2.61  44 2.61
                            20 2.75   2 2.75  14 2.75  17 2.75
  12  0.333  0.000  0.667-  29 2.61  35 2.61  38 2.61  44 2.61  30 2.61  36 2.61  39 2.61  45 2.61
                            21 2.75   3 2.75  15 2.75  18 2.75
  13  0.333  0.333  0.000-  28 2.61  30 2.61  31 2.61  33 2.61  37 2.61  39 2.61  40 2.61  42 2.61
                             4 2.75  10 2.75  16 2.75  22 2.75
  14  0.333  0.333  0.333-  28 2.61  31 2.61  37 2.61  29 2.61  40 2.61  38 2.61  32 2.61  41 2.61
                             5 2.75  11 2.75  17 2.75  23 2.75
  15  0.333  0.333  0.667-  29 2.61  32 2.61  38 2.61  30 2.61  41 2.61  39 2.61  33 2.61  42 2.61
                             6 2.75  12 2.75  18 2.75  24 2.75
  16  0.333  0.667  0.000-  31 2.61  33 2.61  34 2.61  36 2.61  40 2.61  42 2.61  43 2.61  45 2.61
                            25 2.75   7 2.75  13 2.75  10 2.75
  17  0.333  0.667  0.333-  31 2.61  34 2.61  40 2.61  32 2.61  43 2.61  41 2.61  35 2.61  44 2.61
                            26 2.75   8 2.75  14 2.75  11 2.75
  18  0.333  0.667  0.667-  32 2.61  35 2.61  41 2.61  33 2.61  44 2.61  42 2.61  36 2.61  45 2.61
                            27 2.75   9 2.75  15 2.75  12 2.75
  19  0.667  0.000  0.000-  37 2.61  39 2.61  43 2.61  45 2.61  46 2.61  48 2.61  52 2.61  54 2.61
                            10 2.75  22 2.75   1 2.75  25 2.75
  20  0.667  0.000  0.333-  37 2.61  43 2.61  46 2.61  52 2.61  38 2.61  44 2.61  47 2.61  53 2.61
                            11 2.75  23 2.75   2 2.75  26 2.75
  21  0.667  0.000  0.667-  38 2.61  44 2.61  47 2.61  53 2.61  39 2.61  45 2.61  48 2.61  54 2.61
                            12 2.75  24 2.75   3 2.75  27 2.75
  22  0.667  0.333  0.000-  37 2.61  39 2.61  40 2.61  42 2.61  46 2.61  48 2.61  49 2.61  51 2.61
                            25 2.75  13 2.75  19 2.75   4 2.75
  23  0.667  0.333  0.333-  37 2.61  40 2.61  46 2.61  38 2.61  49 2.61  47 2.61  41 2.61  50 2.61
                            26 2.75  14 2.75  20 2.75   5 2.75
  24  0.667  0.333  0.667-  38 2.61  41 2.61  47 2.61  39 2.61  50 2.61  48 2.61  42 2.61  51 2.61
                            27 2.75  15 2.75  21 2.75   6 2.75
  25  0.667  0.667  0.000-  40 2.61  42 2.61  43 2.61  45 2.61  49 2.61  51 2.61  52 2.61  54 2.61
                            16 2.75  22 2.75  19 2.75   7 2.75
  26  0.667  0.667  0.333-  40 2.61  43 2.61  49 2.61  41 2.61  52 2.61  50 2.61  44 2.61  53 2.61
                            17 2.75  23 2.75  20 2.75   8 2.75
  27  0.667  0.667  0.667-  41 2.61  44 2.61  50 2.61  42 2.61  53 2.61  51 2.61  45 2.61  54 2.61
                            18 2.75  24 2.75  21 2.75   9 2.75
  28  0.167  0.167  0.167-  14 2.61  11 2.61   5 2.61  13 2.61   2 2.61  10 2.61   4 2.61   1 2.61
                            31 2.75  37 2.75  34 2.75  46 2.75
  29  0.167  0.167  0.500-  15 2.61  12 2.61   6 2.61  14 2.61   3 2.61  11 2.61   5 2.61   2 2.61
                            32 2.75  38 2.75  35 2.75  47 2.75
  30  0.167  0.167  0.833-  13 2.61  15 2.61  10 2.61  12 2.61   4 2.61   6 2.61   1 2.61   3 2.61
                            33 2.75  39 2.75  36 2.75  48 2.75
  31  0.167  0.500  0.167-  17 2.61  14 2.61   8 2.61  16 2.61   5 2.61  13 2.61   7 2.61   4 2.61
                            28 2.75  34 2.75  40 2.75  49 2.75
  32  0.167  0.500  0.500-  18 2.61  15 2.61   9 2.61  17 2.61   6 2.61  14 2.61   8 2.61   5 2.61
                            29 2.75  35 2.75  41 2.75  50 2.75
  33  0.167  0.500  0.833-  16 2.61  18 2.61  13 2.61  15 2.61   7 2.61   9 2.61   4 2.61   6 2.61
                            30 2.75  36 2.75  42 2.75  51 2.75
  34  0.167  0.833  0.167-  11 2.61  17 2.61   2 2.61   8 2.61  16 2.61  10 2.61   7 2.61   1 2.61
                            31 2.75  43 2.75  28 2.75  52 2.75
  35  0.167  0.833  0.500-  12 2.61  18 2.61   3 2.61   9 2.61  17 2.61  11 2.61   8 2.61   2 2.61
                            32 2.75  44 2.75  29 2.75  53 2.75
  36  0.167  0.833  0.833-  10 2.61  12 2.61  16 2.61  18 2.61   1 2.61   3 2.61   7 2.61   9 2.61
                            33 2.75  45 2.75  30 2.75  54 2.75
  37  0.500  0.167  0.167-  23 2.61  20 2.61  14 2.61  22 2.61  11 2.61  19 2.61  13 2.61  10 2.61
                            28 2.75  40 2.75  46 2.75  43 2.75
  38  0.500  0.167  0.500-  24 2.61  21 2.61  15 2.61  23 2.61  12 2.61  20 2.61  14 2.61  11 2.61
                            29 2.75  41 2.75  47 2.75  44 2.75
  39  0.500  0.167  0.833-  22 2.61  24 2.61  19 2.61  21 2.61  13 2.61  15 2.61  10 2.61  12 2.61
                            30 2.75  42 2.75  48 2.75  45 2.75
  40  0.500  0.500  0.167-  26 2.61  23 2.61  17 2.61  25 2.61  14 2.61  22 2.61  16 2.61  13 2.61
                            31 2.75  37 2.75  43 2.75  49 2.75
  41  0.500  0.500  0.500-  27 2.61  24 2.61  18 2.61  26 2.61  15 2.61  23 2.61  17 2.61  14 2.61
                            32 2.75  38 2.75  44 2.75  50 2.75
  42  0.500  0.500  0.833-  25 2.61  27 2.61  22 2.61  24 2.61  16 2.61  18 2.61  13 2.61  15 2.61
                            33 2.75  39 2.75  45 2.75  51 2.75
  43  0.500  0.833  0.167-  20 2.61  26 2.61  11 2.61  17 2.61  25 2.61  19 2.61  16 2.61  10 2.61
                            34 2.75  40 2.75  52 2.75  37 2.75
  44  0.500  0.833  0.500-  21 2.61  27 2.61  12 2.61  18 2.61  26 2.61  20 2.61  17 2.61  11 2.61
                            35 2.75  41 2.75  53 2.75  38 2.75
  45  0.500  0.833  0.833-  19 2.61  21 2.61  25 2.61  27 2.61  10 2.61  12 2.61  16 2.61  18 2.61
                            36 2.75  42 2.75  54 2.75  39 2.75
  46  0.833  0.167  0.167-   5 2.61  23 2.61  20 2.61   2 2.61  22 2.61   4 2.61  19 2.61   1 2.61
                            37 2.75  49 2.75  28 2.75  52 2.75
  47  0.833  0.167  0.500-   6 2.61  24 2.61  21 2.61   3 2.61  23 2.61   5 2.61  20 2.61   2 2.61
                            38 2.75  50 2.75  29 2.75  53 2.75
  48  0.833  0.167  0.833-   4 2.61   6 2.61  22 2.61  24 2.61  19 2.61  21 2.61   1 2.61   3 2.61
                            39 2.75  51 2.75  30 2.75  54 2.75
  49  0.833  0.500  0.167-   8 2.61  26 2.61  23 2.61   5 2.61  25 2.61   7 2.61  22 2.61   4 2.61
                            40 2.75  46 2.75  52 2.75  31 2.75
  50  0.833  0.500  0.500-   9 2.61  27 2.61  24 2.61   6 2.61  26 2.61   8 2.61  23 2.61   5 2.61
                            41 2.75  47 2.75  53 2.75  32 2.75
  51  0.833  0.500  0.833-   7 2.61   9 2.61  25 2.61  27 2.61  22 2.61  24 2.61   4 2.61   6 2.61
                            42 2.75  48 2.75  54 2.75  33 2.75
  52  0.833  0.833  0.167-   2 2.61   8 2.61  20 2.61  26 2.61  19 2.61   7 2.61  25 2.61   1 2.61
                            43 2.75  49 2.75  46 2.75  34 2.75
  53  0.833  0.833  0.500-   3 2.61   9 2.61  21 2.61  27 2.61  20 2.61   8 2.61  26 2.61   2 2.61
                            44 2.75  50 2.75  47 2.75  35 2.75
  54  0.833  0.833  0.833-   1 2.61   3 2.61   7 2.61   9 2.61  19 2.61  21 2.61  25 2.61  27 2.61
                            45 2.75  51 2.75  48 2.75  36 2.75
 
  LATTYP: Found a simple tetragonal cell.
 ALAT       =     8.2501481662
 C/A-ratio  =     1.2642089792
  
  Lattice vectors:
  
 A1 = (   8.2501481662,   0.0000000000,   0.0000000000)
 A2 = (   0.0000000000,   8.2501481662,   0.0000000000)
 A3 = (   0.0000000000,   0.0000000000,  10.4299113916)


Analysis of symmetry for initial positions (statically):
=====================================================================
 Subroutine PRICEL returns following result:
 
  LATTYP: Found a simple tetragonal cell.
 ALAT       =     2.7500493888
 C/A-ratio  =     1.2642089792
  
  Lattice vectors:
  
 A1 = (   2.7500493888,   0.0000000000,   0.0000000000)
 A2 = (   0.0000000000,   2.7500493888,   0.0000000000)
 A3 = (   0.0000000000,   0.0000000000,   3.4766371306)
 
  27 primitive cells build up your supercell.
 

 Routine SETGRP: Setting up the symmetry group for a 
 simple tetragonal supercell.


 Subroutine GETGRP returns: Found 16 space group operations
 (whereof 16 operations were pure point group operations)
 out of a pool of 16 trial point group operations.


The static configuration has the point symmetry D_4h.


Analysis of symmetry for dynamics (positions and initial velocities):
=====================================================================
 Subroutine PRICEL returns following result:
 
  LATTYP: Found a simple tetragonal cell.
 ALAT       =     2.7500493888
 C/A-ratio  =     1.2642089792
  
  Lattice vectors:
  
 A1 = (   2.7500493888,   0.0000000000,   0.0000000000)
 A2 = (   0.0000000000,   2.7500493888,   0.0000000000)
 A3 = (   0.0000000000,   0.0000000000,   3.4766371306)
 
  27 primitive cells build up your supercell.
 

 Routine SETGRP: Setting up the symmetry group for a 
 simple tetragonal supercell.


 Subroutine GETGRP returns: Found 16 space group operations
 (whereof 16 operations were pure point group operations)
 out of a pool of 16 trial point group operations.


The dynamic configuration has the point symmetry D_4h.


Analysis of structural, dynamic, and magnetic symmetry:
=====================================================================
 Subroutine PRICEL returns:
 Original cell was already a primitive cell.
 

 Routine SETGRP: Setting up the symmetry group for a 
 simple tetragonal supercell.


 Subroutine GETGRP returns: Found  4 space group operations
 (whereof  1 operations were pure point group operations)
 out of a pool of 16 trial point group operations.


The magnetic configuration has the point symmetry C_1 .
 The point group associated with its full space group is C_2v.


 Subroutine INISYM returns: Found  4 space group operations
 (whereof  1 operations are pure point group operations),
 and found     1 'primitive' translations

 
 
 KPOINTS: automatic KPOINTS                       

Automatic generation of k-mesh.
 generate k-points for:    5    5    4
Space group operators:
 irot       det(A)        alpha          n_x          n_y          n_z        tau_x        tau_y        tau_z
    1     1.000000     0.000001     1.000000     0.000000     0.000000     0.000000     0.000000     0.000000
    2     1.000000   180.000000     0.000000     0.000000     1.000000     0.666667     0.666667     0.000000
    3    -1.000000   180.000000     0.000000     1.000000     0.000000     0.000000     0.666667     0.000000
    4    -1.000000   180.000000     1.000000     0.000000     0.000000     0.666667     0.000000     0.000000
 
 Subroutine IBZKPT returns following result:
 ===========================================
 
 Found     27 irreducible k-points:
 
 Following reciprocal coordinates:
            Coordinates               Weight
  0.000000  0.000000  0.000000      1.000000
  0.200000  0.000000  0.000000      2.000000
  0.400000  0.000000  0.000000      2.000000
  0.000000  0.200000  0.000000      2.000000
  0.200000  0.200000  0.000000      4.000000
  0.400000  0.200000  0.000000      4.000000
  0.000000  0.400000  0.000000      2.000000
  0.200000  0.400000  0.000000      4.000000
  0.400000  0.400000  0.000000      4.000000
  0.000000  0.000000  0.250000      2.000000
  0.200000  0.000000  0.250000      4.000000
  0.400000  0.000000  0.250000      4.000000
  0.000000  0.200000  0.250000      4.000000
  0.200000  0.200000  0.250000      8.000000
  0.400000  0.200000  0.250000      8.000000
  0.000000  0.400000  0.250000      4.000000
  0.200000  0.400000  0.250000      8.000000
  0.400000  0.400000  0.250000      8.000000
  0.000000  0.000000  0.500000      1.000000
  0.200000  0.000000  0.500000      2.000000
  0.400000  0.000000  0.500000      2.000000
  0.000000  0.200000  0.500000      2.000000
  0.200000  0.200000  0.500000      4.000000
  0.400000  0.200000  0.500000      4.000000
  0.000000  0.400000  0.500000      2.000000
  0.200000  0.400000  0.500000      4.000000
  0.400000  0.400000  0.500000      4.000000
 
 Following cartesian coordinates:
            Coordinates               Weight
  0.000000  0.000000  0.000000      1.000000
  0.024242  0.000000  0.000000      2.000000
  0.048484  0.000000  0.000000      2.000000
  0.000000  0.024242  0.000000      2.000000
  0.024242  0.024242  0.000000      4.000000
  0.048484  0.024242  0.000000      4.000000
  0.000000  0.048484  0.000000      2.000000
  0.024242  0.048484  0.000000      4.000000
  0.048484  0.048484  0.000000      4.000000
  0.000000  0.000000  0.023970      2.000000
  0.024242  0.000000  0.023970      4.000000
  0.048484  0.000000  0.023970      4.000000
  0.000000  0.024242  0.023970      4.000000
  0.024242  0.024242  0.023970      8.000000
  0.048484  0.024242  0.023970      8.000000
  0.000000  0.048484  0.023970      4.000000
  0.024242  0.048484  0.023970      8.000000
  0.048484  0.048484  0.023970      8.000000
  0.000000  0.000000  0.047939      1.000000
  0.024242  0.000000  0.047939      2.000000
  0.048484  0.000000  0.047939      2.000000
  0.000000  0.024242  0.047939      2.000000
  0.024242  0.024242  0.047939      4.000000
  0.048484  0.024242  0.047939      4.000000
  0.000000  0.048484  0.047939      2.000000
  0.024242  0.048484  0.047939      4.000000
  0.048484  0.048484  0.047939      4.000000
 


--------------------------------------------------------------------------------------------------------




 Dimension of arrays:
   k-points           NKPTS =     27   k-points in BZ     NKDIM =     27   number of bands    NBANDS=    172
   number of dos      NEDOS =    301   number of ions     NIONS =     54
   non local maximal  LDIM  =      6   non local SUM 2l+1 LMDIM =     18
   total plane-waves  NPLWV = 204120
   max r-space proj   IRMAX =      1   max aug-charges    IRDMAX=  89713
   dimension x,y,z NGX =    54 NGY =   54 NGZ =   70
   dimension x,y,z NGXF=   108 NGYF=  108 NGZF=  140
   support grid    NGXF=   216 NGYF=  216 NGZF=  280
   ions per type =              27  27
   NGX,Y,Z   is equivalent  to a cutoff of  10.88, 10.88, 11.16 a.u.
   NGXF,Y,Z  is equivalent  to a cutoff of  21.76, 21.76, 22.32 a.u.

 SYSTEM =  AlMn_pv                                 
 POSCAR =  NewRef: 27, @ ['Mn', array([1.37502469, 

 Startparameter for this run:
   NWRITE =      2    write-flag & timer
   PREC   = accura    normal or accurate (medium, high low for compatibility)
   ISTART =      0    job   : 0-new  1-cont  2-samecut
   ICHARG =      2    charge: 1-file 2-atom 10-const
   ISPIN  =      2    spin polarized calculation?
   LNONCOLLINEAR =      F non collinear calculations
   LSORBIT =      F    spin-orbit coupling
   INIWAV =      1    electr: 0-lowe 1-rand  2-diag
   LASPH  =      F    aspherical Exc in radial PAW
   METAGGA=      F    non-selfconsistent MetaGGA calc.

 Electronic Relaxation 1
   ENCUT  =  404.8 eV  29.75 Ry    5.45 a.u.  13.53 13.53 17.11*2*pi/ulx,y,z
   ENINI  =  404.8     initial cutoff
   ENAUG  =  500.7 eV  augmentation charge cutoff
   NELM   =    100;   NELMIN=  4; NELMDL= -8     # of ELM steps 
   EDIFF  = 0.1E-06   stopping-criterion for ELM
   LREAL  =      F    real-space projection
   NLSPLINE    = F    spline interpolate recip. space projectors
   LCOMPAT=      F    compatible to vasp.4.4
   GGA_COMPAT  = T    GGA compatible to vasp.4.4-vasp.4.6
   LMAXPAW     = -100 max onsite density
   LMAXMIX     =    2 max onsite mixed and CHGCAR
   VOSKOWN=      0    Vosko Wilk Nusair interpolation
   ROPT   =    0.00000   0.00000
 Ionic relaxation
   EDIFFG = 0.1E-05   stopping-criterion for IOM
   NSW    =      0    number of steps for IOM
   NBLOCK =      1;   KBLOCK =      1    inner block; outer block 
   IBRION =     -1    ionic relax: 0-MD 1-quasi-New 2-CG
   NFREE  =      0    steps in history (QN), initial steepest desc. (CG)
   ISIF   =      2    stress and relaxation
   IWAVPR =     10    prediction:  0-non 1-charg 2-wave 3-comb
   ISYM   =      2    0-nonsym 1-usesym 2-fastsym
   LCORR  =      T    Harris-Foulkes like correction to forces

   POTIM  = 0.2000    time-step for ionic-motion
   TEIN   =    0.0    initial temperature
   TEBEG  =    0.0;   TEEND  =   0.0 temperature during run
   SMASS  =  -3.00    Nose mass-parameter (am)
   estimated Nose-frequenzy (Omega)   =  0.10E-29 period in steps =****** mass=  -0.156E-26a.u.
   SCALEE = 1.0000    scale energy and forces
   NPACO  =    256;   APACO  = 16.0  distance and # of slots for P.C.
   PSTRESS=    0.0 pullay stress

  Mass of Ions in am
   POMASS =  26.98 54.94
  Ionic Valenz
   ZVAL   =   3.00  7.00
  Atomic Wigner-Seitz radii
   RWIGS  =  -1.00 -1.00
  virtual crystal weights 
   VCA    =   1.00  1.00
   NELECT =     270.0000    total number of electrons
   NUPDOWN=      -1.0000    fix difference up-down

 DOS related values:
   EMIN   =  10.00;   EMAX   =-10.00  energy-range for DOS
   EFERMI =   0.00
   ISMEAR =     1;   SIGMA  =   0.20  broadening in eV -4-tet -1-fermi 0-gaus

 Electronic relaxation 2 (details)
   IALGO  =     58    algorithm
   LDIAG  =      T    sub-space diagonalisation (order eigenvalues)
   LSUBROT=      F    optimize rotation matrix (better conditioning)
   TURBO    =      0    0=normal 1=particle mesh
   IRESTART =      0    0=no restart 2=restart with 2 vectors
   NREBOOT  =      0    no. of reboots
   NMIN     =      0    reboot dimension
   EREF     =   0.00    reference energy to select bands
   IMIX   =      4    mixing-type and parameters
     AMIX     =   0.40;   BMIX     =  1.00
     AMIX_MAG =   1.60;   BMIX_MAG =  1.00
     AMIN     =   0.10
     WC   =   100.;   INIMIX=   1;  MIXPRE=   1;  MAXMIX= -45

 Intra band minimization:
   WEIMIN = 0.0000     energy-eigenvalue tresh-hold
   EBREAK =  0.15E-09  absolut break condition
   DEPER  =   0.30     relativ break condition  

   TIME   =   0.40     timestep for ELM

  volume/ion in A,a.u.               =      13.15        88.72
  Fermi-wavevector in a.u.,A,eV,Ry     =   1.186118  2.241439 19.141722  1.406877
  Thomas-Fermi vector in A             =   2.322298
 
 Write flags
   LWAVE        =      F    write WAVECAR
   LDOWNSAMPLE  =      F    k-point downsampling of WAVECAR
   LCHARG       =      F    write CHGCAR
   LVTOT        =      F    write LOCPOT, total local potential
   LVHAR        =      F    write LOCPOT, Hartree potential only
   LELF         =      F    write electronic localiz. function (ELF)
   LORBIT       =     10    0 simple, 1 ext, 2 COOP (PROOUT), +10 PAW based schemes


 Dipole corrections
   LMONO  =      F    monopole corrections only (constant potential shift)
   LDIPOL =      F    correct potential (dipole corrections)
   IDIPOL =      0    1-x, 2-y, 3-z, 4-all directions 
   EPSILON=  1.0000000 bulk dielectric constant

 Exchange correlation treatment:
   GGA     =    --    GGA type
   LEXCH   =     8    internal setting for exchange type
   VOSKOWN=      0    Vosko Wilk Nusair interpolation
   LHFCALC =     F    Hartree Fock is set to
   LHFONE  =     F    Hartree Fock one center treatment
   AEXX    =    0.0000 exact exchange contribution

 Linear response parameters
   LEPSILON=     F    determine dielectric tensor
   LRPA    =     F    only Hartree local field effects (RPA)
   LNABLA  =     F    use nabla operator in PAW spheres
   LVEL    =     F    velocity operator in full k-point grid
   LINTERFAST=   F  fast interpolation
   KINTER  =     0    interpolate to denser k-point grid
   CSHIFT  =0.1000    complex shift for real part using Kramers Kronig
   OMEGAMAX=  -1.0    maximum frequency
   DEG_THRESHOLD= 0.2000000E-02 threshold for treating states as degnerate
   RTIME   =   -0.100 relaxation time in fs
  (WPLASMAI=    0.000 imaginary part of plasma frequency in eV, 0.658/RTIME)
   DFIELD  = 0.0000000 0.0000000 0.0000000 field for delta impulse in time
 
 Orbital magnetization related:
   ORBITALMAG=     F  switch on orbital magnetization
   LCHIMAG   =     F  perturbation theory with respect to B field
   DQ        =  0.001000  dq finite difference perturbation B field
   LLRAUG    =     F  two centre corrections for induced B field



--------------------------------------------------------------------------------------------------------


 Static calculation
 charge density and potential will be updated during run
 spin polarized calculation
 Conjugate gradient for all bands (Freysoldt, et al. PRB 79, 241103 (2009))
 preconditioned conjugated gradient                                        
 perform sub-space diagonalisation
    before iterative eigenvector-optimisation
 modified Broyden-mixing scheme, WC =      100.0
 initial mixing is a Kerker type mixing with AMIX =  0.4000 and BMIX =      1.0000
 Hartree-type preconditioning will be used
 using additional bands           37
 reciprocal scheme for non local part
 use partial core corrections
 no Harris-corrections to forces 
 use gradient corrections 
 use of overlap-Matrix (Vanderbilt PP)
 Methfessel and Paxton  Order N= 1 SIGMA  =   0.20


--------------------------------------------------------------------------------------------------------


  energy-cutoff  :      404.80
  volume of cell :      709.91
      direct lattice vectors                 reciprocal lattice vectors
     8.250148166  0.000000000  0.000000000     0.121209944  0.000000000  0.000000000
     0.000000000  8.250148166  0.000000000     0.000000000  0.121209944  0.000000000
     0.000000000  0.000000000 10.429911392     0.000000000  0.000000000  0.095878092

  length of vectors
     8.250148166  8.250148166 10.429911392     0.121209944  0.121209944  0.095878092


 
 k-points in units of 2pi/SCALE and weight: automatic KPOINTS                       
   0.00000000  0.00000000  0.00000000       0.010
   0.02424199  0.00000000  0.00000000       0.020
   0.04848398  0.00000000  0.00000000       0.020
   0.00000000  0.02424199  0.00000000       0.020
   0.02424199  0.02424199  0.00000000       0.040
   0.04848398  0.02424199  0.00000000       0.040
   0.00000000  0.04848398  0.00000000       0.020
   0.02424199  0.04848398  0.00000000       0.040
   0.04848398  0.04848398  0.00000000       0.040
   0.00000000  0.00000000  0.02396952       0.020
   0.02424199  0.00000000  0.02396952       0.040
   0.04848398  0.00000000  0.02396952       0.040
   0.00000000  0.02424199  0.02396952       0.040
   0.02424199  0.02424199  0.02396952       0.080
   0.04848398  0.02424199  0.02396952       0.080
   0.00000000  0.04848398  0.02396952       0.040
   0.02424199  0.04848398  0.02396952       0.080
   0.04848398  0.04848398  0.02396952       0.080
   0.00000000  0.00000000  0.04793905       0.010
   0.02424199  0.00000000  0.04793905       0.020
   0.04848398  0.00000000  0.04793905       0.020
   0.00000000  0.02424199  0.04793905       0.020
   0.02424199  0.02424199  0.04793905       0.040
   0.04848398  0.02424199  0.04793905       0.040
   0.00000000  0.04848398  0.04793905       0.020
   0.02424199  0.04848398  0.04793905       0.040
   0.04848398  0.04848398  0.04793905       0.040
 
 k-points in reciprocal lattice and weights: automatic KPOINTS                       
   0.00000000  0.00000000  0.00000000       0.010
   0.20000000  0.00000000  0.00000000       0.020
   0.40000000  0.00000000  0.00000000       0.020
   0.00000000  0.20000000  0.00000000       0.020
   0.20000000  0.20000000  0.00000000       0.040
   0.40000000  0.20000000  0.00000000       0.040
   0.00000000  0.40000000  0.00000000       0.020
   0.20000000  0.40000000  0.00000000       0.040
   0.40000000  0.40000000  0.00000000       0.040
   0.00000000  0.00000000  0.25000000       0.020
   0.20000000  0.00000000  0.25000000       0.040
   0.40000000  0.00000000  0.25000000       0.040
   0.00000000  0.20000000  0.25000000       0.040
   0.20000000  0.20000000  0.25000000       0.080
   0.40000000  0.20000000  0.25000000       0.080
   0.00000000  0.40000000  0.25000000       0.040
   0.20000000  0.40000000  0.25000000       0.080
   0.40000000  0.40000000  0.25000000       0.080
   0.00000000  0.00000000  0.50000000       0.010
   0.20000000  0.00000000  0.50000000       0.020
   0.40000000  0.00000000  0.50000000       0.020
   0.00000000  0.20000000  0.50000000       0.020
   0.20000000  0.20000000  0.50000000       0.040
   0.40000000  0.20000000  0.50000000       0.040
   0.00000000  0.40000000  0.50000000       0.020
   0.20000000  0.40000000  0.50000000       0.040
   0.40000000  0.40000000  0.50000000       0.040
 
 position of ions in fractional coordinates (direct lattice) 
   0.00000000  0.00000000  0.00000000
   0.00000000  0.00000000  0.33333333
   0.00000000  0.00000000  0.66666667
   0.00000000  0.33333333  0.00000000
   0.00000000  0.33333333  0.33333333
   0.00000000  0.33333333  0.66666667
   0.00000000  0.66666667  0.00000000
   0.00000000  0.66666667  0.33333333
   0.00000000  0.66666667  0.66666667
   0.33333333  0.00000000  0.00000000
   0.33333333  0.00000000  0.33333333
   0.33333333  0.00000000  0.66666667
   0.33333333  0.33333333  0.00000000
   0.33333333  0.33333333  0.33333333
   0.33333333  0.33333333  0.66666667
   0.33333333  0.66666667  0.00000000
   0.33333333  0.66666667  0.33333333
   0.33333333  0.66666667  0.66666667
   0.66666667  0.00000000  0.00000000
   0.66666667  0.00000000  0.33333333
   0.66666667  0.00000000  0.66666667
   0.66666667  0.33333333  0.00000000
   0.66666667  0.33333333  0.33333333
   0.66666667  0.33333333  0.66666667
   0.66666667  0.66666667  0.00000000
   0.66666667  0.66666667  0.33333333
   0.66666667  0.66666667  0.66666667
   0.16666667  0.16666667  0.16666667
   0.16666667  0.16666667  0.50000000
   0.16666667  0.16666667  0.83333333
   0.16666667  0.50000000  0.16666667
   0.16666667  0.50000000  0.50000000
   0.16666667  0.50000000  0.83333333
   0.16666667  0.83333333  0.16666667
   0.16666667  0.83333333  0.50000000
   0.16666667  0.83333333  0.83333333
   0.50000000  0.16666667  0.16666667
   0.50000000  0.16666667  0.50000000
   0.50000000  0.16666667  0.83333333
   0.50000000  0.50000000  0.16666667
   0.50000000  0.50000000  0.50000000
   0.50000000  0.50000000  0.83333333
   0.50000000  0.83333333  0.16666667
   0.50000000  0.83333333  0.50000000
   0.50000000  0.83333333  0.83333333
   0.83333333  0.16666667  0.16666667
   0.83333333  0.16666667  0.50000000
   0.83333333  0.16666667  0.83333333
   0.83333333  0.50000000  0.16666667
   0.83333333  0.50000000  0.50000000
   0.83333333  0.50000000  0.83333333
   0.83333333  0.83333333  0.16666667
   0.83333333  0.83333333  0.50000000
   0.83333333  0.83333333  0.83333333
 
 position of ions in cartesian coordinates  (Angst):
   0.00000000  0.00000000  0.00000000
   0.00000000  0.00000000  3.47663713
   0.00000000  0.00000000  6.95327426
   0.00000000  2.75004939  0.00000000
   0.00000000  2.75004939  3.47663713
   0.00000000  2.75004939  6.95327426
   0.00000000  5.50009878  0.00000000
   0.00000000  5.50009878  3.47663713
   0.00000000  5.50009878  6.95327426
   2.75004939  0.00000000  0.00000000
   2.75004939  0.00000000  3.47663713
   2.75004939  0.00000000  6.95327426
   2.75004939  2.75004939  0.00000000
   2.75004939  2.75004939  3.47663713
   2.75004939  2.75004939  6.95327426
   2.75004939  5.50009878  0.00000000
   2.75004939  5.50009878  3.47663713
   2.75004939  5.50009878  6.95327426
   5.50009878  0.00000000  0.00000000
   5.50009878  0.00000000  3.47663713
   5.50009878  0.00000000  6.95327426
   5.50009878  2.75004939  0.00000000
   5.50009878  2.75004939  3.47663713
   5.50009878  2.75004939  6.95327426
   5.50009878  5.50009878  0.00000000
   5.50009878  5.50009878  3.47663713
   5.50009878  5.50009878  6.95327426
   1.37502469  1.37502469  1.73831857
   1.37502469  1.37502469  5.21495570
   1.37502469  1.37502469  8.69159283
   1.37502469  4.12507408  1.73831857
   1.37502469  4.12507408  5.21495570
   1.37502469  4.12507408  8.69159283
   1.37502469  6.87512347  1.73831857
   1.37502469  6.87512347  5.21495570
   1.37502469  6.87512347  8.69159283
   4.12507408  1.37502469  1.73831857
   4.12507408  1.37502469  5.21495570
   4.12507408  1.37502469  8.69159283
   4.12507408  4.12507408  1.73831857
   4.12507408  4.12507408  5.21495570
   4.12507408  4.12507408  8.69159283
   4.12507408  6.87512347  1.73831857
   4.12507408  6.87512347  5.21495570
   4.12507408  6.87512347  8.69159283
   6.87512347  1.37502469  1.73831857
   6.87512347  1.37502469  5.21495570
   6.87512347  1.37502469  8.69159283
   6.87512347  4.12507408  1.73831857
   6.87512347  4.12507408  5.21495570
   6.87512347  4.12507408  8.69159283
   6.87512347  6.87512347  1.73831857
   6.87512347  6.87512347  5.21495570
   6.87512347  6.87512347  8.69159283
 


--------------------------------------------------------------------------------------------------------


 k-point  1 :   0.0000 0.0000 0.0000  plane waves:   13099
 k-point  2 :   0.2000 0.0000 0.0000  plane waves:   13101
 k-point  3 :   0.4000 0.0000 0.0000  plane waves:   13111
 k-point  4 :   0.0000 0.2000 0.0000  plane waves:   13101
 k-point  5 :   0.2000 0.2000 0.0000  plane waves:   13137
 k-point  6 :   0.4000 0.2000 0.0000  plane waves:   13119
 k-point  7 :   0.0000 0.4000 0.0000  plane waves:   13111
 k-point  8 :   0.2000 0.4000 0.0000  plane waves:   13119
 k-point  9 :   0.4000 0.4000 0.0000  plane waves:   13129
 k-point 10 :   0.0000 0.0000 0.2500  plane waves:   13134
 k-point 11 :   0.2000 0.0000 0.2500  plane waves:   13149
 k-point 12 :   0.4000 0.0000 0.2500  plane waves:   13119
 k-point 13 :   0.0000 0.2000 0.2500  plane waves:   13149
 k-point 14 :   0.2000 0.2000 0.2500  plane waves:   13145
 k-point 15 :   0.4000 0.2000 0.2500  plane waves:   13134
 k-point 16 :   0.0000 0.4000 0.2500  plane waves:   13119
 k-point 17 :   0.2000 0.4000 0.2500  plane waves:   13134
 k-point 18 :   0.4000 0.4000 0.2500  plane waves:   13108
 k-point 19 :   0.0000 0.0000 0.5000  plane waves:   13186
 k-point 20 :   0.2000 0.0000 0.5000  plane waves:   13124
 k-point 21 :   0.4000 0.0000 0.5000  plane waves:   13152
 k-point 22 :   0.0000 0.2000 0.5000  plane waves:   13124
 k-point 23 :   0.2000 0.2000 0.5000  plane waves:   13136
 k-point 24 :   0.4000 0.2000 0.5000  plane waves:   13128
 k-point 25 :   0.0000 0.4000 0.5000  plane waves:   13152
 k-point 26 :   0.2000 0.4000 0.5000  plane waves:   13128
 k-point 27 :   0.4000 0.4000 0.5000  plane waves:   13112

 maximum and minimum number of plane-waves per node :      3304     3246

 maximum number of plane-waves:     13186
 maximum index in each direction: 
   IXMAX=   13   IYMAX=   13   IZMAX=   17
   IXMIN=  -13   IYMIN=  -13   IZMIN=  -17


 parallel 3D FFT for wavefunctions:
    minimum data exchange during FFTs selected (reduces bandwidth)
 parallel 3D FFT for charge:
    minimum data exchange during FFTs selected (reduces bandwidth)


 total amount of memory used by VASP MPI-rank0   887625. kBytes
=======================================================================

   base      :      30000. kBytes
   nonl-proj :      28494. kBytes
   fftplans  :      31580. kBytes
   grid      :      21385. kBytes
   one-center:        435. kBytes
   wavefun   :     775731. kBytes
 
     INWAV:  cpu time    0.0001: real time    0.0000
 Broyden mixing: mesh for mixing (old mesh)
   NGX = 27   NGY = 27   NGZ = 35
  (NGX  =108   NGY  =108   NGZ  =140)
  gives a total of  25515 points

 initial charge density was supplied:
 charge density of overlapping atoms calculated
 number of electron     270.0000000 magnetization      15.0000000
 keeping initial charge density in first step


--------------------------------------------------------------------------------------------------------


 Maximum index for augmentation-charges        10967 (set IRDMAX)


--------------------------------------------------------------------------------------------------------


 First call to EWALD:  gamma=   0.199
 Maximum number of real-space cells 3x 3x 2
 Maximum number of reciprocal cells 3x 3x 3

    FEWALD:  cpu time    0.0025: real time    0.0024


--------------------------------------- Iteration      1(   1)  ---------------------------------------


    POTLOK:  cpu time    0.3965: real time    0.3966
    SETDIJ:  cpu time    0.4675: real time    0.4816
    TRIAL :  cpu time   30.8473: real time   31.8249
    CORREC:  cpu time    0.0054: real time    0.0063
    --------------------------------------------
      LOOP:  cpu time   31.9822: real time   32.9806

 eigenvalue-minimisations  : 18576
 total energy-change (2. order) : 0.2039419E+04  (-0.8839063E+04)
 number of electron     270.0000000 magnetization      15.0000000
 augmentation part      270.0000000 magnetization      15.0000000

 Free energy of the ion-electron system (eV)
  ---------------------------------------------------
  alpha Z        PSCENC =       798.38614055
  Ewald energy   TEWEN  =    -12901.57693327
  -Hartree energ DENC   =     -2855.60785864
  -exchange      EXHF   =         0.00000000
  -V(xc)+E(xc)   XCENC  =      -996.06378164
  PAW double counting   =     12741.82587617   -11476.22345381
  entropy T*S    EENTRO =         0.00163719
  eigenvalues    EBANDS =      4031.00289597
  atomic energy  EATOM  =     12697.67401269
  ---------------------------------------------------
  free energy    TOTEN  =      2039.41853519 eV

  energy without entropy =     2039.41689801  energy(sigma->0) =     2039.41798946


--------------------------------------------------------------------------------------------------------




--------------------------------------- Iteration      1(   2)  ---------------------------------------


    TRIAL :  cpu time   31.2686: real time   32.6657
    CORREC:  cpu time    0.0067: real time    0.0069
    --------------------------------------------
      LOOP:  cpu time   31.2780: real time   32.6753

 eigenvalue-minimisations  : 18576
 total energy-change (2. order) :-0.2129811E+04  (-0.2074858E+04)
 number of electron     270.0000000 magnetization      15.0000000
 augmentation part      270.0000000 magnetization      15.0000000

 Free energy of the ion-electron system (eV)
  ---------------------------------------------------
  alpha Z        PSCENC =       798.38614055
  Ewald energy   TEWEN  =    -12901.57693327
  -Hartree energ DENC   =     -2855.60785864
  -exchange      EXHF   =         0.00000000
  -V(xc)+E(xc)   XCENC  =      -996.06378164
  PAW double counting   =     12741.82587617   -11476.22345381
  entropy T*S    EENTRO =         0.00283621
  eigenvalues    EBANDS =      1901.19094135
  atomic energy  EATOM  =     12697.67401269
  ---------------------------------------------------
  free energy    TOTEN  =       -90.39222040 eV

  energy without entropy =      -90.39505661  energy(sigma->0) =      -90.39316581


--------------------------------------------------------------------------------------------------------




--------------------------------------- Iteration      1(   3)  ---------------------------------------


    TRIAL :  cpu time   43.5661: real time   43.8248
    CORREC:  cpu time    0.0078: real time    0.0086
    --------------------------------------------
      LOOP:  cpu time   43.5747: real time   43.8361

 eigenvalue-minimisations  : 27872
 total energy-change (2. order) :-0.2642860E+03  (-0.2338563E+03)
 number of electron     270.0000000 magnetization      15.0000000
 augmentation part      270.0000000 magnetization      15.0000000

 Free energy of the ion-electron system (eV)
  ---------------------------------------------------
  alpha Z        PSCENC =       798.38614055
  Ewald energy   TEWEN  =    -12901.57693327
  -Hartree energ DENC   =     -2855.60785864
  -exchange      EXHF   =         0.00000000
  -V(xc)+E(xc)   XCENC  =      -996.06378164
  PAW double counting   =     12741.82587617   -11476.22345381
  entropy T*S    EENTRO =        -0.00026279
  eigenvalues    EBANDS =      1636.90800711
  atomic energy  EATOM  =     12697.67401269
  ---------------------------------------------------
  free energy    TOTEN  =      -354.67825365 eV

  energy without entropy =     -354.67799086  energy(sigma->0) =     -354.67816605


--------------------------------------------------------------------------------------------------------




--------------------------------------- Iteration      1(   4)  ---------------------------------------


    TRIAL :  cpu time   45.7877: real time   46.7797
    CORREC:  cpu time    0.0522: real time    0.0531
    --------------------------------------------
      LOOP:  cpu time   45.8408: real time   46.8359

 eigenvalue-minimisations  : 30200
 total energy-change (2. order) :-0.4439941E+02  (-0.3917086E+02)
 number of electron     270.0000000 magnetization      15.0000000
 augmentation part      270.0000000 magnetization      15.0000000

 Free energy of the ion-electron system (eV)
  ---------------------------------------------------
  alpha Z        PSCENC =       798.38614055
  Ewald energy   TEWEN  =    -12901.57693327
  -Hartree energ DENC   =     -2855.60785864
  -exchange      EXHF   =         0.00000000
  -V(xc)+E(xc)   XCENC  =      -996.06378164
  PAW double counting   =     12741.82587617   -11476.22345381
  entropy T*S    EENTRO =         0.03824615
  eigenvalues    EBANDS =      1592.47008923
  atomic energy  EATOM  =     12697.67401269
  ---------------------------------------------------
  free energy    TOTEN  =      -399.07766258 eV

  energy without entropy =     -399.11590873  energy(sigma->0) =     -399.09041129


--------------------------------------------------------------------------------------------------------




--------------------------------------- Iteration      1(   5)  ---------------------------------------


    TRIAL :  cpu time   47.0196: real time   47.9550
    CORREC:  cpu time    0.0083: real time    0.0092
    --------------------------------------------
      LOOP:  cpu time   47.0287: real time   47.9675

 eigenvalue-minimisations  : 30720
 total energy-change (2. order) :-0.4676214E+01  (-0.4475181E+01)
 number of electron     270.0000000 magnetization      15.0000000
 augmentation part      270.0000000 magnetization      15.0000000

 Free energy of the ion-electron system (eV)
  ---------------------------------------------------
  alpha Z        PSCENC =       798.38614055
  Ewald energy   TEWEN  =    -12901.57693327
  -Hartree energ DENC   =     -2855.60785864
  -exchange      EXHF   =         0.00000000
  -V(xc)+E(xc)   XCENC  =      -996.06378164
  PAW double counting   =     12741.82587617   -11476.22345381
  entropy T*S    EENTRO =         0.04496631
  eigenvalues    EBANDS =      1587.78715553
  atomic energy  EATOM  =     12697.67401269
  ---------------------------------------------------
  free energy    TOTEN  =      -403.75387613 eV

  energy without entropy =     -403.79884243  energy(sigma->0) =     -403.76886489


--------------------------------------------------------------------------------------------------------




--------------------------------------- Iteration      1(   6)  ---------------------------------------


    TRIAL :  cpu time   47.0454: real time   48.0070
    CORREC:  cpu time    0.0082: real time    0.0090
    --------------------------------------------
      LOOP:  cpu time   47.0553: real time   48.0190

 eigenvalue-minimisations  : 30640
 total energy-change (2. order) :-0.3895016E+00  (-0.3820554E+00)
 number of electron     270.0000000 magnetization      15.0000000
 augmentation part      270.0000000 magnetization      15.0000000

 Free energy of the ion-electron system (eV)
  ---------------------------------------------------
  alpha Z        PSCENC =       798.38614055
  Ewald energy   TEWEN  =    -12901.57693327
  -Hartree energ DENC   =     -2855.60785864
  -exchange      EXHF   =         0.00000000
  -V(xc)+E(xc)   XCENC  =      -996.06378164
  PAW double counting   =     12741.82587617   -11476.22345381
  entropy T*S    EENTRO =         0.04603513
  eigenvalues    EBANDS =      1587.39658515
  atomic energy  EATOM  =     12697.67401269
  ---------------------------------------------------
  free energy    TOTEN  =      -404.14337768 eV

  energy without entropy =     -404.18941281  energy(sigma->0) =     -404.15872273


--------------------------------------------------------------------------------------------------------




--------------------------------------- Iteration      1(   7)  ---------------------------------------


    TRIAL :  cpu time   47.8708: real time   48.1234
    CORREC:  cpu time    0.0084: real time    0.0093
    --------------------------------------------
      LOOP:  cpu time   47.8801: real time   48.1358

 eigenvalue-minimisations  : 31304
 total energy-change (2. order) :-0.4318068E-01  (-0.4279234E-01)
 number of electron     270.0000000 magnetization      15.0000000
 augmentation part      270.0000000 magnetization      15.0000000

 Free energy of the ion-electron system (eV)
  ---------------------------------------------------
  alpha Z        PSCENC =       798.38614055
  Ewald energy   TEWEN  =    -12901.57693327
  -Hartree energ DENC   =     -2855.60785864
  -exchange      EXHF   =         0.00000000
  -V(xc)+E(xc)   XCENC  =      -996.06378164
  PAW double counting   =     12741.82587617   -11476.22345381
  entropy T*S    EENTRO =         0.04633135
  eigenvalues    EBANDS =      1587.35310825
  atomic energy  EATOM  =     12697.67401269
  ---------------------------------------------------
  free energy    TOTEN  =      -404.18655836 eV

  energy without entropy =     -404.23288971  energy(sigma->0) =     -404.20200214


--------------------------------------------------------------------------------------------------------




--------------------------------------- Iteration      1(   8)  ---------------------------------------


    TRIAL :  cpu time   46.1590: real time   46.4817
    CORREC:  cpu time    0.0082: real time    0.0084
    CHARGE:  cpu time    2.1988: real time    2.2625
    --------------------------------------------
      LOOP:  cpu time   48.3677: real time   48.7562

 eigenvalue-minimisations  : 29936
 total energy-change (2. order) :-0.3222480E-02  (-0.3202908E-02)
 number of electron     269.9999995 magnetization      10.3572664
 augmentation part       64.2101717 magnetization       6.0142258

 Free energy of the ion-electron system (eV)
  ---------------------------------------------------
  alpha Z        PSCENC =       798.38614055
  Ewald energy   TEWEN  =    -12901.57693327
  -Hartree energ DENC   =     -2855.60785864
  -exchange      EXHF   =         0.00000000
  -V(xc)+E(xc)   XCENC  =      -996.06378164
  PAW double counting   =     12741.82587617   -11476.22345381
  entropy T*S    EENTRO =         0.04641525
  eigenvalues    EBANDS =      1587.34980187
  atomic energy  EATOM  =     12697.67401269
  ---------------------------------------------------
  free energy    TOTEN  =      -404.18978084 eV

  energy without entropy =     -404.23619609  energy(sigma->0) =     -404.20525259


--------------------------------------------------------------------------------------------------------




--------------------------------------- Iteration      1(   9)  ---------------------------------------


    POTLOK:  cpu time    0.3977: real time    0.3977
    SETDIJ:  cpu time    0.4605: real time    0.4608
    TRIAL :  cpu time   16.3795: real time   16.4716
    CORREC:  cpu time    5.0568: real time    5.0590
    CHARGE:  cpu time    1.5634: real time    1.5693
    --------------------------------------------
      LOOP:  cpu time   23.8591: real time   23.9609

 eigenvalue-minimisations  :     0
 total energy-change (2. order) : 0.2994954E+03  (-0.2176264E+03)
 number of electron     269.9999993 magnetization      10.8965950
 augmentation part       82.5980888 magnetization       7.2497613

 Free energy of the ion-electron system (eV)
  ---------------------------------------------------
  alpha Z        PSCENC =       798.38614055
  Ewald energy   TEWEN  =    -12901.57693327
  -Hartree energ DENC   =     -1273.03406906
  -exchange      EXHF   =         0.00000000
  -V(xc)+E(xc)   XCENC  =     -1041.62401686
  PAW double counting   =     19169.83003178   -17750.30515642
  entropy T*S    EENTRO =         0.03078819
  eigenvalues    EBANDS =       195.90920605
  atomic energy  EATOM  =     12697.67401269
  ---------------------------------------------------
  free energy    TOTEN  =      -104.69436929 eV

  energy without entropy =     -104.72515748  energy(sigma->0) =     -104.70463202


--------------------------------------------------------------------------------------------------------




--------------------------------------- Iteration      1(  10)  ---------------------------------------


    POTLOK:  cpu time    0.3922: real time    0.3922
    SETDIJ:  cpu time    0.4436: real time    0.4665
    TRIAL :  cpu time   15.7967: real time   15.8951
    CORREC:  cpu time    5.0187: real time    5.0743
    CHARGE:  cpu time    1.8696: real time    1.8757
    --------------------------------------------
      LOOP:  cpu time   23.5253: real time   23.7088

 eigenvalue-minimisations  :     0
 total energy-change (2. order) :-0.2135972E+03  (-0.1197956E+02)
 number of electron     269.9999993 magnetization      11.1617487
 augmentation part       86.3135994 magnetization       7.5132200

 Free energy of the ion-electron system (eV)
  ---------------------------------------------------
  alpha Z        PSCENC =       798.38614055
  Ewald energy   TEWEN  =    -12901.57693327
  -Hartree energ DENC   =     -2112.87475121
  -exchange      EXHF   =         0.00000000
  -V(xc)+E(xc)   XCENC  =     -1012.28869054
  PAW double counting   =     20669.61971594   -19432.17776469
  entropy T*S    EENTRO =         0.02301782
  eigenvalues    EBANDS =       974.91590853
  atomic energy  EATOM  =     12697.67401269
  ---------------------------------------------------
  free energy    TOTEN  =      -318.29157381 eV

  energy without entropy =     -318.31459163  energy(sigma->0) =     -318.29924642


--------------------------------------------------------------------------------------------------------




--------------------------------------- Iteration      1(  11)  ---------------------------------------


    POTLOK:  cpu time    0.3929: real time    0.3929
    SETDIJ:  cpu time    0.4534: real time    0.4596
    TRIAL :  cpu time   15.6532: real time   16.4792
    CORREC:  cpu time    5.0532: real time    5.0543
    CHARGE:  cpu time    1.5214: real time    1.5502
    --------------------------------------------
      LOOP:  cpu time   23.8012: real time   24.6636

 eigenvalue-minimisations  :     0
 total energy-change (2. order) :-0.1141301E+02  (-0.1106765E+02)
 number of electron     269.9999992 magnetization      11.2187518
 augmentation part       88.9690127 magnetization       7.7882343

 Free energy of the ion-electron system (eV)
  ---------------------------------------------------
  alpha Z        PSCENC =       798.38614055
  Ewald energy   TEWEN  =    -12901.57693327
  -Hartree energ DENC   =     -2333.25713443
  -exchange      EXHF   =         0.00000000
  -V(xc)+E(xc)   XCENC  =     -1004.13641878
  PAW double counting   =     21527.40539584   -20326.76899957
  entropy T*S    EENTRO =         0.02501064
  eigenvalues    EBANDS =      1212.54633038
  atomic energy  EATOM  =     12697.67401269
  ---------------------------------------------------
  free energy    TOTEN  =      -329.70458877 eV

  energy without entropy =     -329.72959941  energy(sigma->0) =     -329.71292565


--------------------------------------------------------------------------------------------------------




--------------------------------------- Iteration      1(  12)  ---------------------------------------


    POTLOK:  cpu time    0.3916: real time    0.3916
    SETDIJ:  cpu time    0.4697: real time    0.4697
    TRIAL :  cpu time   16.4450: real time   16.5405
    CORREC:  cpu time    5.0441: real time    5.0687
    CHARGE:  cpu time    1.5421: real time    1.5419
    --------------------------------------------
      LOOP:  cpu time   23.9066: real time   24.0271

 eigenvalue-minimisations  :     0
 total energy-change (2. order) :-0.1122533E+02  (-0.1227863E+02)
 number of electron     269.9999993 magnetization      11.5327619
 augmentation part       86.7685243 magnetization       7.9843444

 Free energy of the ion-electron system (eV)
  ---------------------------------------------------
  alpha Z        PSCENC =       798.38614055
  Ewald energy   TEWEN  =    -12901.57693327
  -Hartree energ DENC   =     -2543.30293384
  -exchange      EXHF   =         0.00000000
  -V(xc)+E(xc)   XCENC  =      -996.93211732
  PAW double counting   =     21845.04396440   -20658.53512855
  entropy T*S    EENTRO =         0.00112694
  eigenvalues    EBANDS =      1418.28806221
  atomic energy  EATOM  =     12697.67401269
  ---------------------------------------------------
  free energy    TOTEN  =      -340.92992249 eV

  energy without entropy =     -340.93104943  energy(sigma->0) =     -340.93029814


--------------------------------------------------------------------------------------------------------




--------------------------------------- Iteration      1(  13)  ---------------------------------------


    POTLOK:  cpu time    0.4002: real time    0.4002
    SETDIJ:  cpu time    0.4676: real time    0.4677
    TRIAL :  cpu time   16.0797: real time   16.2265
    CORREC:  cpu time    5.0075: real time    5.0317
    CHARGE:  cpu time    1.5352: real time    2.3230
    --------------------------------------------
      LOOP:  cpu time   23.5622: real time   24.5218

 eigenvalue-minimisations  :     0
 total energy-change (2. order) :-0.1220038E+02  (-0.8616993E+00)
 number of electron     269.9999993 magnetization      11.7307052
 augmentation part       86.1900197 magnetization       7.9910069

 Free energy of the ion-electron system (eV)
  ---------------------------------------------------
  alpha Z        PSCENC =       798.38614055
  Ewald energy   TEWEN  =    -12901.57693327
  -Hartree energ DENC   =     -2518.97202257
  -exchange      EXHF   =         0.00000000
  -V(xc)+E(xc)   XCENC  =      -998.73966545
  PAW double counting   =     21234.43241327   -19996.09927799
  entropy T*S    EENTRO =        -0.00453675
  eigenvalues    EBANDS =      1331.76390699
  atomic energy  EATOM  =     12697.67401269
  ---------------------------------------------------
  free energy    TOTEN  =      -353.13029885 eV

  energy without entropy =     -353.12576210  energy(sigma->0) =     -353.12878660


--------------------------------------------------------------------------------------------------------




--------------------------------------- Iteration      1(  14)  ---------------------------------------


    POTLOK:  cpu time    0.4204: real time    0.4206
    SETDIJ:  cpu time    0.4503: real time    0.4503
    TRIAL :  cpu time   16.3350: real time   16.4483
    CORREC:  cpu time    5.1105: real time    5.1122
    CHARGE:  cpu time    1.5131: real time    1.5490
    --------------------------------------------
      LOOP:  cpu time   23.8409: real time   23.9926

 eigenvalue-minimisations  :     0
 total energy-change (2. order) :-0.8591895E+00  (-0.1121337E+01)
 number of electron     269.9999993 magnetization      11.6737777
 augmentation part       85.9252283 magnetization       7.9151773

 Free energy of the ion-electron system (eV)
  ---------------------------------------------------
  alpha Z        PSCENC =       798.38614055
  Ewald energy   TEWEN  =    -12901.57693327
  -Hartree energ DENC   =     -2486.25345420
  -exchange      EXHF   =         0.00000000
  -V(xc)+E(xc)   XCENC  =      -999.93043163
  PAW double counting   =     20834.75448012   -19586.70844695
  entropy T*S    EENTRO =        -0.00651864
  eigenvalues    EBANDS =      1289.66968111
  atomic energy  EATOM  =     12697.67401269
  ---------------------------------------------------
  free energy    TOTEN  =      -353.98948833 eV

  energy without entropy =     -353.98296969  energy(sigma->0) =     -353.98731545


--------------------------------------------------------------------------------------------------------




--------------------------------------- Iteration      1(  15)  ---------------------------------------


    POTLOK:  cpu time    0.4473: real time    0.4772
    SETDIJ:  cpu time    0.4454: real time    0.4454
    TRIAL :  cpu time   15.8047: real time   15.9543
    CORREC:  cpu time    5.0277: real time    5.0288
    CHARGE:  cpu time    2.1212: real time    2.1298
    --------------------------------------------
      LOOP:  cpu time   23.8486: real time   24.0393

 eigenvalue-minimisations  :     0
 total energy-change (2. order) :-0.1115926E+01  (-0.6205233E+00)
 number of electron     269.9999992 magnetization      11.6600641
 augmentation part       86.6746791 magnetization       7.9461851

 Free energy of the ion-electron system (eV)
  ---------------------------------------------------
  alpha Z        PSCENC =       798.38614055
  Ewald energy   TEWEN  =    -12901.57693327
  -Hartree energ DENC   =     -2459.86567659
  -exchange      EXHF   =         0.00000000
  -V(xc)+E(xc)   XCENC  =     -1000.86039273
  PAW double counting   =     20101.89919768   -18845.62900789
  entropy T*S    EENTRO =        -0.01109844
  eigenvalues    EBANDS =      1254.87376339
  atomic energy  EATOM  =     12697.67401269
  ---------------------------------------------------
  free energy    TOTEN  =      -355.10541481 eV

  energy without entropy =     -355.09431636  energy(sigma->0) =     -355.10171533


--------------------------------------------------------------------------------------------------------




--------------------------------------- Iteration      1(  16)  ---------------------------------------


    POTLOK:  cpu time    0.4414: real time    0.4510
    SETDIJ:  cpu time    0.4743: real time    0.4743
    TRIAL :  cpu time   15.6424: real time   16.4716
    CORREC:  cpu time    5.0391: real time    5.0402
    CHARGE:  cpu time    1.5710: real time    1.5893
    --------------------------------------------
      LOOP:  cpu time   23.1742: real time   24.0336

 eigenvalue-minimisations  :     0
 total energy-change (2. order) :-0.6239704E+00  (-0.2251981E+00)
 number of electron     269.9999992 magnetization      11.7755554
 augmentation part       87.1482342 magnetization       8.0158600

 Free energy of the ion-electron system (eV)
  ---------------------------------------------------
  alpha Z        PSCENC =       798.38614055
  Ewald energy   TEWEN  =    -12901.57693327
  -Hartree energ DENC   =     -2489.03005749
  -exchange      EXHF   =         0.00000000
  -V(xc)+E(xc)   XCENC  =      -999.69537051
  PAW double counting   =     19741.10055206   -18490.42497815
  entropy T*S    EENTRO =        -0.01179424
  eigenvalues    EBANDS =      1287.84834736
  atomic energy  EATOM  =     12697.67401269
  ---------------------------------------------------
  free energy    TOTEN  =      -355.72938520 eV

  energy without entropy =     -355.71759096  energy(sigma->0) =     -355.72545379


--------------------------------------------------------------------------------------------------------




--------------------------------------- Iteration      1(  17)  ---------------------------------------


    POTLOK:  cpu time    0.3917: real time    0.4377
    SETDIJ:  cpu time    0.4635: real time    0.5050
    TRIAL :  cpu time   16.4658: real time   16.5134
    CORREC:  cpu time    5.0450: real time    5.0726
    CHARGE:  cpu time    1.5612: real time    1.5611
    --------------------------------------------
      LOOP:  cpu time   23.9311: real time   24.0945

 eigenvalue-minimisations  :     0
 total energy-change (2. order) :-0.2259243E+00  (-0.2980474E+00)
 number of electron     269.9999992 magnetization      11.7483783
 augmentation part       87.2566583 magnetization       8.1099852

 Free energy of the ion-electron system (eV)
  ---------------------------------------------------
  alpha Z        PSCENC =       798.38614055
  Ewald energy   TEWEN  =    -12901.57693327
  -Hartree energ DENC   =     -2509.99681606
  -exchange      EXHF   =         0.00000000
  -V(xc)+E(xc)   XCENC  =      -998.79883995
  PAW double counting   =     19640.27495248   -18394.10131181
  entropy T*S    EENTRO =        -0.01438488
  eigenvalues    EBANDS =      1312.19528011
  atomic energy  EATOM  =     12697.67401269
  ---------------------------------------------------
  free energy    TOTEN  =      -355.95530951 eV

  energy without entropy =     -355.94092462  energy(sigma->0) =     -355.95051455


--------------------------------------------------------------------------------------------------------




--------------------------------------- Iteration      1(  18)  ---------------------------------------


    POTLOK:  cpu time    0.3932: real time    0.3933
    SETDIJ:  cpu time    0.4605: real time    0.4605
    TRIAL :  cpu time   16.1101: real time   16.2573
    CORREC:  cpu time    5.0314: real time    5.8188
    CHARGE:  cpu time    1.5401: real time    1.5403
    --------------------------------------------
      LOOP:  cpu time   23.5398: real time   24.4763

 eigenvalue-minimisations  :     0
 total energy-change (2. order) :-0.2981674E+00  (-0.9386495E-01)
 number of electron     269.9999992 magnetization      11.8060740
 augmentation part       87.0702611 magnetization       8.1612815

 Free energy of the ion-electron system (eV)
  ---------------------------------------------------
  alpha Z        PSCENC =       798.38614055
  Ewald energy   TEWEN  =    -12901.57693327
  -Hartree energ DENC   =     -2511.70048846
  -exchange      EXHF   =         0.00000000
  -V(xc)+E(xc)   XCENC  =      -998.32783654
  PAW double counting   =     19531.57181711   -18286.29941921
  entropy T*S    EENTRO =        -0.01525057
  eigenvalues    EBANDS =      1314.03361513
  atomic energy  EATOM  =     12697.67401269
  ---------------------------------------------------
  free energy    TOTEN  =      -356.25347688 eV

  energy without entropy =     -356.23822631  energy(sigma->0) =     -356.24839335


--------------------------------------------------------------------------------------------------------




--------------------------------------- Iteration      1(  19)  ---------------------------------------


    POTLOK:  cpu time    0.3923: real time    0.3923
    SETDIJ:  cpu time    0.4598: real time    0.4601
    TRIAL :  cpu time   16.4666: real time   16.5392
    CORREC:  cpu time    5.0324: real time    5.0432
    CHARGE:  cpu time    1.5208: real time    1.5775
    --------------------------------------------
      LOOP:  cpu time   23.8837: real time   24.0254

 eigenvalue-minimisations  :     0
 total energy-change (2. order) :-0.9362731E-01  (-0.4912440E-01)
 number of electron     269.9999992 magnetization      11.8123153
 augmentation part       86.8948022 magnetization       8.1777655

 Free energy of the ion-electron system (eV)
  ---------------------------------------------------
  alpha Z        PSCENC =       798.38614055
  Ewald energy   TEWEN  =    -12901.57693327
  -Hartree energ DENC   =     -2501.47504269
  -exchange      EXHF   =         0.00000000
  -V(xc)+E(xc)   XCENC  =      -998.53595799
  PAW double counting   =     19496.39901241   -18249.13122422
  entropy T*S    EENTRO =        -0.01548662
  eigenvalues    EBANDS =      1301.92813891
  atomic energy  EATOM  =     12697.67401269
  ---------------------------------------------------
  free energy    TOTEN  =      -356.34710419 eV

  energy without entropy =     -356.33161756  energy(sigma->0) =     -356.34194198


--------------------------------------------------------------------------------------------------------




--------------------------------------- Iteration      1(  20)  ---------------------------------------


    POTLOK:  cpu time    0.3920: real time    0.3920
    SETDIJ:  cpu time    0.4687: real time    0.4687
    TRIAL :  cpu time   15.7840: real time   15.9425
    CORREC:  cpu time    5.6527: real time    5.6585
    CHARGE:  cpu time    1.5380: real time    1.5500
    --------------------------------------------
      LOOP:  cpu time   23.8366: real time   24.0140

 eigenvalue-minimisations  :     0
 total energy-change (2. order) :-0.4898281E-01  (-0.6892994E-01)
 number of electron     269.9999992 magnetization      11.8205934
 augmentation part       86.7793852 magnetization       8.2101347

 Free energy of the ion-electron system (eV)
  ---------------------------------------------------
  alpha Z        PSCENC =       798.38614055
  Ewald energy   TEWEN  =    -12901.57693327
  -Hartree energ DENC   =     -2493.37253540
  -exchange      EXHF   =         0.00000000
  -V(xc)+E(xc)   XCENC  =      -998.73772610
  PAW double counting   =     19479.91171014   -18230.91235788
  entropy T*S    EENTRO =        -0.01694587
  eigenvalues    EBANDS =      1292.24708889
  atomic energy  EATOM  =     12697.67401269
  ---------------------------------------------------
  free energy    TOTEN  =      -356.39608700 eV

  energy without entropy =     -356.37914112  energy(sigma->0) =     -356.39043837


--------------------------------------------------------------------------------------------------------




--------------------------------------- Iteration      1(  21)  ---------------------------------------


    POTLOK:  cpu time    0.3932: real time    0.3931
    SETDIJ:  cpu time    0.4574: real time    0.4574
    TRIAL :  cpu time   15.7257: real time   16.5391
    CORREC:  cpu time    5.0558: real time    5.0717
    CHARGE:  cpu time    1.4955: real time    1.5844
    --------------------------------------------
      LOOP:  cpu time   23.1292: real time   24.0483

 eigenvalue-minimisations  :     0
 total energy-change (2. order) :-0.6886654E-01  (-0.4934747E-01)
 number of electron     269.9999992 magnetization      11.8813640
 augmentation part       86.9381704 magnetization       8.2645225

 Free energy of the ion-electron system (eV)
  ---------------------------------------------------
  alpha Z        PSCENC =       798.38614055
  Ewald energy   TEWEN  =    -12901.57693327
  -Hartree energ DENC   =     -2490.20786486
  -exchange      EXHF   =         0.00000000
  -V(xc)+E(xc)   XCENC  =      -998.71105885
  PAW double counting   =     19477.83960888   -18228.12198602
  entropy T*S    EENTRO =        -0.01753749
  eigenvalues    EBANDS =      1288.27007322
  atomic energy  EATOM  =     12697.67401269
  ---------------------------------------------------
  free energy    TOTEN  =      -356.46495353 eV

  energy without entropy =     -356.44741605  energy(sigma->0) =     -356.45910770


--------------------------------------------------------------------------------------------------------




--------------------------------------- Iteration      1(  22)  ---------------------------------------


    POTLOK:  cpu time    0.4101: real time    0.4378
    SETDIJ:  cpu time    0.9311: real time    0.9467
    TRIAL :  cpu time   16.0138: real time   16.0979
    CORREC:  cpu time    5.0428: real time    5.0535
    CHARGE:  cpu time    1.5607: real time    1.5619
    --------------------------------------------
      LOOP:  cpu time   23.9601: real time   24.1000

 eigenvalue-minimisations  :     0
 total energy-change (2. order) :-0.4940089E-01  (-0.1221170E-01)
 number of electron     269.9999992 magnetization      11.8787797
 augmentation part       86.9831590 magnetization       8.2780254

 Free energy of the ion-electron system (eV)
  ---------------------------------------------------
  alpha Z        PSCENC =       798.38614055
  Ewald energy   TEWEN  =    -12901.57693327
  -Hartree energ DENC   =     -2501.09558392
  -exchange      EXHF   =         0.00000000
  -V(xc)+E(xc)   XCENC  =      -998.21250920
  PAW double counting   =     19502.16396135   -18254.69192427
  entropy T*S    EENTRO =        -0.01761666
  eigenvalues    EBANDS =      1300.85601913
  atomic energy  EATOM  =     12697.67401269
  ---------------------------------------------------
  free energy    TOTEN  =      -356.51435443 eV

  energy without entropy =     -356.49673777  energy(sigma->0) =     -356.50848221


--------------------------------------------------------------------------------------------------------




--------------------------------------- Iteration      1(  23)  ---------------------------------------


    POTLOK:  cpu time    0.3922: real time    0.3924
    SETDIJ:  cpu time    0.4145: real time    0.5010
    TRIAL :  cpu time   16.1567: real time   16.2403
    CORREC:  cpu time    5.7456: real time    5.8095
    CHARGE:  cpu time    1.5575: real time    1.5576
    --------------------------------------------
      LOOP:  cpu time   24.2700: real time   24.5049

 eigenvalue-minimisations  :     0
 total energy-change (2. order) :-0.1221734E-01  (-0.1591582E-01)
 number of electron     269.9999992 magnetization      11.9369696
 augmentation part       86.9725049 magnetization       8.3118233

 Free energy of the ion-electron system (eV)
  ---------------------------------------------------
  alpha Z        PSCENC =       798.38614055
  Ewald energy   TEWEN  =    -12901.57693327
  -Hartree energ DENC   =     -2503.85512625
  -exchange      EXHF   =         0.00000000
  -V(xc)+E(xc)   XCENC  =      -998.07522973
  PAW double counting   =     19506.60396340   -18259.70299975
  entropy T*S    EENTRO =        -0.01756833
  eigenvalues    EBANDS =      1304.03721725
  atomic energy  EATOM  =     12697.67401269
  ---------------------------------------------------
  free energy    TOTEN  =      -356.52657176 eV

  energy without entropy =     -356.50900343  energy(sigma->0) =     -356.52071565


--------------------------------------------------------------------------------------------------------




--------------------------------------- Iteration      1(  24)  ---------------------------------------


    POTLOK:  cpu time    0.3921: real time    0.3921
    SETDIJ:  cpu time    0.4771: real time    0.4770
    TRIAL :  cpu time   16.4055: real time   16.5060
    CORREC:  cpu time    5.0622: real time    5.0855
    CHARGE:  cpu time    1.5767: real time    1.5802
    --------------------------------------------
      LOOP:  cpu time   23.9180: real time   24.0462

 eigenvalue-minimisations  :     0
 total energy-change (2. order) :-0.1591597E-01  (-0.1193958E-01)
[...]
   45        0.016   0.023   2.370   2.409
   46       -0.024  -0.018  -2.406  -2.448
   47       -0.019  -0.017  -2.366  -2.401
   48        0.013   0.020   2.239   2.272
   49       -0.024  -0.018  -2.406  -2.448
   50       -0.019  -0.017  -2.357  -2.392
   51        0.013   0.020   2.222   2.255
   52        0.030   0.032   2.236   2.297
   53       -0.013  -0.023  -2.266  -2.301
   54        0.020   0.015   2.401   2.437
--------------------------------------------------
tot         -0.016  -0.064  11.972  11.893
 
    FORLOC:  cpu time    0.0560: real time    0.0619
    FORNL :  cpu time   23.5842: real time   24.3532
    STRESS:  cpu time   34.7430: real time   34.9892
    FORCOR:  cpu time    0.4397: real time    0.4458
    OFIELD:  cpu time    0.0023: real time    0.0023

  FORCE on cell =-STRESS in cart. coord.  units (eV):
  Direction    XX          YY          ZZ          XY          YZ          ZX
  --------------------------------------------------------------------------------------
  Alpha Z   798.38614   798.38614   798.38614
  Ewald   -4053.61603 -4053.61603 -4794.40593    -0.00000    -0.00000    -0.00000
  Hartree  1084.01683  1085.33245   332.00893    -0.00000    -0.00000    -0.00000
  E(xc)   -1141.61706 -1141.86452 -1139.72310    -0.00000     0.00000     0.00000
  Local     369.49218   366.34217  1906.89006    -0.00000     0.00000     0.00000
  n-local  -170.17744  -170.64224  -175.50421     0.38546    -0.26366    -0.27531
  augment   784.47332   785.48491   767.04352     0.00000     0.00001     0.00001
  Kinetic  2334.89107  2337.30287  2307.52790    -2.53606    -1.53433    -1.36536
  Fock        0.00000     0.00000     0.00000     0.00000     0.00000     0.00000
  -------------------------------------------------------------------------------------
  Total       5.84902     6.72576     2.22331     0.00000     0.00000     0.00000
  in kB      13.20047    15.17916     5.01772     0.00000     0.00000     0.00000
  external pressure =       11.13 kB  Pullay stress =        0.00 kB


 VOLUME and BASIS-vectors are now :
 -----------------------------------------------------------------------------
  energy-cutoff  :      404.80
  volume of cell :      709.91
      direct lattice vectors                 reciprocal lattice vectors
     8.250148166  0.000000000  0.000000000     0.121209944  0.000000000  0.000000000
     0.000000000  8.250148166  0.000000000     0.000000000  0.121209944  0.000000000
     0.000000000  0.000000000 10.429911392     0.000000000  0.000000000  0.095878092

  length of vectors
     8.250148166  8.250148166 10.429911392     0.121209944  0.121209944  0.095878092


 FORCES acting on ions:
    Electron-Ion                     Ewald-Force                    Non-Local-Force
 -----------------------------------------------------------------------------------------------
   0.226E-01 -.593E-01 -.301E-01   -.239E-08 -.239E-08 -.210E-08   0.166E-01 -.234E-01 -.155E-02
   0.101E+00 -.134E+00 0.125E+00   -.239E-08 -.239E-08 0.171E-08   -.817E-01 0.643E-01 -.415E-01
   0.354E-04 -.109E-01 -.575E-01   -.239E-08 -.239E-08 0.861E-08   -.973E-02 0.921E-02 0.198E-01
   -.826E-01 0.372E-09 -.148E-01   -.239E-08 -.802E-09 -.210E-08   0.556E-01 0.434E-18 -.522E-01
   0.721E-01 0.372E-09 0.508E-01   -.239E-08 -.802E-09 0.171E-08   -.166E+00 -.434E-18 0.995E-02
   0.899E-02 0.373E-09 0.394E-01   -.239E-08 -.802E-09 0.861E-08   -.998E-02 0.000E+00 -.213E-01
   0.226E-01 0.593E-01 -.301E-01   -.239E-08 0.631E-08 -.210E-08   0.166E-01 0.234E-01 -.155E-02
   0.101E+00 0.134E+00 0.125E+00   -.239E-08 0.631E-08 0.171E-08   -.817E-01 -.643E-01 -.415E-01
   0.354E-04 0.109E-01 -.575E-01   -.239E-08 0.631E-08 0.861E-08   -.973E-02 -.921E-02 0.198E-01
   0.373E-09 0.197E-01 -.169E-01   -.802E-09 -.239E-08 -.210E-08   0.000E+00 0.805E-02 0.634E-01
   0.373E-09 0.265E-01 0.618E-01   -.802E-09 -.239E-08 0.171E-08   0.000E+00 -.149E-01 -.658E-01
   0.373E-09 -.541E-02 -.114E+00   -.803E-09 -.239E-08 0.861E-08   -.813E-19 0.595E-02 0.647E-01
   0.372E-09 0.373E-09 -.645E-02   -.802E-09 -.802E-09 -.210E-08   0.000E+00 0.000E+00 0.404E-01
   0.372E-09 0.373E-09 0.415E-01   -.802E-09 -.802E-09 0.171E-08   0.000E+00 0.000E+00 -.178E-01
   0.373E-09 0.373E-09 -.182E+00   -.803E-09 -.802E-09 0.861E-08   0.000E+00 0.000E+00 0.753E-01
   0.373E-09 -.197E-01 -.169E-01   -.802E-09 0.631E-08 -.210E-08   0.271E-19 -.805E-02 0.634E-01
   0.373E-09 -.265E-01 0.618E-01   -.802E-09 0.631E-08 0.171E-08   0.542E-19 0.149E-01 -.658E-01
   0.373E-09 0.541E-02 -.114E+00   -.803E-09 0.631E-08 0.861E-08   0.000E+00 -.595E-02 0.647E-01
   -.226E-01 -.593E-01 -.301E-01   0.631E-08 -.239E-08 -.210E-08   -.166E-01 -.234E-01 -.155E-02
   -.101E+00 -.134E+00 0.125E+00   0.631E-08 -.239E-08 0.171E-08   0.817E-01 0.643E-01 -.415E-01
   -.354E-04 -.109E-01 -.575E-01   0.631E-08 -.239E-08 0.861E-08   0.973E-02 0.921E-02 0.198E-01
   0.826E-01 0.372E-09 -.148E-01   0.631E-08 -.802E-09 -.210E-08   -.556E-01 0.000E+00 -.522E-01
   -.721E-01 0.372E-09 0.508E-01   0.631E-08 -.802E-09 0.171E-08   0.166E+00 0.000E+00 0.995E-02
   -.899E-02 0.373E-09 0.394E-01   0.631E-08 -.802E-09 0.861E-08   0.998E-02 0.000E+00 -.213E-01
   -.226E-01 0.593E-01 -.301E-01   0.631E-08 0.631E-08 -.210E-08   -.166E-01 0.234E-01 -.155E-02
   -.101E+00 0.134E+00 0.125E+00   0.631E-08 0.631E-08 0.171E-08   0.817E-01 -.643E-01 -.415E-01
   -.354E-04 0.109E-01 -.575E-01   0.631E-08 0.631E-08 0.861E-08   0.973E-02 -.921E-02 0.198E-01
   0.272E+00 -.271E-01 -.625E-01   -.169E-07 -.169E-07 -.180E-07   -.970E-01 0.603E-02 0.969E-01
   0.497E-01 0.304E-01 0.119E+00   -.169E-07 -.169E-07 -.170E-08   -.104E-01 0.504E-03 -.122E+00
   -.427E-01 0.137E-01 0.347E-01   -.169E-07 -.169E-07 0.115E-07   0.262E-01 -.351E-01 -.100E+00
   0.272E+00 0.271E-01 -.625E-01   -.169E-07 0.802E-09 -.180E-07   -.970E-01 -.603E-02 0.969E-01
   0.497E-01 -.304E-01 0.119E+00   -.169E-07 0.802E-09 -.170E-08   -.104E-01 -.504E-03 -.122E+00
   -.427E-01 -.137E-01 0.347E-01   -.169E-07 0.802E-09 0.115E-07   0.262E-01 0.351E-01 -.100E+00
   -.214E+00 -.605E-08 0.174E-01   -.169E-07 0.130E-07 -.180E-07   0.218E+00 0.867E-18 0.602E-01
   -.603E-01 -.605E-08 -.330E-01   -.169E-07 0.130E-07 -.170E-08   0.212E-01 0.108E-18 0.318E-01
   -.746E-01 -.605E-08 -.453E-01   -.169E-07 0.130E-07 0.115E-07   0.126E+00 0.434E-18 -.271E-01
   -.272E+00 -.271E-01 -.625E-01   0.802E-09 -.169E-07 -.180E-07   0.970E-01 0.603E-02 0.969E-01
   -.497E-01 0.304E-01 0.119E+00   0.802E-09 -.169E-07 -.170E-08   0.104E-01 0.504E-03 -.122E+00
   0.427E-01 0.137E-01 0.347E-01   0.802E-09 -.169E-07 0.115E-07   -.262E-01 -.351E-01 -.100E+00
   -.272E+00 0.271E-01 -.625E-01   0.802E-09 0.802E-09 -.180E-07   0.970E-01 -.603E-02 0.969E-01
   -.497E-01 -.304E-01 0.119E+00   0.802E-09 0.802E-09 -.170E-08   0.104E-01 -.504E-03 -.122E+00
   0.427E-01 -.137E-01 0.347E-01   0.802E-09 0.802E-09 0.115E-07   -.262E-01 0.351E-01 -.100E+00
   0.214E+00 -.605E-08 0.174E-01   0.802E-09 0.130E-07 -.180E-07   -.218E+00 -.867E-18 0.602E-01
   0.603E-01 -.605E-08 -.330E-01   0.802E-09 0.130E-07 -.170E-08   -.212E-01 0.000E+00 0.318E-01
   0.746E-01 -.605E-08 -.453E-01   0.802E-09 0.130E-07 0.115E-07   -.126E+00 -.434E-18 -.271E-01
   -.605E-08 0.553E+00 0.238E+00   0.130E-07 -.169E-07 -.180E-07   0.867E-18 -.237E+00 -.214E+00
   -.605E-08 -.973E-02 -.209E+00   0.130E-07 -.169E-07 -.170E-08   -.217E-18 -.356E-01 0.345E+00
   -.605E-08 0.100E+00 -.167E+00   0.130E-07 -.169E-07 0.115E-07   0.000E+00 -.225E-01 0.127E+00
   -.605E-08 -.553E+00 0.238E+00   0.130E-07 0.802E-09 -.180E-07   0.000E+00 0.237E+00 -.214E+00
   -.605E-08 0.973E-02 -.209E+00   0.130E-07 0.802E-09 -.170E-08   0.434E-18 0.356E-01 0.345E+00
   -.605E-08 -.100E+00 -.167E+00   0.130E-07 0.802E-09 0.115E-07   0.000E+00 0.225E-01 0.127E+00
   -.605E-08 -.605E-08 -.157E+00   0.130E-07 0.130E-07 -.180E-07   0.000E+00 0.000E+00 0.111E+00
   -.605E-08 -.605E-08 0.294E+00   0.130E-07 0.130E-07 -.170E-08   0.000E+00 0.000E+00 -.356E+00
   -.605E-08 -.605E-08 0.805E-01   0.130E-07 0.130E-07 0.115E-07   0.000E+00 0.000E+00 -.114E+00
 -----------------------------------------------------------------------------------------------
   -.361E-07 -.358E-07 0.212E+00   -.614E-13 -.142E-13 0.128E-13   -.822E-16 -.104E-16 -.212E+00
 
 
 POSITION                                       TOTAL-FORCE (eV/Angst)
 -----------------------------------------------------------------------------------
      0.00000      0.00000      0.00000         0.037326     -0.080424     -0.030224
      0.00000      0.00000      3.47664         0.026310     -0.075094      0.086044
      0.00000      0.00000      6.95327        -0.008968     -0.002562     -0.039725
      0.00000      2.75005      0.00000        -0.032433      0.000000     -0.061003
      0.00000      2.75005      3.47664        -0.079669      0.000000      0.058652
      0.00000      2.75005      6.95327        -0.000188      0.000000      0.020688
      0.00000      5.50010      0.00000         0.037326      0.080424     -0.030224
      0.00000      5.50010      3.47664         0.026310      0.075094      0.086044
      0.00000      5.50010      6.95327        -0.008968      0.002562     -0.039725
      2.75005      0.00000      0.00000         0.000000      0.027488      0.041443
      2.75005      0.00000      3.47664         0.000000      0.013232      0.001424
      2.75005      0.00000      6.95327         0.000000      0.000121     -0.055164
      2.75005      2.75005      0.00000         0.000000      0.000000      0.031108
      2.75005      2.75005      3.47664         0.000000      0.000000      0.024572
      2.75005      2.75005      6.95327         0.000000      0.000000     -0.114859
      2.75005      5.50010      0.00000         0.000000     -0.027488      0.041443
      2.75005      5.50010      3.47664         0.000000     -0.013232      0.001424
      2.75005      5.50010      6.95327         0.000000     -0.000121     -0.055164
      5.50010      0.00000      0.00000        -0.037326     -0.080424     -0.030224
      5.50010      0.00000      3.47664        -0.026310     -0.075094      0.086044
      5.50010      0.00000      6.95327         0.008968     -0.002562     -0.039725
      5.50010      2.75005      0.00000         0.032433      0.000000     -0.061003
      5.50010      2.75005      3.47664         0.079669      0.000000      0.058652
      5.50010      2.75005      6.95327         0.000188      0.000000      0.020688
      5.50010      5.50010      0.00000        -0.037326      0.080424     -0.030224
      5.50010      5.50010      3.47664        -0.026310      0.075094      0.086044
      5.50010      5.50010      6.95327         0.008968      0.002562     -0.039725
      1.37502      1.37502      1.73832         0.178072     -0.021715      0.028554
      1.37502      1.37502      5.21496         0.038878      0.031125     -0.001239
      1.37502      1.37502      8.69159        -0.014283     -0.021133     -0.056928
      1.37502      4.12507      1.73832         0.178072      0.021715      0.028554
      1.37502      4.12507      5.21496         0.038878     -0.031125     -0.001239
      1.37502      4.12507      8.69159        -0.014283      0.021133     -0.056928
      1.37502      6.87512      1.73832         0.001079      0.000000      0.070045
      1.37502      6.87512      5.21496        -0.039584      0.000000     -0.004411
      1.37502      6.87512      8.69159         0.050222      0.000000     -0.064762
      4.12507      1.37502      1.73832        -0.178072     -0.021715      0.028554
      4.12507      1.37502      5.21496        -0.038878      0.031125     -0.001239
      4.12507      1.37502      8.69159         0.014283     -0.021133     -0.056928
      4.12507      4.12507      1.73832        -0.178072      0.021715      0.028554
      4.12507      4.12507      5.21496        -0.038878     -0.031125     -0.001239
      4.12507      4.12507      8.69159         0.014283      0.021133     -0.056928
      4.12507      6.87512      1.73832        -0.001079      0.000000      0.070045
      4.12507      6.87512      5.21496         0.039584      0.000000     -0.004411
      4.12507      6.87512      8.69159        -0.050222      0.000000     -0.064762
      6.87512      1.37502      1.73832         0.000000      0.324308      0.029784
      6.87512      1.37502      5.21496         0.000000     -0.043370      0.127523
      6.87512      1.37502      8.69159         0.000000      0.077193     -0.041592
      6.87512      4.12507      1.73832         0.000000     -0.324308      0.029784
      6.87512      4.12507      5.21496         0.000000      0.043370      0.127523
      6.87512      4.12507      8.69159         0.000000     -0.077193     -0.041592
      6.87512      6.87512      1.73832         0.000000      0.000000     -0.050457
      6.87512      6.87512      5.21496         0.000000      0.000000     -0.055175
      6.87512      6.87512      8.69159         0.000000      0.000000     -0.026377
 -----------------------------------------------------------------------------------
    total drift:                               -0.000000     -0.000000     -0.000013


--------------------------------------------------------------------------------------------------------



  FREE ENERGIE OF THE ION-ELECTRON SYSTEM (eV)
  ---------------------------------------------------
  free  energy   TOTEN  =      -356.58703838 eV

  energy  without entropy=     -356.57139669  energy(sigma->0) =     -356.58182448
 


--------------------------------------------------------------------------------------------------------


    POTLOK:  cpu time    0.8257: real time    0.8816


--------------------------------------------------------------------------------------------------------


     LOOP+:  cpu time 1710.0447: real time 1742.6299
    4ORBIT:  cpu time    0.0000: real time    0.0000
 


 total charge     
 
# of ion       s       p       d       tot
------------------------------------------
    1        0.404   0.429   0.000   0.834
    2        0.405   0.428   0.000   0.834
    3        0.405   0.427   0.000   0.832
    4        0.405   0.429   0.000   0.834
    5        0.405   0.428   0.000   0.834
    6        0.405   0.427   0.000   0.833
    7        0.404   0.430   0.000   0.834
    8        0.405   0.428   0.000   0.833
    9        0.405   0.427   0.000   0.832
   10        0.404   0.428   0.000   0.832
   11        0.405   0.426   0.000   0.831
   12        0.405   0.428   0.000   0.833
   13        0.404   0.427   0.000   0.832
   14        0.405   0.426   0.000   0.831
   15        0.405   0.427   0.000   0.832
   16        0.404   0.428   0.000   0.832
   17        0.405   0.426   0.000   0.831
   18        0.405   0.428   0.000   0.833
   19        0.405   0.430   0.000   0.834
   20        0.405   0.428   0.000   0.834
   21        0.405   0.427   0.000   0.832
   22        0.405   0.429   0.000   0.834
   23        0.405   0.429   0.000   0.834
   24        0.405   0.427   0.000   0.832
   25        0.404   0.430   0.000   0.834
   26        0.405   0.428   0.000   0.833
   27        0.405   0.427   0.000   0.832
   28        0.333   0.354   5.126   5.814
   29        0.334   0.352   5.141   5.826
   30        0.333   0.350   5.141   5.825
   31        0.334   0.355   5.133   5.822
   32        0.334   0.352   5.142   5.827
   33        0.333   0.350   5.145   5.828
   34        0.331   0.353   5.137   5.821
   35        0.335   0.350   5.141   5.826
   36        0.334   0.352   5.137   5.823
   37        0.333   0.355   5.133   5.822
   38        0.333   0.352   5.127   5.813
   39        0.333   0.351   5.130   5.815
   40        0.333   0.355   5.127   5.815
   41        0.334   0.352   5.128   5.813
   42        0.333   0.351   5.130   5.815
   43        0.331   0.353   5.139   5.823
   44        0.335   0.350   5.132   5.817
   45        0.334   0.352   5.131   5.818
   46        0.334   0.355   5.128   5.817
   47        0.335   0.350   5.136   5.820
   48        0.331   0.353   5.129   5.813
   49        0.334   0.355   5.128   5.817
   50        0.335   0.349   5.139   5.823
   51        0.331   0.352   5.143   5.826
   52        0.331   0.358   5.131   5.821
   53        0.334   0.353   5.131   5.819
   54        0.334   0.349   5.138   5.821
--------------------------------------------------
tot         19.936  21.064 138.625 179.625
 


 magnetization (x)
 
# of ion       s       p       d       tot
------------------------------------------
    1       -0.017  -0.029   0.000  -0.046
    2        0.005   0.010   0.000   0.015
    3       -0.000   0.000   0.000   0.000
    4       -0.012  -0.021   0.000  -0.033
    5        0.009   0.020   0.000   0.029
    6       -0.000   0.002   0.000   0.002
    7       -0.016  -0.030   0.000  -0.046
    8        0.005   0.011   0.000   0.016
    9       -0.000   0.000   0.000   0.000
   10       -0.022  -0.037   0.000  -0.059
   11        0.000   0.002   0.000   0.002
   12       -0.000   0.001   0.000   0.000
   13       -0.021  -0.035   0.000  -0.056
   14        0.002   0.005   0.000   0.006
   15        0.000  -0.002   0.000  -0.002
   16       -0.022  -0.037   0.000  -0.059
   17        0.000   0.002   0.000   0.002
   18       -0.000   0.001   0.000   0.001
   19       -0.017  -0.029   0.000  -0.045
   20        0.005   0.009   0.000   0.014
   21        0.000   0.000   0.000   0.000
   22       -0.012  -0.020   0.000  -0.032
   23        0.010   0.019   0.000   0.028
   24       -0.000   0.002   0.000   0.002
   25       -0.017  -0.029   0.000  -0.046
   26        0.005   0.010   0.000   0.015
   27        0.000   0.000   0.000   0.000
   28        0.021   0.020   2.383   2.424
   29       -0.014  -0.019  -2.274  -2.307
   30        0.018   0.019   2.365   2.402
   31        0.021   0.021   2.384   2.426
   32       -0.014  -0.019  -2.271  -2.304
   33        0.018   0.019   2.363   2.400
   34        0.010   0.009   2.328   2.347
   35       -0.016  -0.015  -2.296  -2.327
   36        0.016   0.023   2.362   2.401
   37        0.021   0.021   2.384   2.426
   38       -0.015  -0.019  -2.295  -2.329
   39        0.018   0.019   2.383   2.420
   40        0.021   0.021   2.379   2.420
   41       -0.014  -0.019  -2.288  -2.321
   42        0.018   0.018   2.380   2.417
   43        0.010   0.009   2.327   2.346
   44       -0.016  -0.015  -2.306  -2.337
   45        0.016   0.023   2.370   2.409
   46       -0.024  -0.018  -2.406  -2.448
   47       -0.019  -0.017  -2.366  -2.401
   48        0.013   0.020   2.239   2.272
   49       -0.024  -0.018  -2.406  -2.448
   50       -0.019  -0.017  -2.357  -2.392
   51        0.013   0.020   2.222   2.255
   52        0.030   0.032   2.236   2.297
   53       -0.013  -0.023  -2.266  -2.301
   54        0.020   0.015   2.401   2.437
--------------------------------------------------
tot         -0.016  -0.064  11.972  11.893
 

 total amount of memory used by VASP MPI-rank0   887625. kBytes
=======================================================================

   base      :      30000. kBytes
   nonl-proj :      28494. kBytes
   fftplans  :      31580. kBytes
   grid      :      21385. kBytes
   one-center:        435. kBytes
   wavefun   :     775731. kBytes
 
  
  
 General timing and accounting informations for this job:
 ========================================================
  
                  Total CPU time used (sec):     1742.078
                            User time (sec):     1716.982
                          System time (sec):       25.096
                         Elapsed time (sec):     1778.863
  
                   Maximum memory used (kb):     1057240.
                   Average memory used (kb):           0.
  
                          Minor page faults:       588388
                          Major page faults:           20
                 Voluntary context switches:         2946
