   36   36    1    2
  0.1314651E+02  0.8250148E-09  0.8250148E-09  0.6953274E-09  0.2000000E-15
  1.000000000000000E-004
  CAR 
 AlMn_pv                                 
    180     52    116
 
  0.0000000E+00  0.0000000E+00  0.0000000E+00  0.6666667E-02
    1       -2.532421     -2.509794   1.000000   1.000000
    2       -0.374633     -0.355159   1.000000   1.000000
    3       -0.369480     -0.345027   1.000000   1.000000
    4       -0.337838     -0.306805   1.000000   1.000000
    5       -0.319435     -0.295295   1.000000   1.000000
    6       -0.121625     -0.128920   1.000000   1.000000
    7        1.339197      1.382467   1.000000   1.000000
    8        1.347541      1.388965   1.000000   1.000000
    9        1.356890      1.429230   1.000000   1.000000
   10        1.395749      1.430277   1.000000   1.000000
   11        1.403563      1.449012   1.000000   1.000000
   12        1.549924      1.588108   1.000000   1.000000
   13        1.562188      1.609603   1.000000   1.000000
   14        1.568183      1.623659   1.000000   1.000000
   15        1.595023      1.631016   1.000000   1.000000
   16        2.703139      2.806604   1.000000   1.000000
   17        2.730794      2.814801   1.000000   1.000000
   18        2.744246      2.851628   1.000000   1.000000
   19        2.766079      2.862411   1.000000   1.000000
   20        3.450698      3.536310   1.000000   1.000000
   21        3.480535      3.544946   1.000000   1.000000
   22        3.552342      3.638317   1.000000   1.000000
   23        3.577073      3.665016   1.000000   1.000000
   24        4.034848      4.160634   1.000000   1.000000
   25        4.160670      4.325813   1.000000   1.000000
   26        4.248935      4.426365   1.000000   1.000000
   27        4.402494      4.566138   1.000000   1.000000
   28        4.497432      4.586269   1.000000   1.000000
   29        4.510409      4.678929   1.000000   1.000000
   30        4.562410      4.727981   1.000000   1.000000
   31        4.621174      4.766712   1.000000   1.000000
   32        4.681687      4.855410   1.000000   1.000000
   33        4.693772      4.921576   1.000000   1.000000
   34        4.713286      4.931462   1.000000   1.000000
   35        4.742021      5.003871   1.000000   1.000000
   36        4.801442      5.022447   1.000000   1.000000
   37        4.806354      5.049244   1.000000   1.000000
   38        4.823886      5.070346   1.000000   1.000000
   39        4.903107      5.148815   1.000000   1.000000
   40        4.954552      5.206485   1.000000   1.000000
   41        5.221099      5.368941   1.000000   1.000000
   42        5.243413      5.401160   1.000000   1.000000
   43        5.257924      5.423701   1.000000   1.000000
   44        5.315351      5.507173   1.000000   1.000000
   45        5.335412      5.508232   1.000000   1.000000
   46        5.362062      5.587912   1.000000   1.000000
   47        5.372407      5.615851   1.000000   1.000000
   48        5.410107      5.706352   1.000000   1.000000
   49        5.426639      5.749829   1.000000   1.000000
   50        5.462525      5.770870   1.000000   1.000000
   51        5.589985      5.804487   1.000000   1.000000
   52        5.613790      5.852667   1.000000   1.000000
   53        5.622517      5.951861   1.000000   1.000000
   54        5.695480      6.004759   1.000000   1.000000
   55        5.713843      6.179330   1.000000   1.000000
   56        5.760841      6.233485   1.000000   1.000000
   57        5.775705      6.258510   1.000000   1.000000
   58        5.900682      6.295857   1.000000   1.000000
   59        5.937490      6.358274   1.000000   1.000000
   60        5.961082      6.421940   1.000000   1.000000
   61        6.037826      6.494015   1.000000   1.000000
   62        6.194744      6.543692   1.000000   1.000000
   63        6.298155      6.563918   1.000000   1.000000
   64        6.335671      6.653652   1.000000   1.000000
   65        6.342597      6.655091   1.000000   1.000000
   66        6.374606      6.664383   1.000000   1.000000
   67        6.388214      6.693779   1.000000   1.000000
   68        6.429088      6.720259   1.000000   1.000000
   69        6.464946      6.747760   1.000000   1.000000
   70        6.499286      6.766622   1.000000   1.000000
   71        6.502527      6.789539   1.000000   1.000000
   72        6.563247      6.871817   1.000000   1.000000
   73        6.622227      6.883892   1.000000   1.000000
   74        6.636447      6.909516   1.000000   1.000000
   75        6.693409      7.013925   1.000000   1.000001
   76        6.706651      7.234749   1.000000   1.000770
   77        6.710513      7.258194   1.000000   1.001312
   78        6.729739      7.283681   1.000000   1.002256
   79        6.767167      7.312153   1.000000   1.003946
   80        6.768753      7.411513   1.000000   1.018316
   81        6.883917      7.453196   1.000000   1.027787
   82        6.953561      7.536066   1.000000   1.031715
   83        6.990113      7.587502   1.000000   0.996252
   84        6.998282      7.687207   1.000001   0.760844
   85        7.106723      7.771490   1.000025   0.420506
   86        7.133699      7.849550   1.000055   0.138263
   87        7.185772      7.863886   1.000229   0.100451
   88        7.240599      7.947663   1.000884  -0.022411
   89        7.396035      8.006068   1.015108  -0.035192
   90        7.404014      8.094083   1.016728  -0.018220
   91        7.413617      8.108096   1.018778  -0.015297
   92        7.491123      8.159546   1.034523  -0.007131
   93        7.530697      8.233632   1.033068  -0.001747
   94        7.584584      8.236073   0.999537  -0.001659
   95        7.711424      8.372011   0.669689  -0.000054
   96        7.805887      8.429226   0.282928  -0.000009
   97        7.925510      8.488114  -0.004830  -0.000001
   98        8.009899      8.556433  -0.034916  -0.000000
   99        8.026891      8.605497  -0.032762  -0.000000
  100        8.074807      8.609364  -0.022540  -0.000000
  101        8.116571      8.675213  -0.013679  -0.000000
  102        8.233850      8.711565  -0.001740  -0.000000
  103        8.257156      8.809646  -0.001044  -0.000000
  104        8.283774      8.828986  -0.000560  -0.000000
  105        8.313063      8.872036  -0.000270  -0.000000
  106        8.528701      8.904603  -0.000000  -0.000000
  107        8.551817      8.916335  -0.000000  -0.000000
  108        8.600974      8.921059  -0.000000  -0.000000
  109        8.633211      8.928074  -0.000000  -0.000000
  110        8.694713      8.963301  -0.000000  -0.000000
  111        8.780787      8.974415  -0.000000  -0.000000
  112        8.794621      8.987305  -0.000000  -0.000000
  113        8.814669      9.031430  -0.000000  -0.000000
  114        8.846546      9.072674  -0.000000  -0.000000
  115        8.902602      9.089817  -0.000000  -0.000000
  116        9.228662      9.180927  -0.000000  -0.000000
 
  0.2000000E+00  0.0000000E+00  0.0000000E+00  0.1333333E-01
    1       -2.441909     -2.419277   1.000000   1.000000
    2       -1.116058     -1.093051   1.000000   1.000000
    3       -0.290155     -0.265461   1.000000   1.000000
    4       -0.245230     -0.219334   1.000000   1.000000
    5       -0.056390     -0.062452   1.000000   1.000000
    6        0.551906      0.579977   1.000000   1.000000
    7        0.872301      0.890832   1.000000   1.000000
    8        0.901200      0.934938   1.000000   1.000000
    9        0.931427      0.964668   1.000000   1.000000
   10        1.405761      1.449010   1.000000   1.000000
   11        1.453226      1.506071   1.000000   1.000000
   12        1.459696      1.528350   1.000000   1.000000
   13        1.889546      1.959816   1.000000   1.000000
   14        2.268431      2.331409   1.000000   1.000000
   15        2.278691      2.356991   1.000000   1.000000
   16        2.302921      2.367628   1.000000   1.000000
   17        2.307335      2.377742   1.000000   1.000000
   18        2.797009      2.871782   1.000000   1.000000
   19        3.144197      3.276761   1.000000   1.000000
   20        3.233747      3.363845   1.000000   1.000000
   21        3.534482      3.615457   1.000000   1.000000
   22        3.627435      3.712776   1.000000   1.000000
   23        3.711221      3.774615   1.000000   1.000000
   24        4.018305      4.137450   1.000000   1.000000
   25        4.123649      4.270936   1.000000   1.000000
   26        4.191715      4.351843   1.000000   1.000000
   27        4.265747      4.373327   1.000000   1.000000
   28        4.393881      4.615672   1.000000   1.000000
   29        4.496141      4.639876   1.000000   1.000000
   30        4.507873      4.703655   1.000000   1.000000
   31        4.529177      4.708524   1.000000   1.000000
   32        4.535973      4.762149   1.000000   1.000000
   33        4.601390      4.821137   1.000000   1.000000
   34        4.636078      4.848643   1.000000   1.000000
   35        4.809558      4.981771   1.000000   1.000000
   36        4.879614      5.015186   1.000000   1.000000
   37        4.883891      5.078863   1.000000   1.000000
   38        4.923570      5.105312   1.000000   1.000000
   39        4.940808      5.152941   1.000000   1.000000
   40        4.953000      5.207607   1.000000   1.000000
   41        5.072440      5.229984   1.000000   1.000000
   42        5.191389      5.381427   1.000000   1.000000
   43        5.233511      5.385939   1.000000   1.000000
   44        5.239451      5.464517   1.000000   1.000000
   45        5.332278      5.532230   1.000000   1.000000
   46        5.356756      5.599271   1.000000   1.000000
   47        5.365183      5.617969   1.000000   1.000000
   48        5.396071      5.620130   1.000000   1.000000
   49        5.465636      5.789285   1.000000   1.000000
   50        5.531806      5.849689   1.000000   1.000000
   51        5.592982      5.891818   1.000000   1.000000
   52        5.631832      5.953410   1.000000   1.000000
   53        5.682570      5.953725   1.000000   1.000000
   54        5.721374      5.988366   1.000000   1.000000
   55        5.764087      6.198978   1.000000   1.000000
   56        5.769506      6.262662   1.000000   1.000000
   57        5.855714      6.277234   1.000000   1.000000
   58        5.873295      6.317073   1.000000   1.000000
   59        5.950509      6.362663   1.000000   1.000000
   60        6.055922      6.419152   1.000000   1.000000
   61        6.059183      6.450950   1.000000   1.000000
   62        6.207037      6.494094   1.000000   1.000000
   63        6.265909      6.571327   1.000000   1.000000
   64        6.284444      6.587417   1.000000   1.000000
   65        6.336555      6.613335   1.000000   1.000000
   66        6.338044      6.660331   1.000000   1.000000
   67        6.365805      6.691011   1.000000   1.000000
   68        6.408290      6.710312   1.000000   1.000000
   69        6.452380      6.744017   1.000000   1.000000
   70        6.475047      6.768235   1.000000   1.000000
   71        6.509337      6.774251   1.000000   1.000000
   72        6.526365      6.826140   1.000000   1.000000
   73        6.575859      6.924832   1.000000   1.000000
   74        6.608662      6.936863   1.000000   1.000000
   75        6.673242      7.026691   1.000000   1.000002
   76        6.690183      7.159132   1.000000   1.000112
   77        6.705484      7.258078   1.000000   1.001309
   78        6.709571      7.262973   1.000000   1.001457
   79        6.765155      7.343330   1.000000   1.006868
   80        6.773521      7.388503   1.000000   1.013659
   81        6.802312      7.422283   1.000000   1.020712
   82        6.870479      7.568105   1.000000   1.015086
   83        6.911212      7.587635   1.000000   0.996108
   84        6.967661      7.635433   1.000000   0.913433
   85        7.005719      7.744381   1.000001   0.534664
   86        7.086059      7.765721   1.000013   0.444641
   87        7.182118      7.917029   1.000208   0.004457
   88        7.288019      8.011810   1.002464  -0.034745
   89        7.339533      8.057555   1.006441  -0.026521
   90        7.344169      8.076005   1.006965  -0.022272
   91        7.440929      8.127271   1.025005  -0.011768
   92        7.508111      8.150881   1.035457  -0.008208
   93        7.601876      8.204028   0.977144  -0.003192
   94        7.684921      8.262463   0.768796  -0.000925
   95        7.712667      8.323087   0.664752  -0.000208
   96        7.841900      8.323772   0.160521  -0.000204
   97        7.919695      8.446200   0.001379  -0.000005
   98        7.985773      8.533850  -0.034883  -0.000000
   99        7.999387      8.574675  -0.035444  -0.000000
  100        8.131552      8.577651  -0.011058  -0.000000
  101        8.164401      8.699736  -0.006575  -0.000000
  102        8.224654      8.705148  -0.002109  -0.000000
  103        8.272095      8.815997  -0.000740  -0.000000
  104        8.317190      8.897939  -0.000243  -0.000000
  105        8.348172      8.908043  -0.000106  -0.000000
  106        8.384873      8.916016  -0.000037  -0.000000
  107        8.596557      8.954440  -0.000000  -0.000000
  108        8.640190      8.979640  -0.000000  -0.000000
  109        8.690813      9.023941  -0.000000  -0.000000
  110        8.756662      9.043874  -0.000000  -0.000000
  111        8.838560      9.057774  -0.000000  -0.000000
  112        8.851703      9.069701  -0.000000  -0.000000
  113        8.913501      9.111298  -0.000000  -0.000000
  114        8.980965      9.124349  -0.000000  -0.000000
  115        9.189382      9.233463  -0.000000  -0.000000
  116        9.195577      9.342685  -0.000000  -0.000000
 
  0.4000000E+00  0.0000000E+00  0.0000000E+00  0.1333333E-01
    1       -2.172194     -2.149391   1.000000   1.000000
    2       -1.726602     -1.704251   1.000000   1.000000
    3       -0.044208     -0.017912   1.000000   1.000000
    4       -0.001715      0.024887   1.000000   1.000000
    5        0.136783      0.134496   1.000000   1.000000
    6        0.358823      0.386953   1.000000   1.000000
    7        0.397435      0.426310   1.000000   1.000000
    8        0.452261      0.458330   1.000000   1.000000
    9        1.559233      1.596393   1.000000   1.000000
   10        1.588745      1.637654   1.000000   1.000000
   11        1.638541      1.690810   1.000000   1.000000
   12        1.732539      1.807423   1.000000   1.000000
   13        1.889208      1.948757   1.000000   1.000000
   14        1.932152      1.988424   1.000000   1.000000
   15        2.194989      2.268075   1.000000   1.000000
   16        2.277551      2.387914   1.000000   1.000000
   17        2.660809      2.698298   1.000000   1.000000
   18        2.872228      2.965111   1.000000   1.000000
   19        2.996268      3.105569   1.000000   1.000000
   20        3.447479      3.625107   1.000000   1.000000
   21        3.678852      3.815239   1.000000   1.000000
   22        3.723571      3.849706   1.000000   1.000000
   23        3.781537      3.871768   1.000000   1.000000
   24        3.950553      4.049563   1.000000   1.000000
   25        3.972280      4.078779   1.000000   1.000000
   26        4.065208      4.217593   1.000000   1.000000
   27        4.129655      4.292160   1.000000   1.000000
   28        4.175788      4.314175   1.000000   1.000000
   29        4.238869      4.422693   1.000000   1.000000
   30        4.376224      4.544400   1.000000   1.000000
   31        4.393228      4.598663   1.000000   1.000000
   32        4.533831      4.639358   1.000000   1.000000
   33        4.648628      4.748364   1.000000   1.000000
   34        4.676282      4.877697   1.000000   1.000000
   35        4.791612      4.943963   1.000000   1.000000
   36        4.838682      5.029714   1.000000   1.000000
   37        4.874007      5.091062   1.000000   1.000000
   38        4.980037      5.121776   1.000000   1.000000
   39        5.005810      5.141436   1.000000   1.000000
   40        5.068803      5.281023   1.000000   1.000000
   41        5.109383      5.336711   1.000000   1.000000
   42        5.150116      5.365626   1.000000   1.000000
   43        5.200462      5.410114   1.000000   1.000000
   44        5.229664      5.472656   1.000000   1.000000
   45        5.285047      5.542124   1.000000   1.000000
   46        5.357144      5.544745   1.000000   1.000000
   47        5.406043      5.620645   1.000000   1.000000
   48        5.447222      5.635207   1.000000   1.000000
   49        5.507514      5.801566   1.000000   1.000000
   50        5.548953      5.827756   1.000000   1.000000
   51        5.584260      5.897402   1.000000   1.000000
   52        5.602687      5.929410   1.000000   1.000000
   53        5.656827      5.995156   1.000000   1.000000
   54        5.722407      6.108335   1.000000   1.000000
   55        5.741633      6.203205   1.000000   1.000000
   56        5.778063      6.213268   1.000000   1.000000
   57        5.932241      6.249695   1.000000   1.000000
   58        5.953054      6.306847   1.000000   1.000000
   59        6.033615      6.333710   1.000000   1.000000
   60        6.092524      6.347126   1.000000   1.000000
   61        6.133129      6.404085   1.000000   1.000000
   62        6.159371      6.434733   1.000000   1.000000
   63        6.203203      6.472188   1.000000   1.000000
   64        6.245248      6.512163   1.000000   1.000000
   65        6.262275      6.553707   1.000000   1.000000
   66        6.287275      6.696208   1.000000   1.000000
   67        6.326536      6.706441   1.000000   1.000000
   68        6.365799      6.739532   1.000000   1.000000
   69        6.403949      6.741947   1.000000   1.000000
   70        6.416473      6.777055   1.000000   1.000000
   71        6.463038      6.801180   1.000000   1.000000
   72        6.503746      6.834740   1.000000   1.000000
   73        6.547813      6.932174   1.000000   1.000000
   74        6.550252      6.994427   1.000000   1.000001
   75        6.636773      7.042873   1.000000   1.000003
   76        6.656752      7.109321   1.000000   1.000026
   77        6.680881      7.222705   1.000000   1.000579
   78        6.708919      7.245630   1.000000   1.000990
   79        6.735386      7.334785   1.000000   1.005937
   80        6.754903      7.387143   1.000000   1.013411
   81        6.776464      7.470611   1.000000   1.031408
   82        6.818417      7.526548   1.000000   1.033890
   83        6.885610      7.696616   1.000000   0.726757
   84        6.903826      7.710166   1.000000   0.674954
   85        6.980374      7.716423   1.000000   0.650305
   86        7.099106      7.750344   1.000019   0.509521
   87        7.113309      7.913827   1.000030   0.008349
   88        7.209050      7.932892   1.000415  -0.011696
   89        7.315281      8.033128   1.004182  -0.031668
   90        7.417595      8.120168   1.019655  -0.013009
   91        7.437242      8.125339   1.024159  -0.012100
   92        7.565133      8.161862   1.017327  -0.006861
   93        7.651717      8.169285   0.872423  -0.006046
   94        7.719662      8.211832   0.636735  -0.002741
   95        7.755728      8.255590   0.486540  -0.001081
   96        7.837251      8.282149   0.174709  -0.000583
   97        7.880563      8.367088   0.062844  -0.000062
   98        7.964476      8.414545  -0.030260  -0.000015
   99        8.002442      8.446770  -0.035367  -0.000005
  100        8.030842      8.594428  -0.032083  -0.000000
  101        8.148316      8.637494  -0.008558  -0.000000
  102        8.211831      8.707283  -0.002741  -0.000000
  103        8.222933      8.778714  -0.002188  -0.000000
  104        8.290454      8.785111  -0.000476  -0.000000
  105        8.350794      8.905898  -0.000098  -0.000000
  106        8.400064      8.937547  -0.000023  -0.000000
  107        8.513446      8.965909  -0.000001  -0.000000
  108        8.587012      8.987622  -0.000000  -0.000000
  109        8.741751      9.081325  -0.000000  -0.000000
  110        8.868375      9.109243  -0.000000  -0.000000
  111        8.902819      9.134454  -0.000000  -0.000000
  112        9.027525      9.189711  -0.000000  -0.000000
  113        9.067202      9.218787  -0.000000  -0.000000
  114        9.100090      9.404278  -0.000000  -0.000000
  115        9.210677      9.479324  -0.000000  -0.000000
  116        9.496187      9.635018  -0.000000  -0.000000
 
  0.0000000E+00  0.2000000E+00  0.0000000E+00  0.1333333E-01
    1       -2.441888     -2.419339   1.000000   1.000000
    2       -1.116179     -1.092537   1.000000   1.000000
    3       -0.284491     -0.261645   1.000000   1.000000
    4       -0.251059     -0.224325   1.000000   1.000000
    5       -0.056442     -0.062301   1.000000   1.000000
    6        0.552185      0.580315   1.000000   1.000000
    7        0.871619      0.892043   1.000000   1.000000
    8        0.906808      0.939291   1.000000   1.000000
    9        0.925897      0.960887   1.000000   1.000000
   10        1.409337      1.451667   1.000000   1.000000
   11        1.453210      1.496145   1.000000   1.000000
   12        1.458290      1.528033   1.000000   1.000000
   13        1.887756      1.967213   1.000000   1.000000
   14        2.268583      2.333320   1.000000   1.000000
   15        2.281186      2.355514   1.000000   1.000000
   16        2.301782      2.365434   1.000000   1.000000
   17        2.307163      2.379000   1.000000   1.000000
   18        2.797681      2.874045   1.000000   1.000000
   19        3.160655      3.287582   1.000000   1.000000
   20        3.208909      3.349608   1.000000   1.000000
   21        3.539301      3.616037   1.000000   1.000000
   22        3.619517      3.702342   1.000000   1.000000
   23        3.711582      3.779178   1.000000   1.000000
   24        4.016879      4.136720   1.000000   1.000000
   25        4.123034      4.269062   1.000000   1.000000
   26        4.206213      4.361366   1.000000   1.000000
   27        4.274224      4.384346   1.000000   1.000000
   28        4.340702      4.568690   1.000000   1.000000
   29        4.491890      4.629278   1.000000   1.000000
   30        4.500005      4.706764   1.000000   1.000000
   31        4.541581      4.742300   1.000000   1.000000
   32        4.567379      4.753835   1.000000   1.000000
   33        4.622533      4.808471   1.000000   1.000000
   34        4.660160      4.876604   1.000000   1.000000
   35        4.773046      4.969161   1.000000   1.000000
   36        4.870263      5.002664   1.000000   1.000000
   37        4.877427      5.091366   1.000000   1.000000
   38        4.922124      5.148465   1.000000   1.000000
   39        4.926202      5.160490   1.000000   1.000000
   40        4.953706      5.171546   1.000000   1.000000
   41        5.077028      5.239574   1.000000   1.000000
   42        5.229103      5.398066   1.000000   1.000000
   43        5.231558      5.430522   1.000000   1.000000
   44        5.275135      5.475377   1.000000   1.000000
   45        5.336209      5.530215   1.000000   1.000000
   46        5.340345      5.581275   1.000000   1.000000
   47        5.396623      5.614468   1.000000   1.000000
   48        5.427166      5.713968   1.000000   1.000000
   49        5.456007      5.743159   1.000000   1.000000
   50        5.562475      5.799038   1.000000   1.000000
   51        5.612143      5.876020   1.000000   1.000000
   52        5.628209      5.927216   1.000000   1.000000
   53        5.699732      5.970043   1.000000   1.000000
   54        5.707402      6.023561   1.000000   1.000000
   55        5.754885      6.157721   1.000000   1.000000
   56        5.776422      6.223497   1.000000   1.000000
   57        5.818763      6.249467   1.000000   1.000000
   58        5.849929      6.296182   1.000000   1.000000
   59        5.955648      6.367332   1.000000   1.000000
   60        5.960924      6.401426   1.000000   1.000000
   61        6.065112      6.445996   1.000000   1.000000
   62        6.197796      6.455523   1.000000   1.000000
   63        6.214041      6.489382   1.000000   1.000000
   64        6.300905      6.553019   1.000000   1.000000
   65        6.309135      6.605774   1.000000   1.000000
   66        6.329107      6.659660   1.000000   1.000000
   67        6.372611      6.690688   1.000000   1.000000
   68        6.382625      6.718256   1.000000   1.000000
   69        6.435662      6.793317   1.000000   1.000000
   70        6.464822      6.801570   1.000000   1.000000
   71        6.495780      6.836731   1.000000   1.000000
   72        6.513129      6.837629   1.000000   1.000000
   73        6.590003      6.884143   1.000000   1.000000
   74        6.644733      6.983143   1.000000   1.000000
   75        6.647429      7.037678   1.000000   1.000003
   76        6.679344      7.197720   1.000000   1.000312
   77        6.718893      7.264467   1.000000   1.001504
   78        6.735700      7.293631   1.000000   1.002757
   79        6.750870      7.347172   1.000000   1.007323
   80        6.776996      7.394789   1.000000   1.014864
   81        6.841350      7.471574   1.000000   1.031584
   82        6.866123      7.548889   1.000000   1.026943
   83        6.910216      7.568249   1.000000   1.014951
   84        6.979373      7.663072   1.000000   0.839851
   85        6.997760      7.755303   1.000001   0.488537
   86        7.138509      7.818178   1.000063   0.238289
   87        7.218158      7.854130   1.000519   0.125659
   88        7.238015      8.001423   1.000832  -0.035401
   89        7.319688      8.018497   1.004536  -0.033996
   90        7.409241      8.084208   1.017830  -0.020398
   91        7.499806      8.118152   1.035235  -0.013375
   92        7.561953      8.176661   1.019539  -0.005308
   93        7.567652      8.225266   1.015412  -0.002085
   94        7.643698      8.247689   0.893442  -0.001289
   95        7.699833      8.364161   0.714398  -0.000067
   96        7.878203      8.418245   0.067706  -0.000013
   97        7.920245      8.456664   0.000797  -0.000004
   98        8.005303      8.504615  -0.035236  -0.000001
   99        8.046744      8.552888  -0.028930  -0.000000
  100        8.096986      8.578818  -0.017591  -0.000000
  101        8.154935      8.656826  -0.007688  -0.000000
  102        8.212186      8.669112  -0.002719  -0.000000
  103        8.271665      8.768051  -0.000748  -0.000000
  104        8.300499      8.835127  -0.000372  -0.000000
  105        8.389596      8.850990  -0.000032  -0.000000
  106        8.458723      8.933894  -0.000004  -0.000000
  107        8.524114      8.939706  -0.000000  -0.000000
  108        8.551427      8.980996  -0.000000  -0.000000
  109        8.673009      9.010912  -0.000000  -0.000000
  110        8.733641      9.061835  -0.000000  -0.000000
  111        8.829019      9.062936  -0.000000  -0.000000
  112        8.876901      9.092346  -0.000000  -0.000000
  113        8.904100      9.123433  -0.000000  -0.000000
  114        8.971963      9.129302  -0.000000  -0.000000
  115        9.108462      9.200066  -0.000000  -0.000000
  116        9.209183      9.391994  -0.000000  -0.000000
 
  0.2000000E+00  0.2000000E+00  0.0000000E+00  0.1333333E-01
    1       -2.351653     -2.329085   1.000000   1.000000
    2       -1.033843     -1.018508   1.000000   1.000000
    3       -1.026870     -0.995011   1.000000   1.000000
    4        0.008666      0.004086   1.000000   1.000000
    5        0.211871      0.239666   1.000000   1.000000
    6        0.627124      0.648702   1.000000   1.000000
    7        0.635488      0.671246   1.000000   1.000000
    8        0.923297      0.951229   1.000000   1.000000
    9        0.947614      0.960937   1.000000   1.000000
   10        1.547019      1.620408   1.000000   1.000000
   11        1.712288      1.756638   1.000000   1.000000
   12        1.737763      1.782702   1.000000   1.000000
   13        1.819875      1.871785   1.000000   1.000000
   14        1.949230      2.019945   1.000000   1.000000
   15        1.952618      2.034882   1.000000   1.000000
   16        2.765925      2.869859   1.000000   1.000000
   17        2.795018      2.907386   1.000000   1.000000
   18        2.825110      2.927982   1.000000   1.000000
   19        2.869266      2.931962   1.000000   1.000000
   20        2.886275      2.976365   1.000000   1.000000
   21        3.579014      3.745015   1.000000   1.000000
   22        3.753502      3.820972   1.000000   1.000000
   23        3.759721      3.830624   1.000000   1.000000
   24        3.818072      3.912587   1.000000   1.000000
   25        4.031347      4.215972   1.000000   1.000000
   26        4.288567      4.390770   1.000000   1.000000
   27        4.301341      4.418340   1.000000   1.000000
   28        4.326788      4.444537   1.000000   1.000000
   29        4.340087      4.511805   1.000000   1.000000
   30        4.391788      4.573732   1.000000   1.000000
   31        4.398111      4.609988   1.000000   1.000000
   32        4.516133      4.763010   1.000000   1.000000
   33        4.621260      4.792102   1.000000   1.000000
   34        4.653850      4.913682   1.000000   1.000000
   35        4.684266      4.927549   1.000000   1.000000
   36        4.769113      4.954935   1.000000   1.000000
   37        4.872657      4.974766   1.000000   1.000000
   38        4.917512      5.066586   1.000000   1.000000
   39        5.032070      5.181609   1.000000   1.000000
   40        5.057548      5.290357   1.000000   1.000000
   41        5.140301      5.324882   1.000000   1.000000
   42        5.196112      5.349188   1.000000   1.000000
   43        5.228042      5.396998   1.000000   1.000000
   44        5.251546      5.482767   1.000000   1.000000