       N       E                     dE             d eps       ncg     rms          ort
DAV:   1     0.133978336507E+04    0.13398E+04   -0.59226E+04  6032   0.139E+03
DAV:   2    -0.718750683354E+02   -0.14117E+04   -0.13720E+04  6032   0.423E+02
DAV:   3    -0.240529569420E+03   -0.16865E+03   -0.14923E+03  6032   0.160E+02
DAV:   4    -0.266383578344E+03   -0.25854E+02   -0.22705E+02  6032   0.689E+01
DAV:   5    -0.268936459910E+03   -0.25529E+01   -0.24250E+01  6032   0.202E+01
DAV:   6    -0.269135133531E+03   -0.19867E+00   -0.19464E+00  6032   0.523E+00
DAV:   7    -0.269155807707E+03   -0.20674E-01   -0.20493E-01  6032   0.147E+00
DAV:   8    -0.269157325903E+03   -0.15182E-02   -0.15097E-02  6032   0.377E-01
SDA:   9    -0.633199857647E+02    0.20584E+03   -0.15097E-02  6032   0.229E+04 0.000E+00
CGA:  10    -0.208665007859E+03   -0.14535E+03   -0.14572E+03  6032   0.121E+03 0.353E+03
CGA:  11    -0.218303267647E+03   -0.96383E+01   -0.96035E+01  6032   0.586E+02 0.160E+01
CGA:  12    -0.226831551734E+03   -0.85283E+01   -0.85261E+01  6032   0.940E+02 0.142E-01
CGA:  13    -0.233110759285E+03   -0.62792E+01   -0.63781E+01  6032   0.143E+02 0.198E+00
CGA:  14    -0.234097297036E+03   -0.98654E+00   -0.99823E+00  6032   0.554E+01-0.879E-01
CGA:  15    -0.234771260910E+03   -0.67396E+00   -0.67779E+00  6032   0.673E+01 0.901E-02
CGA:  16    -0.235391542620E+03   -0.62028E+00   -0.61967E+00  6032   0.240E+01 0.875E-02
CGA:  17    -0.235581305767E+03   -0.18976E+00   -0.19021E+00  6032   0.108E+01-0.111E-02
CGA:  18    -0.235759903627E+03   -0.17860E+00   -0.17860E+00  6032   0.128E+01-0.108E-03
CGA:  19    -0.235864258473E+03   -0.10435E+00   -0.10479E+00  6032   0.587E+00-0.387E-02
CGA:  20    -0.235910516100E+03   -0.46258E-01   -0.46424E-01  6032   0.268E+00-0.144E-02
CGA:  21    -0.235964415472E+03   -0.53899E-01   -0.53863E-01  6032   0.398E+00 0.538E-03
CGA:  22    -0.235999697849E+03   -0.35282E-01   -0.35365E-01  6032   0.170E+00-0.486E-03
CGA:  23    -0.236014379523E+03   -0.14682E-01   -0.14692E-01  6032   0.871E-01-0.209E-03
CGA:  24    -0.236026561667E+03   -0.12182E-01   -0.12181E-01  6032   0.107E+00-0.173E-03
CGA:  25    -0.236039041927E+03   -0.12480E-01   -0.12479E-01  6032   0.653E-01-0.235E-03
CGA:  26    -0.236046747936E+03   -0.77060E-02   -0.77020E-02  6032   0.640E-01-0.167E-03
CGA:  27    -0.236054322646E+03   -0.75747E-02   -0.75717E-02  6032   0.461E-01-0.965E-04
CGA:  28    -0.236059099276E+03   -0.47766E-02   -0.47732E-02  6032   0.218E-01 0.425E-05
CGA:  29    -0.236061358660E+03   -0.22594E-02   -0.22595E-02  6032   0.173E-01 0.229E-04
CGA:  30    -0.236063786810E+03   -0.24282E-02   -0.24281E-02  6032   0.163E-01 0.136E-04
CGA:  31    -0.236065574302E+03   -0.17875E-02   -0.17872E-02  6032   0.111E-01 0.144E-04
CGA:  32    -0.236066972042E+03   -0.13977E-02   -0.13978E-02  6032   0.107E-01 0.156E-04
CGA:  33    -0.236068190380E+03   -0.12183E-02   -0.12188E-02  6032   0.702E-02 0.352E-04
CGA:  34    -0.236069033334E+03   -0.84295E-03   -0.84368E-03  6032   0.392E-02 0.495E-04
CGA:  35    -0.236069503882E+03   -0.47055E-03   -0.47105E-03  6032   0.403E-02 0.345E-04
CGA:  36    -0.236069906833E+03   -0.40295E-03   -0.40392E-03  6032   0.199E-02 0.290E-04
CGA:  37    -0.236070217899E+03   -0.31107E-03   -0.31069E-03  6032   0.203E-02 0.173E-04
CGA:  38    -0.236070500463E+03   -0.28256E-03   -0.28251E-03  6032   0.227E-02 0.193E-04
CGA:  39    -0.236070724866E+03   -0.22440E-03   -0.22512E-03  6032   0.884E-03 0.214E-04
SDA:  40    -0.236070812429E+03   -0.87563E-04   -0.87926E-04  6032   0.567E-03 0.985E-05
CGA:  41    -0.236070858648E+03   -0.46219E-04   -0.46047E-04  6032   0.598E-03-0.345E-05
CGA:  42    -0.236070964854E+03   -0.10621E-03   -0.10685E-03  6032   0.398E-03-0.128E-04
CGA:  43    -0.236071001672E+03   -0.36818E-04   -0.36690E-04  6032   0.314E-03-0.346E-05
CGA:  44    -0.236071055623E+03   -0.53951E-04   -0.54165E-04  6032   0.267E-03-0.488E-05
CGA:  45    -0.236071082498E+03   -0.26875E-04   -0.26747E-04  6032   0.179E-03-0.429E-05
CGA:  46    -0.236071120264E+03   -0.37766E-04   -0.38397E-04  6032   0.169E-03-0.719E-05
CGA:  47    -0.236071139034E+03   -0.18770E-04   -0.18761E-04  6032   0.190E-03-0.456E-06
CGA:  48    -0.236071163304E+03   -0.24270E-04   -0.24282E-04  6032   0.129E-03 0.228E-05
CGA:  49    -0.236071177083E+03   -0.13779E-04   -0.13826E-04  6032   0.114E-03 0.173E-05
CGA:  50    -0.236071194154E+03   -0.17071E-04   -0.17055E-04  6032   0.108E-03 0.128E-05
CGA:  51    -0.236071202154E+03   -0.79998E-05   -0.80523E-05  6032   0.368E-04 0.915E-06
CGA:  52    -0.236071212471E+03   -0.10316E-04   -0.98873E-05  6032   0.522E-04 0.317E-05
CGA:  53    -0.236071217401E+03   -0.49305E-05   -0.50098E-05  6032   0.249E-04 0.168E-05
CGA:  54    -0.236071225442E+03   -0.80411E-05   -0.76397E-05  6032   0.371E-04 0.248E-05
CGA:  55    -0.236071228835E+03   -0.33926E-05   -0.34224E-05  6032   0.118E-04 0.535E-06
CGA:  56    -0.236071231181E+03   -0.23461E-05   -0.23608E-05  6032   0.201E-04-0.262E-06
CGA:  57    -0.236071233627E+03   -0.24458E-05   -0.24413E-05  6032   0.163E-04-0.252E-06
CGA:  58    -0.236071235290E+03   -0.16639E-05   -0.16753E-05  6032   0.150E-04 0.277E-06
CGA:  59    -0.236071237041E+03   -0.17509E-05   -0.17625E-05  6032   0.987E-05 0.511E-06
CGA:  60    -0.236071238695E+03   -0.16540E-05   -0.16534E-05  6032   0.122E-04 0.339E-07
CGA:  61    -0.236071240036E+03   -0.13404E-05   -0.13366E-05  6032   0.539E-05-0.101E-06
CGA:  62    -0.236071240665E+03   -0.62880E-06   -0.63186E-06  6032   0.537E-05 0.202E-06
CGA:  63    -0.236071241522E+03   -0.85688E-06   -0.84973E-06  6032   0.324E-05 0.503E-06
CGA:  64    -0.236071241887E+03   -0.36588E-06   -0.37346E-06  6032   0.316E-05 0.231E-06
CGA:  65    -0.236071242444E+03   -0.55662E-06   -0.55010E-06  6032   0.284E-05 0.224E-06
CGA:  66    -0.236071242703E+03   -0.25848E-06   -0.25961E-06  6032   0.161E-05 0.275E-07
CGA:  67    -0.236071242917E+03   -0.21443E-06   -0.21479E-06  6032   0.205E-05 0.188E-07
CGA:  68    -0.236071243153E+03   -0.23637E-06   -0.23691E-06  6032   0.103E-05 0.367E-07
CGA:  69    -0.236071243289E+03   -0.13610E-06   -0.13596E-06  6032   0.100E-05 0.120E-06
CGA:  70    -0.236071243446E+03   -0.15686E-06   -0.15565E-06  6032   0.681E-06 0.151E-06
SDA:  71    -0.236071243555E+03   -0.10899E-06   -0.10840E-06  6032   0.716E-06 0.331E-07
CGA:  72    -0.236071243597E+03   -0.41777E-07   -0.42122E-07  6032   0.273E-06 0.173E-08
   1 F= -.23607124E+03 E0= -.23607701E+03  d E =0.172918E-01  mag=     9.3703
