 vasp.5.4.4.18Apr17-6-g9f103f2a35 (build Dec 20 2018 12:05:58) complex          
  
 executed on             LinuxIFC date 2019.06.20  15:52:09
 running on   32 total cores
 distrk:  each k-point on    8 cores,    4 groups
 distr:  one band on NCORES_PER_BAND=   4 cores,    2 groups


--------------------------------------------------------------------------------------------------------


 INCAR:
 POTCAR:    PAW_PBE Al 04Jan2001                  
 POTCAR:    PAW_PBE Mn 06Sep2000                  

 ----------------------------------------------------------------------------- 
|                                                                             |
|           W    W    AA    RRRRR   N    N  II  N    N   GGGG   !!!           |
|           W    W   A  A   R    R  NN   N  II  NN   N  G    G  !!!           |
|           W    W  A    A  R    R  N N  N  II  N N  N  G       !!!           |
|           W WW W  AAAAAA  RRRRR   N  N N  II  N  N N  G  GGG   !            |
|           WW  WW  A    A  R   R   N   NN  II  N   NN  G    G                |
|           W    W  A    A  R    R  N    N  II  N    N   GGGG   !!!           |
|                                                                             |
|      You have enabled k-point parallelism (KPAR>1).                         |
|      This developmental code was originally  written by Paul Kent at ORNL,  |
|      and carefully double checked in Vienna.                                |
|      GW as well as linear response parallelism added by Martijn Marsman     |
|      and Georg Kresse.                                                      |
|      Carefully verify results versus KPAR=1.                                |
|      Report problems to Paul Kent and Vienna.                               |
|                                                                             |
 ----------------------------------------------------------------------------- 

 POTCAR:    PAW_PBE Al 04Jan2001                  
   VRHFIN =Al: s2p1                                                             
   LEXCH  = PE                                                                  
   EATOM  =    53.5387 eV,    3.9350 Ry                                         
                                                                                
   TITEL  = PAW_PBE Al 04Jan2001                                                
   LULTRA =        F    use ultrasoft PP ?                                      
   IUNSCR =        1    unscreen: 0-lin 1-nonlin 2-no                           
   RPACOR =    1.500    partial core radius                                     
   POMASS =   26.981; ZVAL   =    3.000    mass and valenz                      
   RCORE  =    1.900    outmost cutoff radius                                   
   RWIGS  =    2.650; RWIGS  =    1.402    wigner-seitz radius (au A)           
   ENMAX  =  240.300; ENMIN  =  180.225 eV                                      
   ICORE  =        2    local potential                                         
   LCOR   =        T    correct aug charges                                     
   LPAW   =        T    paw PP                                                  
   EAUG   =  291.052                                                            
   DEXC   =    0.000                                                            
   RMAX   =    1.939    core radius for proj-oper                               
   RAUG   =    1.300    factor for augmentation sphere                          
   RDEP   =    1.966    radius for radial grids                                 
   RDEPT  =    1.856    core radius for aug-charge                              
                                                                                
   Atomic configuration                                                         
    6 entries                                                                   
     n  l   j            E        occ.                                          
     1  0  0.50     -1511.1048   2.0000                                         
     2  0  0.50      -108.1629   2.0000                                         
     2  1  1.50       -69.6402   6.0000                                         
     3  0  0.50        -7.7528   2.0000                                         
     3  1  1.50        -2.7121   1.0000                                         
     3  2  2.50        -2.7212   0.0000                                         
   Description                                                                  
     l       E           TYP  RCUT    TYP  RCUT                                 
     0     -7.7528455     23  1.900                                             
     0     -3.3096929     23  1.900                                             
     1     -2.7120682     23  1.900                                             
     1     13.6058260     23  1.900                                             
     2     -2.7211652      7  1.900                                             
  local pseudopotential read in
  partial core-charges read in
  partial kinetic energy density read in
  atomic valenz-charges read in
  non local Contribution for L=           0  read in
    real space projection operators read in
  non local Contribution for L=           0  read in
    real space projection operators read in
  non local Contribution for L=           1  read in
    real space projection operators read in
  non local Contribution for L=           1  read in
    real space projection operators read in
    PAW grid and wavefunctions read in
 
   number of l-projection  operators is LMAX  =           4
   number of lm-projection operators is LMMAX =           8
 
 POTCAR:    PAW_PBE Mn 06Sep2000                  
   VRHFIN =Mn: d6 s1                                                            
   LEXCH  = PE                                                                  
   EATOM  =   416.7541 eV,   30.6306 Ry                                         
                                                                                
   TITEL  = PAW_PBE Mn 06Sep2000                                                
   LULTRA =        F    use ultrasoft PP ?                                      
   IUNSCR =        1    unscreen: 0-lin 1-nonlin 2-no                           
   RPACOR =    2.000    partial core radius                                     
   POMASS =   54.938; ZVAL   =    7.000    mass and valenz                      
   RCORE  =    2.300    outmost cutoff radius                                   
   RWIGS  =    2.500; RWIGS  =    1.323    wigner-seitz radius (au A)           
   ENMAX  =  269.864; ENMIN  =  202.398 eV                                      
   RCLOC  =    1.725    cutoff for local pot                                    
   LCOR   =        T    correct aug charges                                     
   LPAW   =        T    paw PP                                                  
   EAUG   =  500.711                                                            
   DEXC   =    0.000                                                            
   RMAX   =    2.343    core radius for proj-oper                               
   RAUG   =    1.300    factor for augmentation sphere                          
   RDEP   =    2.338    radius for radial grids                                 
   RDEPT  =    1.911    core radius for aug-charge                              
                                                                                
   Atomic configuration                                                         
    9 entries                                                                   
     n  l   j            E        occ.                                          
     1  0  0.50     -6424.8288   2.0000                                         
     2  0  0.50      -739.1154   2.0000                                         
     2  1  1.50      -625.3949   6.0000                                         
     3  0  0.50       -81.6100   2.0000                                         
     3  1  1.50       -50.4667   6.0000                                         
     3  2  2.50        -3.3745   6.0000                                         
     4  0  0.50        -4.1331   1.0000                                         
     4  1  0.50        -4.0817   0.0000                                         
     4  3  2.50        -1.3606   0.0000                                         
   Description                                                                  
     l       E           TYP  RCUT    TYP  RCUT                                 
     2     -3.3744664     23  2.300                                             
     2     -4.7350490     23  2.300                                             
     0     -4.1331408     23  2.300                                             
     0      7.6656614     23  2.300                                             
     1     -2.7211652     23  2.300                                             
     1     20.4087390     23  2.300                                             
  local pseudopotential read in
  partial core-charges read in
  partial kinetic energy density read in
  atomic valenz-charges read in
  non local Contribution for L=           2  read in
    real space projection operators read in
  non local Contribution for L=           2  read in
    real space projection operators read in
  non local Contribution for L=           0  read in
    real space projection operators read in
  non local Contribution for L=           0  read in
    real space projection operators read in
  non local Contribution for L=           1  read in
    real space projection operators read in
  non local Contribution for L=           1  read in
    real space projection operators read in
    PAW grid and wavefunctions read in
 
   number of l-projection  operators is LMAX  =           6
   number of lm-projection operators is LMMAX =          18
 

 ----------------------------------------------------------------------------- 
|                                                                             |
|  ADVICE TO THIS USER RUNNING 'VASP/VAMP'   (HEAR YOUR MASTER'S VOICE ...):  |
|                                                                             |
|      You have a (more or less) 'large supercell' and for larger cells       |
|      it might be more efficient to use real space projection opertators     |
|      So try LREAL= Auto  in the INCAR   file.                               |
|      Mind:          For very  accurate calculation you might also keep the  |
|      reciprocal projection scheme          (i.e. LREAL=.FALSE.)             |
|                                                                             |
 ----------------------------------------------------------------------------- 

  PAW_PBE Al 04Jan2001                  :
 energy of atom  1       EATOM=  -53.5387
 kinetic energy error for atom=    0.0005 (will be added to EATOM!!)
  PAW_PBE Mn 06Sep2000                  :
 energy of atom  2       EATOM= -416.7541
 kinetic energy error for atom=    0.0080 (will be added to EATOM!!)
 
 
 POSCAR: NewRef: 18, @ ['Mn', array([1.37502469, 
  positions in cartesian coordinates
  velocities in cartesian coordinates
  No initial velocities read in
 exchange correlation table for  LEXCH =        8
   RHO(1)=    0.500       N(1)  =     2000
   RHO(2)=  100.500       N(2)  =     4000
 


--------------------------------------------------------------------------------------------------------


 ion  position               nearest neighbor table
   1  0.000  0.000  0.000-  20 2.61  24 2.61  32 2.61  36 2.61  31 2.61  23 2.61  35 2.61  19 2.61
                             3 2.75   7 2.75   5 2.75  13 2.75
   2  0.000  0.000  0.500-  19 2.61  23 2.61  31 2.61  35 2.61  20 2.61  32 2.61  24 2.61  36 2.61
                             4 2.75   8 2.75   6 2.75  14 2.75
   3  0.000  0.333  0.000-  20 2.61  32 2.61  22 2.61  34 2.61  19 2.61  31 2.61  33 2.61  21 2.61
                             9 2.75   1 2.75   5 2.75  15 2.75
   4  0.000  0.333  0.500-  19 2.61  31 2.61  21 2.61  33 2.61  32 2.61  20 2.61  22 2.61  34 2.61
                            10 2.75   2 2.75   6 2.75  16 2.75
   5  0.000  0.667  0.000-  22 2.61  34 2.61  24 2.61  36 2.61  21 2.61  33 2.61  35 2.61  23 2.61
                             3 2.75  11 2.75   1 2.75  17 2.75
   6  0.000  0.667  0.500-  21 2.61  33 2.61  23 2.61  35 2.61  34 2.61  22 2.61  24 2.61  36 2.61
                             4 2.75  12 2.75   2 2.75  18 2.75
   7  0.333  0.000  0.000-  20 2.61  24 2.61  26 2.61  30 2.61  23 2.61  19 2.61  29 2.61  25 2.61
                            13 2.75   1 2.75   9 2.75  11 2.75
   8  0.333  0.000  0.500-  19 2.61  23 2.61  25 2.61  29 2.61  20 2.61  24 2.61  26 2.61  30 2.61
                            14 2.75   2 2.75  10 2.75  12 2.75
   9  0.333  0.333  0.000-  20 2.61  22 2.61  26 2.61  19 2.61  28 2.61  21 2.61  25 2.61  27 2.61
                             3 2.75   7 2.75  11 2.75  15 2.75
  10  0.333  0.333  0.500-  19 2.61  21 2.61  25 2.61  20 2.61  27 2.61  26 2.61  22 2.61  28 2.61
                             4 2.75   8 2.75  12 2.75  16 2.75
  11  0.333  0.667  0.000-  22 2.61  24 2.61  28 2.61  21 2.61  30 2.61  23 2.61  27 2.61  29 2.61
                            17 2.75   5 2.75   9 2.75   7 2.75
  12  0.333  0.667  0.500-  21 2.61  23 2.61  27 2.61  22 2.61  29 2.61  28 2.61  24 2.61  30 2.61
                            18 2.75   6 2.75  10 2.75   8 2.75
  13  0.667  0.000  0.000-  26 2.61  30 2.61  32 2.61  36 2.61  29 2.61  25 2.61  35 2.61  31 2.61
                             7 2.75  15 2.75   1 2.75  17 2.75
  14  0.667  0.000  0.500-  25 2.61  29 2.61  31 2.61  35 2.61  26 2.61  30 2.61  32 2.61  36 2.61
                             8 2.75  16 2.75   2 2.75  18 2.75
  15  0.667  0.333  0.000-  26 2.61  28 2.61  32 2.61  25 2.61  34 2.61  27 2.61  31 2.61  33 2.61
                            17 2.75   9 2.75  13 2.75   3 2.75
  16  0.667  0.333  0.500-  25 2.61  27 2.61  31 2.61  26 2.61  33 2.61  32 2.61  28 2.61  34 2.61
                            18 2.75  10 2.75  14 2.75   4 2.75
  17  0.667  0.667  0.000-  28 2.61  30 2.61  34 2.61  27 2.61  36 2.61  29 2.61  33 2.61  35 2.61
                            11 2.75  15 2.75  13 2.75   5 2.75
  18  0.667  0.667  0.500-  27 2.61  29 2.61  33 2.61  28 2.61  35 2.61  34 2.61  30 2.61  36 2.61
                            12 2.75  16 2.75  14 2.75   6 2.75
  19  0.167  0.167  0.250-  10 2.61   8 2.61   4 2.61   9 2.61   2 2.61   7 2.61   3 2.61   1 2.61
                            21 2.75  25 2.75  23 2.75  31 2.75
  20  0.167  0.167  0.750-   9 2.61   7 2.61   3 2.61  10 2.61   1 2.61   4 2.61   8 2.61   2 2.61
                            22 2.75  26 2.75  24 2.75  32 2.75
  21  0.167  0.500  0.250-  12 2.61  10 2.61   6 2.61  11 2.61   4 2.61   9 2.61   5 2.61   3 2.61
                            19 2.75  23 2.75  27 2.75  33 2.75
  22  0.167  0.500  0.750-  11 2.61   9 2.61   5 2.61  12 2.61   3 2.61   6 2.61  10 2.61   4 2.61
                            20 2.75  24 2.75  28 2.75  34 2.75
  23  0.167  0.833  0.250-   8 2.61  12 2.61   2 2.61   6 2.61  11 2.61   7 2.61   5 2.61   1 2.61
                            21 2.75  29 2.75  19 2.75  35 2.75
  24  0.167  0.833  0.750-   7 2.61  11 2.61   1 2.61   5 2.61   8 2.61  12 2.61   2 2.61   6 2.61
                            22 2.75  30 2.75  20 2.75  36 2.75
  25  0.500  0.167  0.250-  16 2.61  14 2.61  10 2.61  15 2.61   8 2.61  13 2.61   9 2.61   7 2.61
                            19 2.75  27 2.75  31 2.75  29 2.75
  26  0.500  0.167  0.750-  15 2.61  13 2.61   9 2.61  16 2.61   7 2.61  10 2.61  14 2.61   8 2.61
                            20 2.75  28 2.75  32 2.75  30 2.75
  27  0.500  0.500  0.250-  18 2.61  16 2.61  12 2.61  17 2.61  10 2.61  15 2.61  11 2.61   9 2.61
                            21 2.75  25 2.75  29 2.75  33 2.75
  28  0.500  0.500  0.750-  17 2.61  15 2.61  11 2.61  18 2.61   9 2.61  12 2.61  16 2.61  10 2.61
                            22 2.75  26 2.75  30 2.75  34 2.75
  29  0.500  0.833  0.250-  14 2.61  18 2.61   8 2.61  12 2.61  17 2.61  13 2.61  11 2.61   7 2.61
                            23 2.75  27 2.75  35 2.75  25 2.75
  30  0.500  0.833  0.750-  13 2.61  17 2.61   7 2.61  11 2.61  14 2.61  18 2.61   8 2.61  12 2.61
                            24 2.75  28 2.75  36 2.75  26 2.75
  31  0.833  0.167  0.250-   4 2.61  16 2.61  14 2.61   2 2.61  15 2.61   3 2.61  13 2.61   1 2.61
                            25 2.75  33 2.75  19 2.75  35 2.75
  32  0.833  0.167  0.750-   3 2.61  15 2.61  13 2.61   1 2.61   4 2.61  16 2.61   2 2.61  14 2.61
                            26 2.75  34 2.75  20 2.75  36 2.75
  33  0.833  0.500  0.250-   6 2.61  18 2.61  16 2.61   4 2.61  17 2.61   5 2.61  15 2.61   3 2.61
                            27 2.75  31 2.75  35 2.75  21 2.75
  34  0.833  0.500  0.750-   5 2.61  17 2.61  15 2.61   3 2.61   6 2.61  18 2.61   4 2.61  16 2.61
                            28 2.75  32 2.75  36 2.75  22 2.75
  35  0.833  0.833  0.250-   2 2.61   6 2.61  14 2.61  18 2.61  13 2.61   5 2.61  17 2.61   1 2.61
                            29 2.75  33 2.75  31 2.75  23 2.75
  36  0.833  0.833  0.750-   1 2.61   5 2.61  13 2.61  17 2.61   2 2.61  14 2.61   6 2.61  18 2.61
                            30 2.75  34 2.75  32 2.75  24 2.75
 
  LATTYP: Found a simple tetragonal cell.
 ALAT       =     8.2501481662
 C/A-ratio  =     0.8428059861
  
  Lattice vectors:
  
 A1 = (   8.2501481662,   0.0000000000,   0.0000000000)
 A2 = (   0.0000000000,   8.2501481662,   0.0000000000)
 A3 = (   0.0000000000,   0.0000000000,   6.9532742610)


Analysis of symmetry for initial positions (statically):
=====================================================================
 Subroutine PRICEL returns following result:
 
  LATTYP: Found a simple tetragonal cell.
 ALAT       =     2.7500493888
 C/A-ratio  =     1.2642089792
  
  Lattice vectors:
  
 A1 = (   2.7500493888,   0.0000000000,   0.0000000000)
 A2 = (   0.0000000000,   2.7500493888,   0.0000000000)
 A3 = (   0.0000000000,   0.0000000000,   3.4766371305)
 
  18 primitive cells build up your supercell.
 

 Routine SETGRP: Setting up the symmetry group for a 
 simple tetragonal supercell.


 Subroutine GETGRP returns: Found 16 space group operations
 (whereof 16 operations were pure point group operations)
 out of a pool of 16 trial point group operations.


The static configuration has the point symmetry D_4h.


Analysis of symmetry for dynamics (positions and initial velocities):
=====================================================================
 Subroutine PRICEL returns following result:
 
  LATTYP: Found a simple tetragonal cell.
 ALAT       =     2.7500493888
 C/A-ratio  =     1.2642089792
  
  Lattice vectors:
  
 A1 = (   2.7500493888,   0.0000000000,   0.0000000000)
 A2 = (   0.0000000000,   2.7500493888,   0.0000000000)
 A3 = (   0.0000000000,   0.0000000000,   3.4766371305)
 
  18 primitive cells build up your supercell.
 

 Routine SETGRP: Setting up the symmetry group for a 
 simple tetragonal supercell.


 Subroutine GETGRP returns: Found 16 space group operations
 (whereof 16 operations were pure point group operations)
 out of a pool of 16 trial point group operations.


The dynamic configuration has the point symmetry D_4h.


Analysis of structural, dynamic, and magnetic symmetry:
=====================================================================
 Subroutine PRICEL returns:
 Original cell was already a primitive cell.
 

 Routine SETGRP: Setting up the symmetry group for a 
 simple tetragonal supercell.


 Subroutine GETGRP returns: Found  2 space group operations
 (whereof  1 operations were pure point group operations)
 out of a pool of 16 trial point group operations.


The magnetic configuration has the point symmetry C_1 .
 The point group associated with its full space group is C_1h.


 Subroutine INISYM returns: Found  2 space group operations
 (whereof  1 operations are pure point group operations),
 and found     1 'primitive' translations

 
 
 KPOINTS: automatic KPOINTS                       

Automatic generation of k-mesh.
 generate k-points for:    5    5    6
Space group operators:
 irot       det(A)        alpha          n_x          n_y          n_z        tau_x        tau_y        tau_z
    1     1.000000     0.000001     1.000000     0.000000     0.000000     0.000000     0.000000     0.000000
    2    -1.000000   179.999999     0.000000     0.000000     1.000000     0.000000     0.000000     0.500000
 
 Subroutine IBZKPT returns following result:
 ===========================================
 
 Found     52 irreducible k-points:
 
 Following reciprocal coordinates:
            Coordinates               Weight
  0.000000  0.000000  0.000000      1.000000
  0.200000  0.000000  0.000000      2.000000
  0.400000  0.000000  0.000000      2.000000
  0.000000  0.200000  0.000000      2.000000
  0.200000  0.200000  0.000000      2.000000
  0.400000  0.200000  0.000000      2.000000
 -0.400000  0.200000  0.000000      2.000000
 -0.200000  0.200000  0.000000      2.000000
  0.000000  0.400000  0.000000      2.000000
  0.200000  0.400000  0.000000      2.000000
  0.400000  0.400000  0.000000      2.000000
 -0.400000  0.400000  0.000000      2.000000
 -0.200000  0.400000  0.000000      2.000000
  0.000000  0.000000  0.166667      2.000000
  0.200000  0.000000  0.166667      4.000000
  0.400000  0.000000  0.166667      4.000000
  0.000000  0.200000  0.166667      4.000000
  0.200000  0.200000  0.166667      4.000000
  0.400000  0.200000  0.166667      4.000000
 -0.400000  0.200000  0.166667      4.000000
 -0.200000  0.200000  0.166667      4.000000
  0.000000  0.400000  0.166667      4.000000
  0.200000  0.400000  0.166667      4.000000
  0.400000  0.400000  0.166667      4.000000
 -0.400000  0.400000  0.166667      4.000000
 -0.200000  0.400000  0.166667      4.000000
  0.000000  0.000000  0.333333      2.000000
  0.200000  0.000000  0.333333      4.000000
  0.400000  0.000000  0.333333      4.000000
  0.000000  0.200000  0.333333      4.000000
  0.200000  0.200000  0.333333      4.000000
  0.400000  0.200000  0.333333      4.000000
 -0.400000  0.200000  0.333333      4.000000
 -0.200000  0.200000  0.333333      4.000000
  0.000000  0.400000  0.333333      4.000000
  0.200000  0.400000  0.333333      4.000000
  0.400000  0.400000  0.333333      4.000000
 -0.400000  0.400000  0.333333      4.000000
 -0.200000  0.400000  0.333333      4.000000
  0.000000  0.000000  0.500000      1.000000
  0.200000  0.000000  0.500000      2.000000
  0.400000  0.000000  0.500000      2.000000
  0.000000  0.200000  0.500000      2.000000
  0.200000  0.200000  0.500000      2.000000
  0.400000  0.200000  0.500000      2.000000
 -0.400000  0.200000  0.500000      2.000000
 -0.200000  0.200000  0.500000      2.000000
  0.000000  0.400000  0.500000      2.000000
  0.200000  0.400000  0.500000      2.000000
  0.400000  0.400000  0.500000      2.000000
 -0.400000  0.400000  0.500000      2.000000
 -0.200000  0.400000  0.500000      2.000000
 
 Following cartesian coordinates:
            Coordinates               Weight
  0.000000  0.000000  0.000000      1.000000
  0.024242  0.000000  0.000000      2.000000
  0.048484  0.000000  0.000000      2.000000
  0.000000  0.024242  0.000000      2.000000
  0.024242  0.024242  0.000000      2.000000
  0.048484  0.024242  0.000000      2.000000
 -0.048484  0.024242  0.000000      2.000000
 -0.024242  0.024242  0.000000      2.000000
  0.000000  0.048484  0.000000      2.000000
  0.024242  0.048484  0.000000      2.000000
  0.048484  0.048484  0.000000      2.000000
 -0.048484  0.048484  0.000000      2.000000
 -0.024242  0.048484  0.000000      2.000000
  0.000000  0.000000  0.023970      2.000000
  0.024242  0.000000  0.023970      4.000000
  0.048484  0.000000  0.023970      4.000000
  0.000000  0.024242  0.023970      4.000000
  0.024242  0.024242  0.023970      4.000000
  0.048484  0.024242  0.023970      4.000000
 -0.048484  0.024242  0.023970      4.000000
 -0.024242  0.024242  0.023970      4.000000
  0.000000  0.048484  0.023970      4.000000
  0.024242  0.048484  0.023970      4.000000
  0.048484  0.048484  0.023970      4.000000
 -0.048484  0.048484  0.023970      4.000000
 -0.024242  0.048484  0.023970      4.000000
  0.000000  0.000000  0.047939      2.000000
  0.024242  0.000000  0.047939      4.000000
  0.048484  0.000000  0.047939      4.000000
  0.000000  0.024242  0.047939      4.000000
  0.024242  0.024242  0.047939      4.000000
  0.048484  0.024242  0.047939      4.000000
 -0.048484  0.024242  0.047939      4.000000
 -0.024242  0.024242  0.047939      4.000000
  0.000000  0.048484  0.047939      4.000000
  0.024242  0.048484  0.047939      4.000000
  0.048484  0.048484  0.047939      4.000000
 -0.048484  0.048484  0.047939      4.000000
 -0.024242  0.048484  0.047939      4.000000
  0.000000  0.000000  0.071909      1.000000
  0.024242  0.000000  0.071909      2.000000
  0.048484  0.000000  0.071909      2.000000
  0.000000  0.024242  0.071909      2.000000
  0.024242  0.024242  0.071909      2.000000
  0.048484  0.024242  0.071909      2.000000
 -0.048484  0.024242  0.071909      2.000000
 -0.024242  0.024242  0.071909      2.000000
  0.000000  0.048484  0.071909      2.000000
  0.024242  0.048484  0.071909      2.000000
  0.048484  0.048484  0.071909      2.000000
 -0.048484  0.048484  0.071909      2.000000
 -0.024242  0.048484  0.071909      2.000000
 


--------------------------------------------------------------------------------------------------------




 Dimension of arrays:
   k-points           NKPTS =     52   k-points in BZ     NKDIM =     52   number of bands    NBANDS=    116
   number of dos      NEDOS =    301   number of ions     NIONS =     36
   non local maximal  LDIM  =      6   non local SUM 2l+1 LMDIM =     18
   total plane-waves  NPLWV = 139968
   max r-space proj   IRMAX =      1   max aug-charges    IRDMAX=  92271
   dimension x,y,z NGX =    54 NGY =   54 NGZ =   48
   dimension x,y,z NGXF=   108 NGYF=  108 NGZF=   96
   support grid    NGXF=   216 NGYF=  216 NGZF=  192
   ions per type =              18  18
   NGX,Y,Z   is equivalent  to a cutoff of  10.88, 10.88, 11.48 a.u.
   NGXF,Y,Z  is equivalent  to a cutoff of  21.76, 21.76, 22.95 a.u.

 SYSTEM =  AlMn_pv                                 
 POSCAR =  NewRef: 18, @ ['Mn', array([1.37502469, 

 Startparameter for this run:
   NWRITE =      2    write-flag & timer
   PREC   = accura    normal or accurate (medium, high low for compatibility)
   ISTART =      0    job   : 0-new  1-cont  2-samecut
   ICHARG =      2    charge: 1-file 2-atom 10-const
   ISPIN  =      2    spin polarized calculation?
   LNONCOLLINEAR =      F non collinear calculations
   LSORBIT =      F    spin-orbit coupling
   INIWAV =      1    electr: 0-lowe 1-rand  2-diag
   LASPH  =      F    aspherical Exc in radial PAW
   METAGGA=      F    non-selfconsistent MetaGGA calc.

 Electronic Relaxation 1
   ENCUT  =  404.8 eV  29.75 Ry    5.45 a.u.  13.53 13.53 11.41*2*pi/ulx,y,z
   ENINI  =  404.8     initial cutoff
   ENAUG  =  500.7 eV  augmentation charge cutoff
   NELM   =    100;   NELMIN=  4; NELMDL= -8     # of ELM steps 
   EDIFF  = 0.1E-06   stopping-criterion for ELM
   LREAL  =      F    real-space projection
   NLSPLINE    = F    spline interpolate recip. space projectors
   LCOMPAT=      F    compatible to vasp.4.4
   GGA_COMPAT  = T    GGA compatible to vasp.4.4-vasp.4.6
   LMAXPAW     = -100 max onsite density
   LMAXMIX     =    2 max onsite mixed and CHGCAR
   VOSKOWN=      0    Vosko Wilk Nusair interpolation
   ROPT   =    0.00000   0.00000
 Ionic relaxation
   EDIFFG = 0.1E-05   stopping-criterion for IOM
   NSW    =      0    number of steps for IOM
   NBLOCK =      1;   KBLOCK =      1    inner block; outer block 
   IBRION =     -1    ionic relax: 0-MD 1-quasi-New 2-CG
   NFREE  =      0    steps in history (QN), initial steepest desc. (CG)
   ISIF   =      2    stress and relaxation
   IWAVPR =     10    prediction:  0-non 1-charg 2-wave 3-comb
   ISYM   =      2    0-nonsym 1-usesym 2-fastsym
   LCORR  =      T    Harris-Foulkes like correction to forces

   POTIM  = 0.2000    time-step for ionic-motion
   TEIN   =    0.0    initial temperature
   TEBEG  =    0.0;   TEEND  =   0.0 temperature during run
   SMASS  =  -3.00    Nose mass-parameter (am)
   estimated Nose-frequenzy (Omega)   =  0.10E-29 period in steps =****** mass=  -0.156E-26a.u.
   SCALEE = 1.0000    scale energy and forces
   NPACO  =    256;   APACO  = 16.0  distance and # of slots for P.C.
   PSTRESS=    0.0 pullay stress

  Mass of Ions in am
   POMASS =  26.98 54.94
  Ionic Valenz
   ZVAL   =   3.00  7.00
  Atomic Wigner-Seitz radii
   RWIGS  =  -1.00 -1.00
  virtual crystal weights 
   VCA    =   1.00  1.00
   NELECT =     180.0000    total number of electrons
   NUPDOWN=      -1.0000    fix difference up-down

 DOS related values:
   EMIN   =  10.00;   EMAX   =-10.00  energy-range for DOS
   EFERMI =   0.00
   ISMEAR =     1;   SIGMA  =   0.20  broadening in eV -4-tet -1-fermi 0-gaus

 Electronic relaxation 2 (details)
   IALGO  =     58    algorithm
   LDIAG  =      T    sub-space diagonalisation (order eigenvalues)
   LSUBROT=      F    optimize rotation matrix (better conditioning)
   TURBO    =      0    0=normal 1=particle mesh
   IRESTART =      0    0=no restart 2=restart with 2 vectors
   NREBOOT  =      0    no. of reboots
   NMIN     =      0    reboot dimension
   EREF     =   0.00    reference energy to select bands
   IMIX   =      4    mixing-type and parameters
     AMIX     =   0.40;   BMIX     =  1.00
     AMIX_MAG =   1.60;   BMIX_MAG =  1.00
     AMIN     =   0.10
     WC   =   100.;   INIMIX=   1;  MIXPRE=   1;  MAXMIX= -45

 Intra band minimization:
   WEIMIN = 0.0000     energy-eigenvalue tresh-hold
   EBREAK =  0.22E-09  absolut break condition
   DEPER  =   0.30     relativ break condition  

   TIME   =   0.40     timestep for ELM

  volume/ion in A,a.u.               =      13.15        88.72
  Fermi-wavevector in a.u.,A,eV,Ry     =   1.186118  2.241439 19.141722  1.406877
  Thomas-Fermi vector in A             =   2.322298
 
 Write flags
   LWAVE        =      F    write WAVECAR
   LDOWNSAMPLE  =      F    k-point downsampling of WAVECAR
   LCHARG       =      F    write CHGCAR
   LVTOT        =      F    write LOCPOT, total local potential
   LVHAR        =      F    write LOCPOT, Hartree potential only
   LELF         =      F    write electronic localiz. function (ELF)
   LORBIT       =     10    0 simple, 1 ext, 2 COOP (PROOUT), +10 PAW based schemes


 Dipole corrections
   LMONO  =      F    monopole corrections only (constant potential shift)
   LDIPOL =      F    correct potential (dipole corrections)
   IDIPOL =      0    1-x, 2-y, 3-z, 4-all directions 
   EPSILON=  1.0000000 bulk dielectric constant

 Exchange correlation treatment:
   GGA     =    --    GGA type
   LEXCH   =     8    internal setting for exchange type
   VOSKOWN=      0    Vosko Wilk Nusair interpolation
   LHFCALC =     F    Hartree Fock is set to
   LHFONE  =     F    Hartree Fock one center treatment
   AEXX    =    0.0000 exact exchange contribution

 Linear response parameters
   LEPSILON=     F    determine dielectric tensor
   LRPA    =     F    only Hartree local field effects (RPA)
   LNABLA  =     F    use nabla operator in PAW spheres
   LVEL    =     F    velocity operator in full k-point grid
   LINTERFAST=   F  fast interpolation
   KINTER  =     0    interpolate to denser k-point grid
   CSHIFT  =0.1000    complex shift for real part using Kramers Kronig
   OMEGAMAX=  -1.0    maximum frequency
   DEG_THRESHOLD= 0.2000000E-02 threshold for treating states as degnerate
   RTIME   =   -0.100 relaxation time in fs
  (WPLASMAI=    0.000 imaginary part of plasma frequency in eV, 0.658/RTIME)
   DFIELD  = 0.0000000 0.0000000 0.0000000 field for delta impulse in time
 
 Orbital magnetization related:
   ORBITALMAG=     F  switch on orbital magnetization
   LCHIMAG   =     F  perturbation theory with respect to B field
   DQ        =  0.001000  dq finite difference perturbation B field
   LLRAUG    =     F  two centre corrections for induced B field



--------------------------------------------------------------------------------------------------------


 Static calculation
 charge density and potential will be updated during run
 spin polarized calculation
 Conjugate gradient for all bands (Freysoldt, et al. PRB 79, 241103 (2009))
 preconditioned conjugated gradient                                        
 perform sub-space diagonalisation
    before iterative eigenvector-optimisation
 modified Broyden-mixing scheme, WC =      100.0
 initial mixing is a Kerker type mixing with AMIX =  0.4000 and BMIX =      1.0000
 Hartree-type preconditioning will be used
 using additional bands           26
 reciprocal scheme for non local part
 use partial core corrections
 no Harris-corrections to forces 
 use gradient corrections 
 use of overlap-Matrix (Vanderbilt PP)
 Methfessel and Paxton  Order N= 1 SIGMA  =   0.20


--------------------------------------------------------------------------------------------------------


  energy-cutoff  :      404.80
  volume of cell :      473.27
      direct lattice vectors                 reciprocal lattice vectors
     8.250148166  0.000000000  0.000000000     0.121209944  0.000000000  0.000000000
     0.000000000  8.250148166  0.000000000     0.000000000  0.121209944  0.000000000
     0.000000000  0.000000000  6.953274261     0.000000000  0.000000000  0.143817137

  length of vectors
     8.250148166  8.250148166  6.953274261     0.121209944  0.121209944  0.143817137


 
 k-points in units of 2pi/SCALE and weight: automatic KPOINTS                       
   0.00000000  0.00000000  0.00000000       0.007
   0.02424199  0.00000000  0.00000000       0.013
   0.04848398  0.00000000  0.00000000       0.013
   0.00000000  0.02424199  0.00000000       0.013
   0.02424199  0.02424199  0.00000000       0.013
   0.04848398  0.02424199  0.00000000       0.013
  -0.04848398  0.02424199  0.00000000       0.013
  -0.02424199  0.02424199  0.00000000       0.013
   0.00000000  0.04848398  0.00000000       0.013
   0.02424199  0.04848398  0.00000000       0.013
   0.04848398  0.04848398  0.00000000       0.013
  -0.04848398  0.04848398  0.00000000       0.013
  -0.02424199  0.04848398  0.00000000       0.013
   0.00000000  0.00000000  0.02396952       0.013
   0.02424199  0.00000000  0.02396952       0.027
   0.04848398  0.00000000  0.02396952       0.027
   0.00000000  0.02424199  0.02396952       0.027
   0.02424199  0.02424199  0.02396952       0.027
   0.04848398  0.02424199  0.02396952       0.027
  -0.04848398  0.02424199  0.02396952       0.027
  -0.02424199  0.02424199  0.02396952       0.027
   0.00000000  0.04848398  0.02396952       0.027
   0.02424199  0.04848398  0.02396952       0.027
   0.04848398  0.04848398  0.02396952       0.027
  -0.04848398  0.04848398  0.02396952       0.027
  -0.02424199  0.04848398  0.02396952       0.027
   0.00000000  0.00000000  0.04793905       0.013
   0.02424199  0.00000000  0.04793905       0.027
   0.04848398  0.00000000  0.04793905       0.027
   0.00000000  0.02424199  0.04793905       0.027
   0.02424199  0.02424199  0.04793905       0.027
   0.04848398  0.02424199  0.04793905       0.027
  -0.04848398  0.02424199  0.04793905       0.027
  -0.02424199  0.02424199  0.04793905       0.027
   0.00000000  0.04848398  0.04793905       0.027
   0.02424199  0.04848398  0.04793905       0.027
   0.04848398  0.04848398  0.04793905       0.027
  -0.04848398  0.04848398  0.04793905       0.027
  -0.02424199  0.04848398  0.04793905       0.027
   0.00000000  0.00000000  0.07190857       0.007
   0.02424199  0.00000000  0.07190857       0.013
   0.04848398  0.00000000  0.07190857       0.013
   0.00000000  0.02424199  0.07190857       0.013
   0.02424199  0.02424199  0.07190857       0.013
   0.04848398  0.02424199  0.07190857       0.013
  -0.04848398  0.02424199  0.07190857       0.013
  -0.02424199  0.02424199  0.07190857       0.013
   0.00000000  0.04848398  0.07190857       0.013
   0.02424199  0.04848398  0.07190857       0.013
   0.04848398  0.04848398  0.07190857       0.013
  -0.04848398  0.04848398  0.07190857       0.013
  -0.02424199  0.04848398  0.07190857       0.013
 
 k-points in reciprocal lattice and weights: automatic KPOINTS                       
   0.00000000  0.00000000  0.00000000       0.007
   0.20000000  0.00000000  0.00000000       0.013
   0.40000000  0.00000000  0.00000000       0.013
   0.00000000  0.20000000  0.00000000       0.013
   0.20000000  0.20000000  0.00000000       0.013
   0.40000000  0.20000000  0.00000000       0.013
  -0.40000000  0.20000000  0.00000000       0.013
  -0.20000000  0.20000000  0.00000000       0.013
   0.00000000  0.40000000  0.00000000       0.013
   0.20000000  0.40000000  0.00000000       0.013
   0.40000000  0.40000000  0.00000000       0.013
  -0.40000000  0.40000000  0.00000000       0.013
  -0.20000000  0.40000000  0.00000000       0.013
   0.00000000  0.00000000  0.16666667       0.013
   0.20000000  0.00000000  0.16666667       0.027
   0.40000000  0.00000000  0.16666667       0.027
   0.00000000  0.20000000  0.16666667       0.027
   0.20000000  0.20000000  0.16666667       0.027
   0.40000000  0.20000000  0.16666667       0.027
  -0.40000000  0.20000000  0.16666667       0.027
  -0.20000000  0.20000000  0.16666667       0.027
   0.00000000  0.40000000  0.16666667       0.027
   0.20000000  0.40000000  0.16666667       0.027
   0.40000000  0.40000000  0.16666667       0.027
  -0.40000000  0.40000000  0.16666667       0.027
  -0.20000000  0.40000000  0.16666667       0.027
   0.00000000  0.00000000  0.33333333       0.013
   0.20000000  0.00000000  0.33333333       0.027
   0.40000000  0.00000000  0.33333333       0.027
   0.00000000  0.20000000  0.33333333       0.027
   0.20000000  0.20000000  0.33333333       0.027
   0.40000000  0.20000000  0.33333333       0.027
  -0.40000000  0.20000000  0.33333333       0.027
  -0.20000000  0.20000000  0.33333333       0.027
   0.00000000  0.40000000  0.33333333       0.027
   0.20000000  0.40000000  0.33333333       0.027
   0.40000000  0.40000000  0.33333333       0.027
  -0.40000000  0.40000000  0.33333333       0.027
  -0.20000000  0.40000000  0.33333333       0.027
   0.00000000  0.00000000  0.50000000       0.007
   0.20000000  0.00000000  0.50000000       0.013
   0.40000000  0.00000000  0.50000000       0.013
   0.00000000  0.20000000  0.50000000       0.013
   0.20000000  0.20000000  0.50000000       0.013
   0.40000000  0.20000000  0.50000000       0.013
  -0.40000000  0.20000000  0.50000000       0.013
  -0.20000000  0.20000000  0.50000000       0.013
   0.00000000  0.40000000  0.50000000       0.013
   0.20000000  0.40000000  0.50000000       0.013
   0.40000000  0.40000000  0.50000000       0.013
  -0.40000000  0.40000000  0.50000000       0.013
  -0.20000000  0.40000000  0.50000000       0.013
 
 position of ions in fractional coordinates (direct lattice) 
   0.00000000  0.00000000  0.00000000
   0.00000000  0.00000000  0.50000000
   0.00000000  0.33333333  0.00000000
   0.00000000  0.33333333  0.50000000
   0.00000000  0.66666667  0.00000000
   0.00000000  0.66666667  0.50000000
   0.33333333  0.00000000  0.00000000
   0.33333333  0.00000000  0.50000000
   0.33333333  0.33333333  0.00000000
   0.33333333  0.33333333  0.50000000
   0.33333333  0.66666667  0.00000000
   0.33333333  0.66666667  0.50000000
   0.66666667  0.00000000  0.00000000
   0.66666667  0.00000000  0.50000000
   0.66666667  0.33333333  0.00000000
   0.66666667  0.33333333  0.50000000
   0.66666667  0.66666667  0.00000000
   0.66666667  0.66666667  0.50000000
   0.16666667  0.16666667  0.25000000
   0.16666667  0.16666667  0.75000000
   0.16666667  0.50000000  0.25000000
   0.16666667  0.50000000  0.75000000
   0.16666667  0.83333333  0.25000000
   0.16666667  0.83333333  0.75000000
   0.50000000  0.16666667  0.25000000
   0.50000000  0.16666667  0.75000000
   0.50000000  0.50000000  0.25000000
   0.50000000  0.50000000  0.75000000
   0.50000000  0.83333333  0.25000000
   0.50000000  0.83333333  0.75000000
   0.83333333  0.16666667  0.25000000
   0.83333333  0.16666667  0.75000000
   0.83333333  0.50000000  0.25000000
   0.83333333  0.50000000  0.75000000
   0.83333333  0.83333333  0.25000000
   0.83333333  0.83333333  0.75000000
 
 position of ions in cartesian coordinates  (Angst):
   0.00000000  0.00000000  0.00000000
   0.00000000  0.00000000  3.47663713
   0.00000000  2.75004939  0.00000000
   0.00000000  2.75004939  3.47663713
   0.00000000  5.50009878  0.00000000
   0.00000000  5.50009878  3.47663713
   2.75004939  0.00000000  0.00000000
   2.75004939  0.00000000  3.47663713
   2.75004939  2.75004939  0.00000000
   2.75004939  2.75004939  3.47663713
   2.75004939  5.50009878  0.00000000
   2.75004939  5.50009878  3.47663713
   5.50009878  0.00000000  0.00000000
   5.50009878  0.00000000  3.47663713
   5.50009878  2.75004939  0.00000000
   5.50009878  2.75004939  3.47663713
   5.50009878  5.50009878  0.00000000
   5.50009878  5.50009878  3.47663713
   1.37502469  1.37502469  1.73831857
   1.37502469  1.37502469  5.21495570
   1.37502469  4.12507408  1.73831857
   1.37502469  4.12507408  5.21495570
   1.37502469  6.87512347  1.73831857
   1.37502469  6.87512347  5.21495570
   4.12507408  1.37502469  1.73831857
   4.12507408  1.37502469  5.21495570
   4.12507408  4.12507408  1.73831857
   4.12507408  4.12507408  5.21495570
   4.12507408  6.87512347  1.73831857
   4.12507408  6.87512347  5.21495570
   6.87512347  1.37502469  1.73831857
   6.87512347  1.37502469  5.21495570
   6.87512347  4.12507408  1.73831857
   6.87512347  4.12507408  5.21495570
   6.87512347  6.87512347  1.73831857
   6.87512347  6.87512347  5.21495570
 


--------------------------------------------------------------------------------------------------------


 k-point  1 :   0.0000 0.0000 0.0000  plane waves:    8799
 k-point  2 :   0.2000 0.0000 0.0000  plane waves:    8753
 k-point  3 :   0.4000 0.0000 0.0000  plane waves:    8757
 k-point  4 :   0.0000 0.2000 0.0000  plane waves:    8753
 k-point  5 :   0.2000 0.2000 0.0000  plane waves:    8767
 k-point  6 :   0.4000 0.2000 0.0000  plane waves:    8761
 k-point  7 :  -0.4000 0.2000 0.0000  plane waves:    8761
 k-point  8 :  -0.2000 0.2000 0.0000  plane waves:    8767
 k-point  9 :   0.0000 0.4000 0.0000  plane waves:    8757
 k-point 10 :   0.2000 0.4000 0.0000  plane waves:    8761
 k-point 11 :   0.4000 0.4000 0.0000  plane waves:    8731
 k-point 12 :  -0.4000 0.4000 0.0000  plane waves:    8731
 k-point 13 :  -0.2000 0.4000 0.0000  plane waves:    8761
 k-point 14 :   0.0000 0.0000 0.1667  plane waves:    8763
 k-point 15 :   0.2000 0.0000 0.1667  plane waves:    8771
 k-point 16 :   0.4000 0.0000 0.1667  plane waves:    8747
 k-point 17 :   0.0000 0.2000 0.1667  plane waves:    8771
 k-point 18 :   0.2000 0.2000 0.1667  plane waves:    8764
 k-point 19 :   0.4000 0.2000 0.1667  plane waves:    8768
 k-point 20 :  -0.4000 0.2000 0.1667  plane waves:    8768
 k-point 21 :  -0.2000 0.2000 0.1667  plane waves:    8764
 k-point 22 :   0.0000 0.4000 0.1667  plane waves:    8747
 k-point 23 :   0.2000 0.4000 0.1667  plane waves:    8768
 k-point 24 :   0.4000 0.4000 0.1667  plane waves:    8740
 k-point 25 :  -0.4000 0.4000 0.1667  plane waves:    8740
 k-point 26 :  -0.2000 0.4000 0.1667  plane waves:    8768
 k-point 27 :   0.0000 0.0000 0.3333  plane waves:    8743
 k-point 28 :   0.2000 0.0000 0.3333  plane waves:    8736
 k-point 29 :   0.4000 0.0000 0.3333  plane waves:    8753
 k-point 30 :   0.0000 0.2000 0.3333  plane waves:    8736
 k-point 31 :   0.2000 0.2000 0.3333  plane waves:    8753
 k-point 32 :   0.4000 0.2000 0.3333  plane waves:    8743
 k-point 33 :  -0.4000 0.2000 0.3333  plane waves:    8743
 k-point 34 :  -0.2000 0.2000 0.3333  plane waves:    8753
 k-point 35 :   0.0000 0.4000 0.3333  plane waves:    8753
 k-point 36 :   0.2000 0.4000 0.3333  plane waves:    8743
 k-point 37 :   0.4000 0.4000 0.3333  plane waves:    8755
 k-point 38 :  -0.4000 0.4000 0.3333  plane waves:    8755
 k-point 39 :  -0.2000 0.4000 0.3333  plane waves:    8743
 k-point 40 :   0.0000 0.0000 0.5000  plane waves:    8742
 k-point 41 :   0.2000 0.0000 0.5000  plane waves:    8756
 k-point 42 :   0.4000 0.0000 0.5000  plane waves:    8744
 k-point 43 :   0.0000 0.2000 0.5000  plane waves:    8756
 k-point 44 :   0.2000 0.2000 0.5000  plane waves:    8762
 k-point 45 :   0.4000 0.2000 0.5000  plane waves:    8732
 k-point 46 :  -0.4000 0.2000 0.5000  plane waves:    8732
 k-point 47 :  -0.2000 0.2000 0.5000  plane waves:    8762
 k-point 48 :   0.0000 0.4000 0.5000  plane waves:    8744
 k-point 49 :   0.2000 0.4000 0.5000  plane waves:    8732
 k-point 50 :   0.4000 0.4000 0.5000  plane waves:    8736
 k-point 51 :  -0.4000 0.4000 0.5000  plane waves:    8736
 k-point 52 :  -0.2000 0.4000 0.5000  plane waves:    8732

 maximum and minimum number of plane-waves per node :      2210     2164

 maximum number of plane-waves:      8799
 maximum index in each direction: 
   IXMAX=   13   IYMAX=   13   IZMAX=   11
   IXMIN=  -13   IYMIN=  -13   IZMIN=  -11


 parallel 3D FFT for wavefunctions:
    minimum data exchange during FFTs selected (reduces bandwidth)
 parallel 3D FFT for charge:
    minimum data exchange during FFTs selected (reduces bandwidth)


 total amount of memory used by VASP MPI-rank0   775081. kBytes
=======================================================================

   base      :      30000. kBytes
   nonl-proj :      34307. kBytes
   fftplans  :      21726. kBytes
   grid      :      14732. kBytes
   one-center:        279. kBytes
   wavefun   :     674037. kBytes
 
     INWAV:  cpu time    0.0001: real time    0.0001
 Broyden mixing: mesh for mixing (old mesh)
   NGX = 27   NGY = 27   NGZ = 23
  (NGX  =108   NGY  =108   NGZ  = 96)
  gives a total of  16767 points

 initial charge density was supplied:
 charge density of overlapping atoms calculated
 number of electron     180.0000000 magnetization      12.0000000
 keeping initial charge density in first step


--------------------------------------------------------------------------------------------------------


 Maximum index for augmentation-charges        11261 (set IRDMAX)


--------------------------------------------------------------------------------------------------------


 First call to EWALD:  gamma=   0.227
 Maximum number of real-space cells 3x 3x 3
 Maximum number of reciprocal cells 3x 3x 3

    FEWALD:  cpu time    0.0022: real time    0.0022


--------------------------------------- Iteration      1(   1)  ---------------------------------------


    POTLOK:  cpu time    0.2521: real time    0.2529
    SETDIJ:  cpu time    0.3214: real time    0.3222
    TRIAL :  cpu time   20.2780: real time   21.6921
    CORREC:  cpu time    0.0069: real time    0.0077
    --------------------------------------------
      LOOP:  cpu time   21.0856: real time   22.5119

 eigenvalue-minimisations  : 24128
 total energy-change (2. order) : 0.1339783E+04  (-0.5922581E+04)
 number of electron     180.0000000 magnetization      12.0000000
 augmentation part      180.0000000 magnetization      12.0000000

 Free energy of the ion-electron system (eV)
  ---------------------------------------------------
  alpha Z        PSCENC =       532.25742704
  Ewald energy   TEWEN  =     -8601.05107233
  -Hartree energ DENC   =     -1903.73857242
  -exchange      EXHF   =         0.00000000
  -V(xc)+E(xc)   XCENC  =      -664.54797665
  PAW double counting   =      8494.55058411    -7650.81563588
  entropy T*S    EENTRO =        -0.00276730
  eigenvalues    EBANDS =      2668.01537004
  atomic energy  EATOM  =      8465.11600846
  ---------------------------------------------------
  free energy    TOTEN  =      1339.78336507 eV

  energy without entropy =     1339.78613237  energy(sigma->0) =     1339.78428750


--------------------------------------------------------------------------------------------------------




--------------------------------------- Iteration      1(   2)  ---------------------------------------


    TRIAL :  cpu time   19.3905: real time   20.2833
    CORREC:  cpu time    0.0084: real time    0.0085
    --------------------------------------------
      LOOP:  cpu time   19.4001: real time   20.2951

 eigenvalue-minimisations  : 24128
 total energy-change (2. order) :-0.1411658E+04  (-0.1372009E+04)
 number of electron     180.0000000 magnetization      12.0000000
 augmentation part      180.0000000 magnetization      12.0000000

 Free energy of the ion-electron system (eV)
  ---------------------------------------------------
  alpha Z        PSCENC =       532.25742704
  Ewald energy   TEWEN  =     -8601.05107233
  -Hartree energ DENC   =     -1903.73857242
  -exchange      EXHF   =         0.00000000
  -V(xc)+E(xc)   XCENC  =      -664.54797665
  PAW double counting   =      8494.55058411    -7650.81563588
  entropy T*S    EENTRO =        -0.00576080
  eigenvalues    EBANDS =      1256.35993013
  atomic energy  EATOM  =      8465.11600846
  ---------------------------------------------------
  free energy    TOTEN  =       -71.87506834 eV

  energy without entropy =      -71.86930754  energy(sigma->0) =      -71.87314807


--------------------------------------------------------------------------------------------------------




--------------------------------------- Iteration      1(   3)  ---------------------------------------


    TRIAL :  cpu time   27.2862: real time   28.8629
    CORREC:  cpu time    0.0095: real time    0.0103
    --------------------------------------------
      LOOP:  cpu time   27.2990: real time   28.8766

 eigenvalue-minimisations  : 36508
 total energy-change (2. order) :-0.1686545E+03  (-0.1492321E+03)
 number of electron     180.0000000 magnetization      12.0000000
 augmentation part      180.0000000 magnetization      12.0000000

 Free energy of the ion-electron system (eV)
  ---------------------------------------------------
  alpha Z        PSCENC =       532.25742704
  Ewald energy   TEWEN  =     -8601.05107233
  -Hartree energ DENC   =     -1903.73857242
  -exchange      EXHF   =         0.00000000
  -V(xc)+E(xc)   XCENC  =      -664.54797665
  PAW double counting   =      8494.55058411    -7650.81563588
  entropy T*S    EENTRO =         0.00510256
  eigenvalues    EBANDS =      1087.69456569
  atomic energy  EATOM  =      8465.11600846
  ---------------------------------------------------
  free energy    TOTEN  =      -240.52956942 eV

  energy without entropy =     -240.53467198  energy(sigma->0) =     -240.53127027


--------------------------------------------------------------------------------------------------------




--------------------------------------- Iteration      1(   4)  ---------------------------------------


    TRIAL :  cpu time   29.3065: real time   30.1531
    CORREC:  cpu time    0.0103: real time    0.0111
    --------------------------------------------
      LOOP:  cpu time   29.3215: real time   30.1704

 eigenvalue-minimisations  : 39184
 total energy-change (2. order) :-0.2585401E+02  (-0.2270546E+02)
 number of electron     180.0000000 magnetization      12.0000000
 augmentation part      180.0000000 magnetization      12.0000000

 Free energy of the ion-electron system (eV)
  ---------------------------------------------------
  alpha Z        PSCENC =       532.25742704
  Ewald energy   TEWEN  =     -8601.05107233
  -Hartree energ DENC   =     -1903.73857242
  -exchange      EXHF   =         0.00000000
  -V(xc)+E(xc)   XCENC  =      -664.54797665
  PAW double counting   =      8494.55058411    -7650.81563588
  entropy T*S    EENTRO =         0.01938739
  eigenvalues    EBANDS =      1061.82627193
  atomic energy  EATOM  =      8465.11600846
  ---------------------------------------------------
  free energy    TOTEN  =      -266.38357834 eV

  energy without entropy =     -266.40296574  energy(sigma->0) =     -266.39004081


--------------------------------------------------------------------------------------------------------




--------------------------------------- Iteration      1(   5)  ---------------------------------------


    TRIAL :  cpu time   29.1939: real time   30.8623
    CORREC:  cpu time    0.0102: real time    0.0110
    --------------------------------------------
      LOOP:  cpu time   29.2052: real time   30.8767

 eigenvalue-minimisations  : 39968
 total energy-change (2. order) :-0.2552882E+01  (-0.2425046E+01)
 number of electron     180.0000000 magnetization      12.0000000
 augmentation part      180.0000000 magnetization      12.0000000

 Free energy of the ion-electron system (eV)
  ---------------------------------------------------
  alpha Z        PSCENC =       532.25742704
  Ewald energy   TEWEN  =     -8601.05107233
  -Hartree energ DENC   =     -1903.73857242
  -exchange      EXHF   =         0.00000000
  -V(xc)+E(xc)   XCENC  =      -664.54797665
  PAW double counting   =      8494.55058411    -7650.81563588
  entropy T*S    EENTRO =         0.02105758
  eigenvalues    EBANDS =      1059.27172018
  atomic energy  EATOM  =      8465.11600846
  ---------------------------------------------------
  free energy    TOTEN  =      -268.93645991 eV

  energy without entropy =     -268.95751749  energy(sigma->0) =     -268.94347910


--------------------------------------------------------------------------------------------------------




--------------------------------------- Iteration      1(   6)  ---------------------------------------


    TRIAL :  cpu time   29.6902: real time   31.2382
    CORREC:  cpu time    0.0103: real time    0.0104
    --------------------------------------------
      LOOP:  cpu time   29.7024: real time   31.2522

 eigenvalue-minimisations  : 39752
 total energy-change (2. order) :-0.1986736E+00  (-0.1946380E+00)
 number of electron     180.0000000 magnetization      12.0000000
 augmentation part      180.0000000 magnetization      12.0000000

 Free energy of the ion-electron system (eV)
  ---------------------------------------------------
  alpha Z        PSCENC =       532.25742704
  Ewald energy   TEWEN  =     -8601.05107233
  -Hartree energ DENC   =     -1903.73857242
  -exchange      EXHF   =         0.00000000
  -V(xc)+E(xc)   XCENC  =      -664.54797665
  PAW double counting   =      8494.55058411    -7650.81563588
  entropy T*S    EENTRO =         0.02200343
  eigenvalues    EBANDS =      1059.07210071
  atomic energy  EATOM  =      8465.11600846
  ---------------------------------------------------
  free energy    TOTEN  =      -269.13513353 eV

  energy without entropy =     -269.15713696  energy(sigma->0) =     -269.14246801


--------------------------------------------------------------------------------------------------------




--------------------------------------- Iteration      1(   7)  ---------------------------------------


    TRIAL :  cpu time   30.2100: real time   31.7773
    CORREC:  cpu time    0.0102: real time    0.0110
    --------------------------------------------
      LOOP:  cpu time   30.2211: real time   31.7914

 eigenvalue-minimisations  : 40664
 total energy-change (2. order) :-0.2067418E-01  (-0.2049309E-01)
 number of electron     180.0000000 magnetization      12.0000000
 augmentation part      180.0000000 magnetization      12.0000000

 Free energy of the ion-electron system (eV)
  ---------------------------------------------------
  alpha Z        PSCENC =       532.25742704
  Ewald energy   TEWEN  =     -8601.05107233
  -Hartree energ DENC   =     -1903.73857242
  -exchange      EXHF   =         0.00000000
  -V(xc)+E(xc)   XCENC  =      -664.54797665
  PAW double counting   =      8494.55058411    -7650.81563588
  entropy T*S    EENTRO =         0.02222073
  eigenvalues    EBANDS =      1059.05120924
  atomic energy  EATOM  =      8465.11600846
  ---------------------------------------------------
  free energy    TOTEN  =      -269.15580771 eV

  energy without entropy =     -269.17802843  energy(sigma->0) =     -269.16321462


--------------------------------------------------------------------------------------------------------




--------------------------------------- Iteration      1(   8)  ---------------------------------------


    TRIAL :  cpu time   28.3729: real time   30.7833
    CORREC:  cpu time    0.0105: real time    0.0114
    CHARGE:  cpu time    1.1821: real time    1.1827
    --------------------------------------------
      LOOP:  cpu time   29.5672: real time   31.9811

 eigenvalue-minimisations  : 38968
 total energy-change (2. order) :-0.1518196E-02  (-0.1509728E-02)
 number of electron     179.9999997 magnetization       8.3183356
 augmentation part       42.6383835 magnetization       4.8689973

 Free energy of the ion-electron system (eV)
  ---------------------------------------------------
  alpha Z        PSCENC =       532.25742704
  Ewald energy   TEWEN  =     -8601.05107233
  -Hartree energ DENC   =     -1903.73857242
  -exchange      EXHF   =         0.00000000
  -V(xc)+E(xc)   XCENC  =      -664.54797665
  PAW double counting   =      8494.55058411    -7650.81563588
  entropy T*S    EENTRO =         0.02227960
  eigenvalues    EBANDS =      1059.04963217
  atomic energy  EATOM  =      8465.11600846
  ---------------------------------------------------
  free energy    TOTEN  =      -269.15732590 eV

  energy without entropy =     -269.17960550  energy(sigma->0) =     -269.16475244


--------------------------------------------------------------------------------------------------------




--------------------------------------- Iteration      1(   9)  ---------------------------------------


    POTLOK:  cpu time    0.2523: real time    0.2524
    SETDIJ:  cpu time    0.3225: real time    0.3654
    TRIAL :  cpu time    9.7839: real time   10.6263
    CORREC:  cpu time    3.5069: real time    3.5085
    CHARGE:  cpu time    1.1194: real time    1.1200
    --------------------------------------------
      LOOP:  cpu time   15.0378: real time   15.9277

 eigenvalue-minimisations  :     0
 total energy-change (2. order) : 0.2058373E+03  (-0.1457210E+03)
 number of electron     179.9999997 magnetization       8.8495109
 augmentation part       54.5222244 magnetization       5.7662918

 Free energy of the ion-electron system (eV)
  ---------------------------------------------------
  alpha Z        PSCENC =       532.25742704
  Ewald energy   TEWEN  =     -8601.05107233
  -Hartree energ DENC   =      -844.53481138
  -exchange      EXHF   =         0.00000000
  -V(xc)+E(xc)   XCENC  =      -694.89861603
  PAW double counting   =     12761.74143420   -11815.02745390
  entropy T*S    EENTRO =         0.00763486
  eigenvalues    EBANDS =       133.05481858
  atomic energy  EATOM  =      8465.11600846
  ---------------------------------------------------
  free energy    TOTEN  =       -63.31998576 eV

  energy without entropy =      -63.32762063  energy(sigma->0) =      -63.32253072


--------------------------------------------------------------------------------------------------------




--------------------------------------- Iteration      1(  10)  ---------------------------------------


    POTLOK:  cpu time    0.2473: real time    0.2475
    SETDIJ:  cpu time    0.3230: real time    0.3231
    TRIAL :  cpu time   11.1607: real time   11.2932
    CORREC:  cpu time    3.4941: real time    3.4959
    CHARGE:  cpu time    1.1117: real time    1.1243
    --------------------------------------------
      LOOP:  cpu time   16.3389: real time   16.4862

 eigenvalue-minimisations  :     0
 total energy-change (2. order) :-0.1453450E+03  (-0.9603458E+01)
 number of electron     179.9999996 magnetization       8.9151938
 augmentation part       57.7472754 magnetization       6.0559063

 Free energy of the ion-electron system (eV)
  ---------------------------------------------------
  alpha Z        PSCENC =       532.25742704
  Ewald energy   TEWEN  =     -8601.05107233
  -Hartree energ DENC   =     -1380.51666823
  -exchange      EXHF   =         0.00000000
  -V(xc)+E(xc)   XCENC  =      -676.48644673
  PAW double counting   =     13671.27289204   -12841.39388612
  entropy T*S    EENTRO =         0.00329890
  eigenvalues    EBANDS =       622.12910315
  atomic energy  EATOM  =      8465.11600846
  ---------------------------------------------------
  free energy    TOTEN  =      -208.66500786 eV

  energy without entropy =     -208.66830676  energy(sigma->0) =     -208.66610749


--------------------------------------------------------------------------------------------------------




--------------------------------------- Iteration      1(  11)  ---------------------------------------


    POTLOK:  cpu time    0.2472: real time    0.2476
    SETDIJ:  cpu time    0.3208: real time    0.3217
    TRIAL :  cpu time    9.6050: real time   11.0963
    CORREC:  cpu time    3.5436: real time    3.5638
    CHARGE:  cpu time    1.1585: real time    1.1592
    --------------------------------------------
      LOOP:  cpu time   14.8941: real time   16.4084

 eigenvalue-minimisations  :     0
 total energy-change (2. order) :-0.9638260E+01  (-0.8526080E+01)
 number of electron     179.9999996 magnetization       9.2406323
 augmentation part       59.1570409 magnetization       6.3600430

 Free energy of the ion-electron system (eV)
  ---------------------------------------------------
  alpha Z        PSCENC =       532.25742704
  Ewald energy   TEWEN  =     -8601.05107233
  -Hartree energ DENC   =     -1566.62347033
  -exchange      EXHF   =         0.00000000
  -V(xc)+E(xc)   XCENC  =      -669.85062090
  PAW double counting   =     14422.20153279   -13625.12477630
  entropy T*S    EENTRO =         0.00055000
  eigenvalues    EBANDS =       824.76840503
  atomic energy  EATOM  =      8465.11600846
  ---------------------------------------------------
  free energy    TOTEN  =      -218.30326765 eV

  energy without entropy =     -218.30381764  energy(sigma->0) =     -218.30345098


--------------------------------------------------------------------------------------------------------




--------------------------------------- Iteration      1(  12)  ---------------------------------------


    POTLOK:  cpu time    0.2479: real time    0.2482
    SETDIJ:  cpu time    0.3439: real time    0.3440
    TRIAL :  cpu time    9.7577: real time   10.5286
    CORREC:  cpu time    3.4845: real time    3.6063
    CHARGE:  cpu time    1.1115: real time    1.1117
    --------------------------------------------
      LOOP:  cpu time   14.9467: real time   15.8408

 eigenvalue-minimisations  :     0
 total energy-change (2. order) :-0.8528284E+01  (-0.6378064E+01)
 number of electron     179.9999997 magnetization       9.2162514
 augmentation part       58.3282465 magnetization       6.4126999

 Free energy of the ion-electron system (eV)
  ---------------------------------------------------
  alpha Z        PSCENC =       532.25742704
  Ewald energy   TEWEN  =     -8601.05107233
  -Hartree energ DENC   =     -1700.87839597
  -exchange      EXHF   =         0.00000000
  -V(xc)+E(xc)   XCENC  =      -665.46296604
  PAW double counting   =     14445.39584051   -13649.83774623
  entropy T*S    EENTRO =         0.00468181
  eigenvalues    EBANDS =       947.62880284
  atomic energy  EATOM  =      8465.11600846
  ---------------------------------------------------
  free energy    TOTEN  =      -226.83155173 eV

  energy without entropy =     -226.83623354  energy(sigma->0) =     -226.83311234


--------------------------------------------------------------------------------------------------------




--------------------------------------- Iteration      1(  13)  ---------------------------------------


    POTLOK:  cpu time    0.2475: real time    0.2475
    SETDIJ:  cpu time    0.3224: real time    0.3225
    TRIAL :  cpu time    9.6655: real time   10.4442
    CORREC:  cpu time    3.6156: real time    3.6302
    CHARGE:  cpu time    1.7688: real time    1.7690
    --------------------------------------------
      LOOP:  cpu time   15.6223: real time   16.4171

 eigenvalue-minimisations  :     0
 total energy-change (2. order) :-0.6279208E+01  (-0.9982320E+00)
 number of electron     179.9999997 magnetization       9.2014242
 augmentation part       57.4878577 magnetization       6.3643376

 Free energy of the ion-electron system (eV)
  ---------------------------------------------------
  alpha Z        PSCENC =       532.25742704
  Ewald energy   TEWEN  =     -8601.05107233
  -Hartree energ DENC   =     -1706.35664766
  -exchange      EXHF   =         0.00000000
  -V(xc)+E(xc)   XCENC  =      -665.68608823
  PAW double counting   =     14182.10099127   -13362.35171055
  entropy T*S    EENTRO =         0.00497992
  eigenvalues    EBANDS =       922.85565090
  atomic energy  EATOM  =      8465.11600846
  ---------------------------------------------------
  free energy    TOTEN  =      -233.11075928 eV

  energy without entropy =     -233.11573920  energy(sigma->0) =     -233.11241926


--------------------------------------------------------------------------------------------------------




--------------------------------------- Iteration      1(  14)  ---------------------------------------


    POTLOK:  cpu time    0.2478: real time    0.2478
    SETDIJ:  cpu time    0.3212: real time    0.3215
    TRIAL :  cpu time    9.8010: real time   10.5344
    CORREC:  cpu time    3.4873: real time    4.2610
    CHARGE:  cpu time    1.1180: real time    1.1183
    --------------------------------------------
      LOOP:  cpu time   14.9773: real time   16.4867

 eigenvalue-minimisations  :     0
 total energy-change (2. order) :-0.9865378E+00  (-0.6777925E+00)
 number of electron     179.9999997 magnetization       9.1475893
 augmentation part       57.2364651 magnetization       6.2848747

 Free energy of the ion-electron system (eV)
  ---------------------------------------------------
  alpha Z        PSCENC =       532.25742704
  Ewald energy   TEWEN  =     -8601.05107233
  -Hartree energ DENC   =     -1664.28959380
  -exchange      EXHF   =         0.00000000
  -V(xc)+E(xc)   XCENC  =      -667.23905114
  PAW double counting   =     13909.49314724   -13077.10700943
  entropy T*S    EENTRO =         0.00836721
  eigenvalues    EBANDS =       868.71786700
  atomic energy  EATOM  =      8465.11600846
  ---------------------------------------------------
  free energy    TOTEN  =      -234.09729704 eV

  energy without entropy =     -234.10566425  energy(sigma->0) =     -234.10008611


--------------------------------------------------------------------------------------------------------




--------------------------------------- Iteration      1(  15)  ---------------------------------------


    POTLOK:  cpu time    0.2650: real time    0.2785
    SETDIJ:  cpu time    0.3201: real time    0.3202
    TRIAL :  cpu time    9.6607: real time   10.4101
    CORREC:  cpu time    3.5418: real time    3.5511
    CHARGE:  cpu time    1.1201: real time    1.1208
    --------------------------------------------
      LOOP:  cpu time   14.9094: real time   15.6832

 eigenvalue-minimisations  :     0
 total energy-change (2. order) :-0.6739639E+00  (-0.6196746E+00)
 number of electron     179.9999996 magnetization       9.1727638
 augmentation part       57.6726655 magnetization       6.2724801

 Free energy of the ion-electron system (eV)
  ---------------------------------------------------
  alpha Z        PSCENC =       532.25742704
  Ewald energy   TEWEN  =     -8601.05107233
  -Hartree energ DENC   =     -1643.45532988
  -exchange      EXHF   =         0.00000000
  -V(xc)+E(xc)   XCENC  =      -667.89177621
  PAW double counting   =     13487.71913327   -12649.79848973
  entropy T*S    EENTRO =         0.00957837
  eigenvalues    EBANDS =       842.32447127
  atomic energy  EATOM  =      8465.11600846
  ---------------------------------------------------
  free energy    TOTEN  =      -234.77126091 eV

  energy without entropy =     -234.78083928  energy(sigma->0) =     -234.77445370


--------------------------------------------------------------------------------------------------------




--------------------------------------- Iteration      1(  16)  ---------------------------------------


    POTLOK:  cpu time    0.2449: real time    0.2638
    SETDIJ:  cpu time    0.3648: real time    0.3648
    TRIAL :  cpu time   10.0343: real time   10.7911
    CORREC:  cpu time    3.4980: real time    3.5710
    CHARGE:  cpu time    1.1209: real time    1.1217
    --------------------------------------------
      LOOP:  cpu time   15.2692: real time   16.1192

 eigenvalue-minimisations  :     0
 total energy-change (2. order) :-0.6202817E+00  (-0.1902150E+00)
 number of electron     179.9999996 magnetization       9.1036071
 augmentation part       58.0617003 magnetization       6.2748284

 Free energy of the ion-electron system (eV)
  ---------------------------------------------------
  alpha Z        PSCENC =       532.25742704
  Ewald energy   TEWEN  =     -8601.05107233
  -Hartree energ DENC   =     -1655.47061978
  -exchange      EXHF   =         0.00000000
  -V(xc)+E(xc)   XCENC  =      -667.31965562
  PAW double counting   =     13121.79369349   -12286.34672125
  entropy T*S    EENTRO =         0.01191717
  eigenvalues    EBANDS =       855.61981900
  atomic energy  EATOM  =      8465.11600846
  ---------------------------------------------------
  free energy    TOTEN  =      -235.39154262 eV

  energy without entropy =     -235.40345979  energy(sigma->0) =     -235.39551501


--------------------------------------------------------------------------------------------------------




--------------------------------------- Iteration      1(  17)  ---------------------------------------


    POTLOK:  cpu time    0.2483: real time    0.2483
    SETDIJ:  cpu time    0.3528: real time    0.3528
    TRIAL :  cpu time   10.3985: real time   11.1024
    CORREC:  cpu time    3.4816: real time    3.5137
    CHARGE:  cpu time    1.1087: real time    1.1091
    --------------------------------------------
      LOOP:  cpu time   15.6041: real time   16.3413

 eigenvalue-minimisations  :     0
 total energy-change (2. order) :-0.1897631E+00  (-0.1785951E+00)
 number of electron     179.9999996 magnetization       9.1504954
 augmentation part       58.2695125 magnetization       6.3531964

 Free energy of the ion-electron system (eV)
  ---------------------------------------------------
  alpha Z        PSCENC =       532.25742704
  Ewald energy   TEWEN  =     -8601.05107233
  -Hartree energ DENC   =     -1672.03482177
  -exchange      EXHF   =         0.00000000
  -V(xc)+E(xc)   XCENC  =      -666.60902926
  PAW double counting   =     13042.38050806   -12210.83551351
  entropy T*S    EENTRO =         0.01305592
  eigenvalues    EBANDS =       875.18327038
  atomic energy  EATOM  =      8465.11600846
  ---------------------------------------------------
  free energy    TOTEN  =      -235.58130577 eV

  energy without entropy =     -235.59436169  energy(sigma->0) =     -235.58565774


--------------------------------------------------------------------------------------------------------




--------------------------------------- Iteration      1(  18)  ---------------------------------------


    POTLOK:  cpu time    0.2472: real time    0.2472
    SETDIJ:  cpu time    0.3439: real time    0.3439
    TRIAL :  cpu time   10.3405: real time   11.0609
    CORREC:  cpu time    3.4909: real time    3.5224
    CHARGE:  cpu time    1.0756: real time    1.1700
    --------------------------------------------
      LOOP:  cpu time   15.4994: real time   16.3463

 eigenvalue-minimisations  :     0
 total energy-change (2. order) :-0.1785979E+00  (-0.1047923E+00)
 number of electron     179.9999996 magnetization       9.0957660
 augmentation part       58.1322026 magnetization       6.3626062

 Free energy of the ion-electron system (eV)
  ---------------------------------------------------
  alpha Z        PSCENC =       532.25742704
  Ewald energy   TEWEN  =     -8601.05107233
  -Hartree energ DENC   =     -1679.78355660
  -exchange      EXHF   =         0.00000000
  -V(xc)+E(xc)   XCENC  =      -666.13761343
  PAW double counting   =     12998.90260285   -12169.75279579
  entropy T*S    EENTRO =         0.01420200
  eigenvalues    EBANDS =       884.67604026
  atomic energy  EATOM  =      8465.11600846
  ---------------------------------------------------
  free energy    TOTEN  =      -235.75990363 eV

  energy without entropy =     -235.77410562  energy(sigma->0) =     -235.76463763


--------------------------------------------------------------------------------------------------------




--------------------------------------- Iteration      1(  19)  ---------------------------------------


    POTLOK:  cpu time    0.2488: real time    0.2488
    SETDIJ:  cpu time    0.3394: real time    0.3397
    TRIAL :  cpu time    9.9734: real time   10.7150
    CORREC:  cpu time    3.5973: real time    3.6008
    CHARGE:  cpu time    1.1091: real time    1.1097
    --------------------------------------------
      LOOP:  cpu time   15.2699: real time   16.0171

 eigenvalue-minimisations  :     0
 total energy-change (2. order) :-0.1043548E+00  (-0.4642412E-01)
 number of electron     179.9999996 magnetization       9.1178708
 augmentation part       57.9505721 magnetization       6.3873317

 Free energy of the ion-electron system (eV)
  ---------------------------------------------------
  alpha Z        PSCENC =       532.25742704
  Ewald energy   TEWEN  =     -8601.05107233
  -Hartree energ DENC   =     -1671.35667659
  -exchange      EXHF   =         0.00000000
  -V(xc)+E(xc)   XCENC  =      -666.30625633
  PAW double counting   =     12973.77408627   -12143.29253310
  entropy T*S    EENTRO =         0.01467811
  eigenvalues    EBANDS =       874.98055612
  atomic energy  EATOM  =      8465.11600846
  ---------------------------------------------------
  free energy    TOTEN  =      -235.86425847 eV

  energy without entropy =     -235.87893659  energy(sigma->0) =     -235.86915118


--------------------------------------------------------------------------------------------------------




--------------------------------------- Iteration      1(  20)  ---------------------------------------


    POTLOK:  cpu time    0.2487: real time    0.2488
    SETDIJ:  cpu time    0.2886: real time    0.3580
    TRIAL :  cpu time   10.1057: real time   10.9147
    CORREC:  cpu time    3.5258: real time    3.5274
    CHARGE:  cpu time    1.1259: real time    1.1264
    --------------------------------------------
      LOOP:  cpu time   15.2972: real time   16.1779

 eigenvalue-minimisations  :     0
 total energy-change (2. order) :-0.4625763E-01  (-0.5386282E-01)
 number of electron     179.9999996 magnetization       9.0979181
 augmentation part       57.8291804 magnetization       6.4008908

 Free energy of the ion-electron system (eV)
  ---------------------------------------------------
  alpha Z        PSCENC =       532.25742704
  Ewald energy   TEWEN  =     -8601.05107233
  -Hartree energ DENC   =     -1662.11266867
  -exchange      EXHF   =         0.00000000
  -V(xc)+E(xc)   XCENC  =      -666.57482328
  PAW double counting   =     12961.38401082   -12129.07128943
  entropy T*S    EENTRO =         0.01532616
  eigenvalues    EBANDS =       864.12721319
  atomic energy  EATOM  =      8465.11600846
  ---------------------------------------------------
  free energy    TOTEN  =      -235.91051610 eV

  energy without entropy =     -235.92584226  energy(sigma->0) =     -235.91562482


--------------------------------------------------------------------------------------------------------




--------------------------------------- Iteration      1(  21)  ---------------------------------------


    POTLOK:  cpu time    0.2469: real time    0.2469
    SETDIJ:  cpu time    0.3435: real time    0.3435
    TRIAL :  cpu time   10.0297: real time   10.7053
    CORREC:  cpu time    3.4840: real time    3.5065
    CHARGE:  cpu time    1.1145: real time    1.1152
    --------------------------------------------
      LOOP:  cpu time   15.2231: real time   15.9227

 eigenvalue-minimisations  :     0
 total energy-change (2. order) :-0.5389937E-01  (-0.3536530E-01)
 number of electron     179.9999996 magnetization       9.1203974
 augmentation part       57.8857316 magnetization       6.4277186

 Free energy of the ion-electron system (eV)
  ---------------------------------------------------
  alpha Z        PSCENC =       532.25742704
  Ewald energy   TEWEN  =     -8601.05107233
  -Hartree energ DENC   =     -1658.13428012
  -exchange      EXHF   =         0.00000000
  -V(xc)+E(xc)   XCENC  =      -666.63767336
  PAW double counting   =     12966.25150221   -12133.00875369
  entropy T*S    EENTRO =         0.01609940
  eigenvalues    EBANDS =       859.22710017
  atomic energy  EATOM  =      8465.11600846
  ---------------------------------------------------
  free energy    TOTEN  =      -235.96441547 eV

  energy without entropy =     -235.98051487  energy(sigma->0) =     -235.96978194


--------------------------------------------------------------------------------------------------------




--------------------------------------- Iteration      1(  22)  ---------------------------------------


    POTLOK:  cpu time    0.2472: real time    0.2473
    SETDIJ:  cpu time    0.3211: real time    0.3211
    TRIAL :  cpu time   10.0135: real time   11.4871
    CORREC:  cpu time    3.5538: real time    3.5699
    CHARGE:  cpu time    1.1121: real time    1.1208
    --------------------------------------------
      LOOP:  cpu time   15.2493: real time   16.7491

 eigenvalue-minimisations  :     0
 total energy-change (2. order) :-0.3528238E-01  (-0.1469192E-01)
 number of electron     179.9999996 magnetization       9.1108336
 augmentation part       57.9719916 magnetization       6.4330549

 Free energy of the ion-electron system (eV)
  ---------------------------------------------------
  alpha Z        PSCENC =       532.25742704
  Ewald energy   TEWEN  =     -8601.05107233
  -Hartree energ DENC   =     -1663.06855160
  -exchange      EXHF   =         0.00000000
  -V(xc)+E(xc)   XCENC  =      -666.40969969
  PAW double counting   =     12984.63830423   -12152.32295758
  entropy T*S    EENTRO =         0.01633211
  eigenvalues    EBANDS =       864.82474423
  atomic energy  EATOM  =      8465.11600846
  ---------------------------------------------------
  free energy    TOTEN  =      -235.99969785 eV

  energy without entropy =     -236.01602996  energy(sigma->0) =     -236.00514189


--------------------------------------------------------------------------------------------------------




--------------------------------------- Iteration      1(  23)  ---------------------------------------


    POTLOK:  cpu time    0.2497: real time    0.2500
    SETDIJ:  cpu time    0.3444: real time    0.3445
    TRIAL :  cpu time   10.6633: real time   10.7302
    CORREC:  cpu time    3.6033: real time    3.7286
    CHARGE:  cpu time    1.1270: real time    1.1284
    --------------------------------------------
[...]
  8.441  14.384   0.000   0.000   0.000  -0.000   0.000   0.000
 14.384  24.513   0.000   0.000   0.000  -0.000   0.000   0.001
  0.000   0.000   1.996   0.000   0.000   5.750   0.000   0.000
  0.000   0.000   0.000   1.996  -0.000   0.000   5.748  -0.000
  0.000   0.000   0.000  -0.000   1.996   0.000  -0.000   5.750
 -0.000  -0.000   5.750   0.000   0.000  16.478   0.000   0.000
  0.000   0.000   0.000   5.748  -0.000   0.000  16.474  -0.000
  0.000   0.001   0.000  -0.000   5.750   0.000  -0.000  16.478
 total augmentation occupancy for first ion, spin component:           1
  4.355  -1.241   0.003  -0.000  -0.003  -0.000  -0.000   0.000
 -1.241   0.372  -0.001  -0.002   0.000   0.000   0.000  -0.000
  0.003  -0.001   1.399   0.006   0.000  -0.100  -0.000   0.000
 -0.000  -0.002   0.006   1.509  -0.006  -0.000  -0.102   0.000
 -0.003   0.000   0.000  -0.006   1.391  -0.000   0.000  -0.100
 -0.000   0.000  -0.100  -0.000  -0.000   0.007   0.000  -0.000
 -0.000   0.000  -0.000  -0.102   0.000   0.000   0.007   0.000
  0.000  -0.000   0.000   0.000  -0.100  -0.000   0.000   0.007
 total augmentation occupancy for first ion, spin component:           2
 -0.186   0.057   0.018  -0.029  -0.018  -0.001   0.001   0.001
  0.057  -0.018   0.003  -0.003  -0.002  -0.000   0.000   0.000
  0.018   0.003  -0.067  -0.021  -0.009   0.004   0.000  -0.000
 -0.029  -0.003  -0.021  -0.124   0.022   0.000   0.006  -0.000
 -0.018  -0.002  -0.009   0.022  -0.065  -0.000  -0.000   0.004
 -0.001  -0.000   0.004   0.000  -0.000  -0.000   0.000   0.000
  0.001   0.000   0.000   0.006  -0.000   0.000  -0.000  -0.000
  0.001   0.000  -0.000  -0.000   0.004   0.000  -0.000  -0.000


------------------------ aborting loop because EDIFF is reached ----------------------------------------


 


 total charge     
 
# of ion       s       p       d       tot
------------------------------------------
    1        0.405   0.425   0.000   0.829
    2        0.405   0.425   0.000   0.829
    3        0.404   0.429   0.000   0.834
    4        0.405   0.430   0.000   0.834
    5        0.405   0.428   0.000   0.833
    6        0.405   0.428   0.000   0.833
    7        0.405   0.426   0.000   0.830
    8        0.405   0.425   0.000   0.830
    9        0.405   0.426   0.000   0.831
   10        0.405   0.426   0.000   0.832
   11        0.406   0.426   0.000   0.832
   12        0.406   0.426   0.000   0.832
   13        0.405   0.430   0.000   0.835
   14        0.404   0.430   0.000   0.834
   15        0.405   0.429   0.000   0.834
   16        0.405   0.429   0.000   0.834
   17        0.405   0.429   0.000   0.834
   18        0.405   0.429   0.000   0.834
   19        0.338   0.351   5.126   5.814
   20        0.334   0.352   5.137   5.823
   21        0.332   0.352   5.141   5.824
   22        0.329   0.355   5.145   5.828
   23        0.337   0.353   5.126   5.817
   24        0.329   0.348   5.156   5.833
   25        0.330   0.355   5.142   5.826
   26        0.335   0.355   5.124   5.814
   27        0.333   0.351   5.139   5.823
   28        0.337   0.357   5.120   5.814
   29        0.330   0.353   5.145   5.827
   30        0.333   0.355   5.129   5.817
   31        0.332   0.357   5.122   5.811
   32        0.334   0.352   5.140   5.826
   33        0.329   0.355   5.145   5.829
   34        0.335   0.354   5.121   5.810
   35        0.334   0.349   5.140   5.823
   36        0.333   0.360   5.122   5.816
--------------------------------------------------
tot         13.282  14.059  92.421 119.761
 


 magnetization (x)
 
# of ion       s       p       d       tot
------------------------------------------
    1       -0.015  -0.027   0.000  -0.042
    2       -0.015  -0.028   0.000  -0.042
    3       -0.005  -0.010   0.000  -0.015
    4       -0.006  -0.010   0.000  -0.015
    5       -0.009  -0.019   0.000  -0.028
    6       -0.009  -0.019   0.000  -0.028
    7       -0.009  -0.016   0.000  -0.026
    8       -0.009  -0.017   0.000  -0.026
    9       -0.000   0.002   0.000   0.002
   10       -0.000   0.002   0.000   0.002
   11       -0.002  -0.000   0.000  -0.002
   12       -0.002  -0.000   0.000  -0.002
   13       -0.006  -0.009   0.000  -0.014
   14       -0.006  -0.008   0.000  -0.014
   15        0.003   0.007   0.000   0.011
   16        0.003   0.008   0.000   0.011
   17       -0.000   0.000   0.000  -0.000
   18       -0.000  -0.000   0.000  -0.001
   19        0.027   0.023   2.504   2.554
   20        0.020   0.011   2.349   2.380
   21       -0.025  -0.034  -2.209  -2.269
   22        0.019   0.033   1.999   2.052
   23        0.022   0.030   2.382   2.433
   24        0.008  -0.002   2.162   2.168
   25       -0.013  -0.023  -2.046  -2.082
   26        0.026   0.027   2.445   2.498
   27       -0.015   0.001  -2.368  -2.382
   28       -0.028  -0.032  -2.326  -2.386
   29       -0.016  -0.016  -2.140  -2.173
   30        0.014   0.016   2.343   2.374
   31        0.009   0.017   2.336   2.362
   32       -0.026  -0.018  -2.265  -2.309
   33        0.018   0.018   2.059   2.095
   34       -0.016  -0.015  -2.496  -2.526
   35        0.018   0.004   2.352   2.374
   36        0.028   0.033   2.259   2.320
--------------------------------------------------
tot         -0.018  -0.070   9.340   9.252
 
    FORLOC:  cpu time    0.0284: real time    0.0284
    FORNL :  cpu time   14.7159: real time   14.7863
    STRESS:  cpu time   19.7368: real time   19.8363
    FORCOR:  cpu time    0.2744: real time    0.2744
    OFIELD:  cpu time    0.0018: real time    0.0018

  FORCE on cell =-STRESS in cart. coord.  units (eV):
  Direction    XX          YY          ZZ          XY          YZ          ZX
  --------------------------------------------------------------------------------------
  Alpha Z   532.25743   532.25743   532.25743
  Ewald   -2702.40749 -2702.40749 -3196.26924    -0.00000    -0.00000    -0.00000
  Hartree   721.64963   722.00138   223.86415     0.09694    -0.00000    -0.00000
  E(xc)    -760.03444  -760.15925  -759.70509    -0.01088     0.00000    -0.00000
  Local     247.66591   247.88144  1265.86793    -0.29395     0.00000    -0.00000
  n-local  -111.78787  -112.01704  -121.56907     0.32524    -0.13819    -0.17447
  augment   521.34197   521.38901   513.56990    -0.00044     0.00001     0.00001
  Kinetic  1557.24589  1556.68848  1541.45195     0.28229     1.00919     0.29078
  Fock        0.00000     0.00000     0.00000     0.00000     0.00000     0.00000
  -------------------------------------------------------------------------------------
  Total       5.93103     5.63395    -0.53204     0.39919     0.00000     0.00000
  in kB      20.07835    19.07265    -1.80110     1.35137     0.00000     0.00000
  external pressure =       12.45 kB  Pullay stress =        0.00 kB


 VOLUME and BASIS-vectors are now :
 -----------------------------------------------------------------------------
  energy-cutoff  :      404.80
  volume of cell :      473.27
      direct lattice vectors                 reciprocal lattice vectors
     8.250148166  0.000000000  0.000000000     0.121209944  0.000000000  0.000000000
     0.000000000  8.250148166  0.000000000     0.000000000  0.121209944  0.000000000
     0.000000000  0.000000000  6.953274261     0.000000000  0.000000000  0.143817137

  length of vectors
     8.250148166  8.250148166  6.953274261     0.121209944  0.121209944  0.143817137


 FORCES acting on ions:
    Electron-Ion                     Ewald-Force                    Non-Local-Force
 -----------------------------------------------------------------------------------------------
   -.264E-01 -.234E-01 0.116E-01   -.239E-08 -.239E-08 0.411E-08   0.732E-01 -.523E-01 0.550E-01
   -.264E-01 -.234E-01 -.116E-01   -.239E-08 -.239E-08 0.411E-08   0.732E-01 -.523E-01 -.550E-01
   -.133E+00 -.125E+00 -.649E-01   -.239E-08 -.802E-09 0.411E-08   0.346E-01 0.246E-01 0.601E-01
   -.133E+00 -.125E+00 0.649E-01   -.239E-08 -.802E-09 0.411E-08   0.346E-01 0.246E-01 -.601E-01
   -.627E-02 0.208E+00 -.449E-01   -.239E-08 0.631E-08 0.411E-08   0.740E-04 -.906E-02 0.317E-01
   -.627E-02 0.208E+00 0.449E-01   -.239E-08 0.631E-08 0.411E-08   0.740E-04 -.906E-02 -.317E-01
   0.152E+00 0.166E-01 -.185E-01   -.802E-09 -.239E-08 0.411E-08   -.117E+00 -.379E-03 -.760E-01
   0.152E+00 0.166E-01 0.185E-01   -.802E-09 -.239E-08 0.411E-08   -.117E+00 -.379E-03 0.760E-01
   0.380E-01 0.264E-01 -.417E-01   -.802E-09 -.802E-09 0.411E-08   -.741E-02 0.341E-01 0.394E-01
   0.380E-01 0.264E-01 0.417E-01   -.802E-09 -.802E-09 0.411E-08   -.741E-02 0.341E-01 -.394E-01
   -.203E-01 -.356E-01 -.307E-01   -.802E-09 0.631E-08 0.411E-08   0.146E-01 -.198E-01 -.138E-01
   -.203E-01 -.356E-01 0.307E-01   -.802E-09 0.631E-08 0.411E-08   0.146E-01 -.198E-01 0.138E-01
   -.135E+00 -.188E+00 -.234E-02   0.631E-08 -.239E-08 0.411E-08   0.486E-01 0.362E-01 0.117E-01
   -.135E+00 -.188E+00 0.234E-02   0.631E-08 -.239E-08 0.411E-08   0.486E-01 0.362E-01 -.117E-01
   0.155E+00 0.183E+00 0.479E-01   0.631E-08 -.802E-09 0.411E-08   -.510E-01 -.605E-02 0.136E-02
   0.155E+00 0.183E+00 -.479E-01   0.631E-08 -.802E-09 0.411E-08   -.510E-01 -.605E-02 -.136E-02
   0.392E-01 -.878E-02 0.345E-01   0.631E-08 0.631E-08 0.411E-08   -.412E-01 -.308E-01 0.282E-01
   0.392E-01 -.878E-02 -.345E-01   0.631E-08 0.631E-08 0.411E-08   -.412E-01 -.308E-01 -.282E-01
   -.624E+00 -.594E+00 0.114E-08   -.169E-07 -.169E-07 -.411E-08   0.308E+00 0.304E+00 0.000E+00
   0.389E+00 -.765E-02 -.349E-08   -.169E-07 -.169E-07 -.411E-08   -.220E+00 -.425E-02 0.000E+00
   0.622E+00 -.148E+00 -.823E-09   -.169E-07 0.802E-09 -.411E-08   -.333E+00 0.196E+00 0.000E+00
   -.318E-01 0.491E-01 -.378E-08   -.169E-07 0.802E-09 -.411E-08   0.111E+00 -.468E-01 0.000E+00
   -.632E+00 0.640E+00 -.149E-08   -.169E-07 0.130E-07 -.411E-08   0.407E+00 -.405E+00 0.000E+00
   -.284E-01 -.716E-01 -.210E-08   -.169E-07 0.130E-07 -.411E-08   0.228E-01 0.620E-01 0.000E+00
   -.582E-01 0.245E-01 0.474E-09   0.802E-09 -.169E-07 -.411E-08   -.347E-01 -.244E-01 0.000E+00
   -.410E+00 -.486E+00 -.246E-08   0.802E-09 -.169E-07 -.411E-08   0.966E-01 0.295E+00 0.000E+00
   -.342E+00 -.421E-02 -.133E-08   0.802E-09 0.802E-09 -.411E-08   0.178E+00 0.222E-01 0.000E+00
   0.750E+00 0.685E-02 -.244E-08   0.802E-09 0.802E-09 -.411E-08   -.361E+00 -.214E-01 0.000E+00
   0.321E+00 -.382E-01 -.213E-08   0.802E-09 0.130E-07 -.411E-08   -.399E+00 0.876E-02 0.000E+00
   0.486E-01 0.359E+00 -.106E-08   0.802E-09 0.130E-07 -.411E-08   -.152E+00 -.271E+00 0.000E+00
   0.395E+00 0.211E+00 0.373E-09   0.130E-07 -.169E-07 -.411E-08   -.171E+00 -.185E+00 0.000E+00
   0.884E-01 0.517E+00 -.368E-08   0.130E-07 -.169E-07 -.411E-08   -.264E-01 -.333E+00 0.000E+00
   -.327E+00 -.950E-01 -.140E-08   0.130E-07 0.802E-09 -.411E-08   0.391E+00 0.694E-01 0.000E+00
   -.652E+00 -.462E+00 -.398E-08   0.130E-07 0.802E-09 -.411E-08   0.401E+00 0.306E+00 0.000E+00
   0.314E+00 -.835E-01 -.208E-08   0.130E-07 0.130E-07 -.411E-08   -.329E-01 0.103E+00 0.000E+00
   0.330E-01 0.290E-01 -.218E-08   0.130E-07 0.130E-07 -.411E-08   -.742E-01 0.206E-01 0.000E+00
 -----------------------------------------------------------------------------------------------
   -.206E-01 -.488E-01 -.686E-07   -.197E-14 0.275E-13 0.265E-14   0.207E-01 0.488E-01 0.000E+00
 
 
 POSITION                                       TOTAL-FORCE (eV/Angst)
 -----------------------------------------------------------------------------------
      0.00000      0.00000      0.00000         0.040038     -0.070753      0.061728
      0.00000      0.00000      3.47664         0.040038     -0.070753     -0.061728
      0.00000      2.75005      0.00000        -0.101914     -0.102691     -0.009874
      0.00000      2.75005      3.47664        -0.101914     -0.102691      0.009874
      0.00000      5.50010      0.00000        -0.006075      0.199075     -0.015842
      0.00000      5.50010      3.47664        -0.006075      0.199075      0.015842
      2.75005      0.00000      0.00000         0.045922      0.016668     -0.086751
      2.75005      0.00000      3.47664         0.045922      0.016668      0.086751
      2.75005      2.75005      0.00000         0.031623      0.058255     -0.005878
      2.75005      2.75005      3.47664         0.031623      0.058255      0.005878
      2.75005      5.50010      0.00000        -0.007215     -0.054509     -0.043530
      2.75005      5.50010      3.47664        -0.007215     -0.054509      0.043530
      5.50010      0.00000      0.00000        -0.091920     -0.154969      0.008347
      5.50010      0.00000      3.47664        -0.091920     -0.154969     -0.008347
      5.50010      2.75005      0.00000         0.109268      0.178219      0.049172
      5.50010      2.75005      3.47664         0.109268      0.178219     -0.049172
      5.50010      5.50010      0.00000         0.001296     -0.037563      0.059736
      5.50010      5.50010      3.47664         0.001296     -0.037563     -0.059736
      1.37502      1.37502      1.73832        -0.331425     -0.305158      0.000000
      1.37502      1.37502      5.21496         0.178660     -0.015482      0.000000
      1.37502      4.12507      1.73832         0.306162      0.045445      0.000000
      1.37502      4.12507      5.21496         0.080710      0.004758      0.000000
      1.37502      6.87512      1.73832        -0.239751      0.248534      0.000000
      1.37502      6.87512      5.21496        -0.007266     -0.008101      0.000000
      4.12507      1.37502      1.73832        -0.099116      0.003751      0.000000
      4.12507      1.37502      5.21496        -0.320877     -0.194601      0.000000
      4.12507      4.12507      1.73832        -0.177134      0.017394      0.000000
      4.12507      4.12507      5.21496         0.405045     -0.015781      0.000000
      4.12507      6.87512      1.73832        -0.075552     -0.033196      0.000000
      4.12507      6.87512      5.21496        -0.103853      0.086614      0.000000
      6.87512      1.37502      1.73832         0.230816      0.025061      0.000000
      6.87512      1.37502      5.21496         0.062984      0.190107      0.000000
      6.87512      4.12507      1.73832         0.057992     -0.025925      0.000000
      6.87512      4.12507      5.21496        -0.265653     -0.156894      0.000000
      6.87512      6.87512      1.73832         0.292751      0.021980      0.000000
      6.87512      6.87512      5.21496        -0.036534      0.048030      0.000000
 -----------------------------------------------------------------------------------
    total drift:                                0.000015      0.000007     -0.000000


--------------------------------------------------------------------------------------------------------



  FREE ENERGIE OF THE ION-ELECTRON SYSTEM (eV)
  ---------------------------------------------------
  free  energy   TOTEN  =      -236.07124360 eV

  energy  without entropy=     -236.08853541  energy(sigma->0) =     -236.07700753
 


--------------------------------------------------------------------------------------------------------


    POTLOK:  cpu time    1.6800: real time    1.7455


--------------------------------------------------------------------------------------------------------


     LOOP+:  cpu time 1265.9227: real time 1307.3239
    4ORBIT:  cpu time    0.0000: real time    0.0000
 


 total charge     
 
# of ion       s       p       d       tot
------------------------------------------
    1        0.405   0.425   0.000   0.829
    2        0.405   0.425   0.000   0.829
    3        0.404   0.429   0.000   0.834
    4        0.405   0.430   0.000   0.834
    5        0.405   0.428   0.000   0.833
    6        0.405   0.428   0.000   0.833
    7        0.405   0.426   0.000   0.830
    8        0.405   0.425   0.000   0.830
    9        0.405   0.426   0.000   0.831
   10        0.405   0.426   0.000   0.832
   11        0.406   0.426   0.000   0.832
   12        0.406   0.426   0.000   0.832
   13        0.405   0.430   0.000   0.835
   14        0.404   0.430   0.000   0.834
   15        0.405   0.429   0.000   0.834
   16        0.405   0.429   0.000   0.834
   17        0.405   0.429   0.000   0.834
   18        0.405   0.429   0.000   0.834
   19        0.338   0.351   5.126   5.814
   20        0.334   0.352   5.137   5.823
   21        0.332   0.352   5.141   5.824
   22        0.329   0.355   5.145   5.828
   23        0.337   0.353   5.126   5.817
   24        0.329   0.348   5.156   5.833
   25        0.330   0.355   5.142   5.826
   26        0.335   0.355   5.124   5.814
   27        0.333   0.351   5.139   5.823
   28        0.337   0.357   5.120   5.814
   29        0.330   0.353   5.145   5.827
   30        0.333   0.355   5.129   5.817
   31        0.332   0.357   5.122   5.811
   32        0.334   0.352   5.140   5.826
   33        0.329   0.355   5.145   5.829
   34        0.335   0.354   5.121   5.810
   35        0.334   0.349   5.140   5.823
   36        0.333   0.360   5.122   5.816
--------------------------------------------------
tot         13.282  14.059  92.421 119.761
 


 magnetization (x)
 
# of ion       s       p       d       tot
------------------------------------------
    1       -0.015  -0.027   0.000  -0.042
    2       -0.015  -0.028   0.000  -0.042
    3       -0.005  -0.010   0.000  -0.015
    4       -0.006  -0.010   0.000  -0.015
    5       -0.009  -0.019   0.000  -0.028
    6       -0.009  -0.019   0.000  -0.028
    7       -0.009  -0.016   0.000  -0.026
    8       -0.009  -0.017   0.000  -0.026
    9       -0.000   0.002   0.000   0.002
   10       -0.000   0.002   0.000   0.002
   11       -0.002  -0.000   0.000  -0.002
   12       -0.002  -0.000   0.000  -0.002
   13       -0.006  -0.009   0.000  -0.014
   14       -0.006  -0.008   0.000  -0.014
   15        0.003   0.007   0.000   0.011
   16        0.003   0.008   0.000   0.011
   17       -0.000   0.000   0.000  -0.000
   18       -0.000  -0.000   0.000  -0.001
   19        0.027   0.023   2.504   2.554
   20        0.020   0.011   2.349   2.380
   21       -0.025  -0.034  -2.209  -2.269
   22        0.019   0.033   1.999   2.052
   23        0.022   0.030   2.382   2.433
   24        0.008  -0.002   2.162   2.168
   25       -0.013  -0.023  -2.046  -2.082
   26        0.026   0.027   2.445   2.498
   27       -0.015   0.001  -2.368  -2.382
   28       -0.028  -0.032  -2.326  -2.386
   29       -0.016  -0.016  -2.140  -2.173
   30        0.014   0.016   2.343   2.374
   31        0.009   0.017   2.336   2.362
   32       -0.026  -0.018  -2.265  -2.309
   33        0.018   0.018   2.059   2.095
   34       -0.016  -0.015  -2.496  -2.526
   35        0.018   0.004   2.352   2.374
   36        0.028   0.033   2.259   2.320
--------------------------------------------------
tot         -0.018  -0.070   9.340   9.252
 

 total amount of memory used by VASP MPI-rank0   775081. kBytes
=======================================================================

   base      :      30000. kBytes
   nonl-proj :      34307. kBytes
   fftplans  :      21726. kBytes
   grid      :      14732. kBytes
   one-center:        279. kBytes
   wavefun   :     674037. kBytes
 
  
  
 General timing and accounting informations for this job:
 ========================================================
  
                  Total CPU time used (sec):     1292.705
                            User time (sec):     1270.012
                          System time (sec):       22.693
                         Elapsed time (sec):     1337.467
  
                   Maximum memory used (kb):      916884.
                   Average memory used (kb):           0.
  
                          Minor page faults:       565815
                          Major page faults:           18
                 Voluntary context switches:         4095
