  36  36   1   0
  0.1314651E+02  0.8250148E-09  0.8250148E-09  0.6953274E-09  0.2000000E-15
  1.000000000000000E-004
  CAR 
 AlMn_pv                                 
     14.91734757     -4.57993276  301      7.72836294      1.00000000
     -4.580  0.0000E+00  0.0000E+00  0.0000E+00  0.0000E+00
     -4.515  0.0000E+00  0.0000E+00  0.0000E+00  0.0000E+00
     -4.450  0.0000E+00  0.0000E+00  0.0000E+00  0.0000E+00
     -4.385  0.0000E+00  0.0000E+00  0.0000E+00  0.0000E+00
     -4.320  0.0000E+00  0.0000E+00  0.0000E+00  0.0000E+00
     -4.255  0.0000E+00  0.0000E+00  0.0000E+00  0.0000E+00
     -4.190 -0.1667E-28  0.0000E+00 -0.1084E-29  0.0000E+00
     -4.125 -0.2691E-26 -0.4290E-30 -0.1760E-27 -0.2788E-31
     -4.060 -0.3515E-24 -0.7996E-28 -0.2302E-25 -0.5224E-29
     -3.995 -0.3712E-22 -0.1216E-25 -0.2435E-23 -0.7958E-27
     -3.930 -0.3167E-20 -0.1489E-23 -0.2083E-21 -0.9759E-25
     -3.865 -0.2184E-18 -0.1474E-21 -0.1440E-19 -0.9676E-23
     -3.800 -0.1217E-16 -0.1179E-19 -0.8055E-18 -0.7757E-21
     -3.735 -0.5311E-15 -0.7619E-18 -0.3532E-16 -0.5029E-19
     -3.670 -0.1928E-13 -0.3980E-16 -0.1289E-14 -0.2637E-17
     -3.605 -0.5654E-12 -0.1629E-14 -0.3804E-13 -0.1085E-15
     -3.540 -0.1339E-10 -0.5538E-13 -0.9080E-12 -0.3708E-14
     -3.475 -0.2561E-09 -0.1521E-11 -0.1755E-10 -0.1026E-12
     -3.410 -0.3962E-08 -0.3377E-10 -0.2751E-09 -0.2297E-11
     -3.345 -0.4959E-07 -0.6059E-09 -0.3498E-08 -0.4168E-10
     -3.280 -0.5026E-06 -0.8794E-08 -0.3616E-07 -0.6132E-09
     -3.215 -0.4126E-05 -0.1033E-06 -0.3043E-06 -0.7326E-08
     -3.150 -0.2746E-04 -0.9826E-06 -0.2089E-05 -0.7118E-07
     -3.085 -0.1482E-03 -0.7576E-05 -0.1172E-04 -0.5635E-06
     -3.020 -0.6467E-03 -0.4736E-04 -0.5375E-04 -0.3641E-05
     -2.955 -0.2271E-02 -0.2399E-03 -0.2013E-03 -0.1923E-04
     -2.890 -0.6321E-02 -0.9818E-03 -0.6121E-03 -0.8304E-04
     -2.825 -0.1347E-01 -0.3221E-02 -0.1487E-02 -0.2924E-03
     -2.760 -0.1976E-01 -0.8314E-02 -0.2772E-02 -0.8327E-03
     -2.695 -0.1080E-01 -0.1608E-01 -0.3474E-02 -0.1878E-02
     -2.630  0.3878E-01 -0.1987E-01 -0.9532E-03 -0.3169E-02
     -2.565  0.1502E+00 -0.1162E-02  0.8808E-02 -0.3245E-02
     -2.500  0.3135E+00  0.6680E-01  0.2918E-01  0.1097E-02
     -2.435  0.4794E+00  0.1984E+00  0.6034E-01  0.1399E-01
     -2.370  0.6005E+00  0.3699E+00  0.9937E-01  0.3803E-01
     -2.305  0.6932E+00  0.5263E+00  0.1444E+00  0.7223E-01
     -2.240  0.8314E+00  0.6355E+00  0.1985E+00  0.1135E+00
     -2.175  0.1042E+01  0.7385E+00  0.2662E+00  0.1615E+00
     -2.110  0.1224E+01  0.9059E+00  0.3458E+00  0.2204E+00
     -2.045  0.1239E+01  0.1122E+01  0.4263E+00  0.2933E+00
     -1.980  0.1100E+01  0.1255E+01  0.4978E+00  0.3749E+00
     -1.915  0.1006E+01  0.1204E+01  0.5632E+00  0.4532E+00
     -1.850  0.1137E+01  0.1060E+01  0.6370E+00  0.5221E+00
     -1.785  0.1445E+01  0.1042E+01  0.7310E+00  0.5898E+00
     -1.720  0.1711E+01  0.1258E+01  0.8422E+00  0.6716E+00
     -1.655  0.1771E+01  0.1573E+01  0.9573E+00  0.7738E+00
     -1.590  0.1674E+01  0.1762E+01  0.1066E+01  0.8883E+00
     -1.525  0.1619E+01  0.1743E+01  0.1171E+01  0.1002E+01
     -1.460  0.1717E+01  0.1644E+01  0.1283E+01  0.1108E+01
     -1.395  0.1852E+01  0.1651E+01  0.1403E+01  0.1216E+01
     -1.330  0.1811E+01  0.1789E+01  0.1521E+01  0.1332E+01
     -1.265  0.1607E+01  0.1874E+01  0.1625E+01  0.1454E+01
     -1.200  0.1529E+01  0.1762E+01  0.1725E+01  0.1568E+01
     -1.135  0.1790E+01  0.1584E+01  0.1841E+01  0.1671E+01
     -1.070  0.2248E+01  0.1628E+01  0.1987E+01  0.1777E+01
     -1.005  0.2581E+01  0.1979E+01  0.2155E+01  0.1906E+01
     -0.940  0.2662E+01  0.2404E+01  0.2328E+01  0.2062E+01
     -0.875  0.2612E+01  0.2636E+01  0.2498E+01  0.2233E+01
     -0.810  0.2537E+01  0.2639E+01  0.2662E+01  0.2405E+01
     -0.745  0.2375E+01  0.2549E+01  0.2817E+01  0.2570E+01
     -0.680  0.2072E+01  0.2443E+01  0.2952E+01  0.2729E+01
     -0.615  0.1797E+01  0.2285E+01  0.3068E+01  0.2878E+01
     -0.550  0.1839E+01  0.2078E+01  0.3188E+01  0.3013E+01
     -0.486  0.2281E+01  0.1968E+01  0.3336E+01  0.3141E+01
     -0.421  0.2879E+01  0.2119E+01  0.3523E+01  0.3278E+01
     -0.356  0.3307E+01  0.2522E+01  0.3738E+01  0.3442E+01
     -0.291  0.3441E+01  0.3001E+01  0.3962E+01  0.3637E+01
     -0.226  0.3389E+01  0.3356E+01  0.4182E+01  0.3855E+01
     -0.161  0.3294E+01  0.3477E+01  0.4396E+01  0.4081E+01
     -0.096  0.3194E+01  0.3395E+01  0.4604E+01  0.4302E+01
     -0.031  0.3082E+01  0.3255E+01  0.4804E+01  0.4514E+01
      0.034  0.3011E+01  0.3190E+01  0.5000E+01  0.4721E+01
      0.099  0.3082E+01  0.3187E+01  0.5200E+01  0.4928E+01
      0.164  0.3310E+01  0.3145E+01  0.5415E+01  0.5132E+01
      0.229  0.3551E+01  0.3069E+01  0.5646E+01  0.5332E+01
      0.294  0.3605E+01  0.3095E+01  0.5880E+01  0.5533E+01
      0.359  0.3398E+01  0.3267E+01  0.6101E+01  0.5745E+01
      0.424  0.3084E+01  0.3389E+01  0.6301E+01  0.5966E+01
      0.489  0.2942E+01  0.3245E+01  0.6493E+01  0.6177E+01
      0.554  0.3129E+01  0.2928E+01  0.6696E+01  0.6367E+01
      0.619  0.3531E+01  0.2790E+01  0.6925E+01  0.6548E+01
      0.684  0.3911E+01  0.3020E+01  0.7180E+01  0.6744E+01
      0.749  0.4132E+01  0.3439E+01  0.7448E+01  0.6968E+01
      0.814  0.4171E+01  0.3753E+01  0.7719E+01  0.7212E+01
      0.879  0.4020E+01  0.3872E+01  0.7980E+01  0.7463E+01
      0.944  0.3735E+01  0.3855E+01  0.8223E+01  0.7714E+01
      1.009  0.3508E+01  0.3728E+01  0.8451E+01  0.7956E+01
      1.074  0.3495E+01  0.3498E+01  0.8678E+01  0.8184E+01
      1.139  0.3617E+01  0.3290E+01  0.8913E+01  0.8397E+01
      1.204  0.3700E+01  0.3254E+01  0.9154E+01  0.8609E+01
      1.269  0.3724E+01  0.3344E+01  0.9396E+01  0.8826E+01
      1.334  0.3744E+01  0.3368E+01  0.9639E+01  0.9045E+01
      1.399  0.3722E+01  0.3276E+01  0.9881E+01  0.9258E+01
      1.464  0.3653E+01  0.3219E+01  0.1012E+02  0.9467E+01
      1.529  0.3766E+01  0.3273E+01  0.1036E+02  0.9680E+01
      1.594  0.4290E+01  0.3322E+01  0.1064E+02  0.9896E+01
      1.659  0.5067E+01  0.3296E+01  0.1097E+02  0.1011E+02
      1.724  0.5612E+01  0.3355E+01  0.1134E+02  0.1033E+02
      1.789  0.5614E+01  0.3712E+01  0.1170E+02  0.1057E+02
      1.854  0.5241E+01  0.4335E+01  0.1204E+02  0.1085E+02
      1.919  0.4949E+01  0.4892E+01  0.1236E+02  0.1117E+02
      1.984  0.5089E+01  0.5047E+01  0.1269E+02  0.1150E+02
      2.049  0.5659E+01  0.4785E+01  0.1306E+02  0.1181E+02
      2.114  0.6302E+01  0.4392E+01  0.1347E+02  0.1209E+02
      2.179  0.6538E+01  0.4142E+01  0.1390E+02  0.1236E+02
      2.244  0.6140E+01  0.4099E+01  0.1430E+02  0.1263E+02
      2.309  0.5339E+01  0.4219E+01  0.1464E+02  0.1290E+02
      2.374  0.4632E+01  0.4466E+01  0.1494E+02  0.1319E+02
      2.439  0.4400E+01  0.4755E+01  0.1523E+02  0.1350E+02
      2.504  0.4685E+01  0.4934E+01  0.1553E+02  0.1382E+02
      2.569  0.5243E+01  0.4894E+01  0.1587E+02  0.1414E+02
      2.634  0.5786E+01  0.4694E+01  0.1625E+02  0.1445E+02
      2.699  0.6180E+01  0.4527E+01  0.1665E+02  0.1474E+02
      2.764  0.6452E+01  0.4550E+01  0.1707E+02  0.1504E+02
      2.829  0.6702E+01  0.4747E+01  0.1751E+02  0.1534E+02
      2.894  0.6981E+01  0.4943E+01  0.1796E+02  0.1567E+02
      2.959  0.7168E+01  0.4992E+01  0.1843E+02  0.1599E+02
      3.024  0.7031E+01  0.4929E+01  0.1888E+02  0.1631E+02
      3.089  0.6527E+01  0.4880E+01  0.1931E+02  0.1663E+02
      3.154  0.5912E+01  0.4871E+01  0.1969E+02  0.1694E+02
      3.219  0.5432E+01  0.4862E+01  0.2005E+02  0.1726E+02
      3.284  0.5099E+01  0.4900E+01  0.2038E+02  0.1758E+02
      3.349  0.4888E+01  0.5033E+01  0.2069E+02  0.1791E+02
      3.414  0.4937E+01  0.5143E+01  0.2101E+02  0.1824E+02
      3.479  0.5400E+01  0.5062E+01  0.2137E+02  0.1857E+02
      3.544  0.6181E+01  0.4796E+01  0.2177E+02  0.1888E+02
      3.609  0.6967E+01  0.4496E+01  0.2222E+02  0.1917E+02
      3.674  0.7539E+01  0.4275E+01  0.2271E+02  0.1945E+02
      3.739  0.8028E+01  0.4168E+01  0.2323E+02  0.1972E+02
      3.804  0.8853E+01  0.4241E+01  0.2381E+02  0.2000E+02
      3.869  0.1037E+02  0.4621E+01  0.2448E+02  0.2030E+02
      3.934  0.1257E+02  0.5327E+01  0.2530E+02  0.2064E+02
      3.999  0.1500E+02  0.6125E+01  0.2627E+02  0.2104E+02
      4.064  0.1702E+02  0.6665E+01  0.2738E+02  0.2148E+02
      4.129  0.1814E+02  0.6811E+01  0.2856E+02  0.2192E+02
      4.194  0.1819E+02  0.6739E+01  0.2974E+02  0.2236E+02
      4.259  0.1747E+02  0.6667E+01  0.3088E+02  0.2279E+02
      4.324  0.1666E+02  0.6598E+01  0.3196E+02  0.2322E+02
      4.389  0.1640E+02  0.6480E+01  0.3303E+02  0.2364E+02
      4.454  0.1662E+02  0.6508E+01  0.3411E+02  0.2406E+02
      4.519  0.1660E+02  0.6973E+01  0.3518E+02  0.2452E+02
      4.584  0.1599E+02  0.7745E+01  0.3622E+02  0.2502E+02
      4.649  0.1549E+02  0.8244E+01  0.3723E+02  0.2555E+02
      4.714  0.1629E+02  0.8098E+01  0.3829E+02  0.2608E+02
      4.779  0.1866E+02  0.7572E+01  0.3950E+02  0.2657E+02
      4.844  0.2150E+02  0.7190E+01  0.4090E+02  0.2704E+02
      4.909  0.2325E+02  0.7221E+01  0.4241E+02  0.2751E+02
      4.974  0.2336E+02  0.7682E+01  0.4393E+02  0.2801E+02
      5.039  0.2257E+02  0.8618E+01  0.4540E+02  0.2857E+02
      5.104  0.2193E+02  0.1012E+02  0.4682E+02  0.2923E+02
      5.169  0.2184E+02  0.1207E+02  0.4824E+02  0.3001E+02
      5.234  0.2215E+02  0.1397E+02  0.4968E+02  0.3092E+02
      5.299  0.2271E+02  0.1517E+02  0.5116E+02  0.3190E+02
      5.364  0.2355E+02  0.1533E+02  0.5269E+02  0.3290E+02
      5.429  0.2445E+02  0.1464E+02  0.5428E+02  0.3385E+02
      5.494  0.2510E+02  0.1346E+02  0.5591E+02  0.3473E+02
      5.559  0.2560E+02  0.1221E+02  0.5757E+02  0.3552E+02
      5.624  0.2642E+02  0.1134E+02  0.5929E+02  0.3626E+02
      5.689  0.2756E+02  0.1134E+02  0.6108E+02  0.3699E+02
      5.754  0.2796E+02  0.1238E+02  0.6290E+02  0.3780E+02
      5.819  0.2627E+02  0.1403E+02  0.6460E+02  0.3871E+02
      5.884  0.2246E+02  0.1534E+02  0.6606E+02  0.3971E+02
      5.949  0.1833E+02  0.1545E+02  0.6726E+02  0.4071E+02
      6.014  0.1628E+02  0.1429E+02  0.6831E+02  0.4164E+02
      6.079  0.1771E+02  0.1269E+02  0.6946E+02  0.4247E+02
      6.144  0.2257E+02  0.1196E+02  0.7093E+02  0.4324E+02
      6.209  0.2972E+02  0.1296E+02  0.7286E+02  0.4409E+02
      6.274  0.3745E+02  0.1544E+02  0.7530E+02  0.4509E+02
      6.339  0.4402E+02  0.1811E+02  0.7816E+02  0.4627E+02
      6.404  0.4852E+02  0.1980E+02  0.8131E+02  0.4755E+02
      6.469  0.5107E+02  0.2022E+02  0.8463E+02  0.4887E+02
      6.534  0.5197E+02  0.1973E+02  0.8801E+02  0.5015E+02
      6.599  0.5102E+02  0.1851E+02  0.9132E+02  0.5135E+02
      6.663  0.4792E+02  0.1640E+02  0.9444E+02  0.5242E+02
      6.728  0.4298E+02  0.1365E+02  0.9723E+02  0.5331E+02
      6.793  0.3696E+02  0.1118E+02  0.9963E+02  0.5403E+02
      6.858  0.3071E+02  0.1005E+02  0.1016E+03  0.5469E+02
      6.923  0.2492E+02  0.1073E+02  0.1032E+03  0.5538E+02
      6.988  0.2006E+02  0.1294E+02  0.1046E+03  0.5622E+02
      7.053  0.1623E+02  0.1599E+02  0.1056E+03  0.5726E+02
      7.118  0.1327E+02  0.1889E+02  0.1065E+03  0.5849E+02
      7.183  0.1094E+02  0.2059E+02  0.1072E+03  0.5983E+02
      7.248  0.9101E+01  0.2061E+02  0.1078E+03  0.6117E+02
      7.313  0.7756E+01  0.1954E+02  0.1083E+03  0.6244E+02
      7.378  0.6831E+01  0.1853E+02  0.1087E+03  0.6364E+02
      7.443  0.6224E+01  0.1804E+02  0.1091E+03  0.6482E+02
      7.508  0.5967E+01  0.1741E+02  0.1095E+03  0.6595E+02
      7.573  0.6147E+01  0.1593E+02  0.1099E+03  0.6698E+02
      7.638  0.6614E+01  0.1401E+02  0.1103E+03  0.6789E+02
      7.703  0.6951E+01  0.1272E+02  0.1108E+03  0.6872E+02
      7.768  0.6801E+01  0.1275E+02  0.1112E+03  0.6955E+02
      7.833  0.6162E+01  0.1380E+02  0.1116E+03  0.7045E+02
      7.898  0.5386E+01  0.1493E+02  0.1120E+03  0.7142E+02
      7.963  0.4865E+01  0.1522E+02  0.1123E+03  0.7241E+02
      8.028  0.4673E+01  0.1450E+02  0.1126E+03  0.7335E+02
      8.093  0.4570E+01  0.1354E+02  0.1129E+03  0.7423E+02
      8.158  0.4436E+01  0.1355E+02  0.1132E+03  0.7511E+02
      8.223  0.4534E+01  0.1505E+02  0.1135E+03  0.7609E+02
      8.288  0.5159E+01  0.1742E+02  0.1138E+03  0.7722E+02
      8.353  0.6150E+01  0.1950E+02  0.1142E+03  0.7849E+02
      8.418  0.6984E+01  0.2081E+02  0.1147E+03  0.7984E+02
      8.483  0.7417E+01  0.2188E+02  0.1152E+03  0.8126E+02
      8.548  0.7831E+01  0.2354E+02  0.1157E+03  0.8279E+02
      8.613  0.8745E+01  0.2618E+02  0.1162E+03  0.8449E+02
      8.678  0.1011E+02  0.2965E+02  0.1169E+03  0.8642E+02
      8.743  0.1130E+02  0.3347E+02  0.1176E+03  0.8859E+02
      8.808  0.1172E+02  0.3695E+02  0.1184E+03  0.9100E+02
      8.873  0.1126E+02  0.3937E+02  0.1191E+03  0.9355E+02
      8.938  0.1013E+02  0.4017E+02  0.1198E+03  0.9616E+02
      9.003  0.8665E+01  0.3888E+02  0.1203E+03  0.9869E+02
      9.068  0.7286E+01  0.3534E+02  0.1208E+03  0.1010E+03
      9.133  0.6362E+01  0.3016E+02  0.1212E+03  0.1029E+03
      9.198  0.6023E+01  0.2461E+02  0.1216E+03  0.1045E+03
      9.263  0.6036E+01  0.1981E+02  0.1220E+03  0.1058E+03
      9.328  0.5930E+01  0.1623E+02  0.1224E+03  0.1069E+03
      9.393  0.5372E+01  0.1392E+02  0.1227E+03  0.1078E+03
      9.458  0.4478E+01  0.1277E+02  0.1230E+03  0.1086E+03
      9.523  0.3704E+01  0.1232E+02  0.1233E+03  0.1094E+03
      9.588  0.3413E+01  0.1197E+02  0.1235E+03  0.1102E+03
      9.653  0.3571E+01  0.1148E+02  0.1237E+03  0.1109E+03
      9.718  0.3797E+01  0.1104E+02  0.1240E+03  0.1117E+03
      9.783  0.3677E+01  0.1085E+02  0.1242E+03  0.1124E+03
      9.848  0.3099E+01  0.1075E+02  0.1244E+03  0.1131E+03
      9.913  0.2320E+01  0.1053E+02  0.1246E+03  0.1138E+03
      9.978  0.1744E+01  0.1014E+02  0.1247E+03  0.1144E+03
     10.043  0.1701E+01  0.9659E+01  0.1248E+03  0.1150E+03
     10.108  0.2375E+01  0.9222E+01  0.1249E+03  0.1156E+03
     10.173  0.3751E+01  0.9050E+01  0.1252E+03  0.1162E+03
     10.238  0.5505E+01  0.9468E+01  0.1255E+03  0.1168E+03
     10.303  0.7110E+01  0.1072E+02  0.1260E+03  0.1175E+03
     10.368  0.8222E+01  0.1279E+02  0.1265E+03  0.1184E+03
     10.433  0.8928E+01  0.1521E+02  0.1271E+03  0.1194E+03
     10.498  0.9495E+01  0.1699E+02  0.1277E+03  0.1205E+03
     10.563  0.9963E+01  0.1689E+02  0.1284E+03  0.1216E+03
     10.628  0.1013E+02  0.1447E+02  0.1290E+03  0.1225E+03
     10.693  0.9866E+01  0.1065E+02  0.1297E+03  0.1232E+03
     10.758  0.9208E+01  0.7139E+01  0.1303E+03  0.1237E+03
     10.823  0.8260E+01  0.5097E+01  0.1308E+03  0.1240E+03
     10.888  0.7144E+01  0.4506E+01  0.1313E+03  0.1243E+03
     10.953  0.6118E+01  0.4604E+01  0.1317E+03  0.1246E+03
     11.018  0.5526E+01  0.4679E+01  0.1320E+03  0.1249E+03
     11.083  0.5523E+01  0.4446E+01  0.1324E+03  0.1252E+03
     11.148  0.5932E+01  0.3931E+01  0.1328E+03  0.1254E+03
     11.213  0.6388E+01  0.3251E+01  0.1332E+03  0.1256E+03
     11.278  0.6600E+01  0.2581E+01  0.1336E+03  0.1258E+03
     11.343  0.6453E+01  0.2186E+01  0.1341E+03  0.1260E+03
     11.408  0.5955E+01  0.2403E+01  0.1344E+03  0.1261E+03
     11.473  0.5166E+01  0.3530E+01  0.1348E+03  0.1263E+03
     11.538  0.4225E+01  0.5633E+01  0.1350E+03  0.1267E+03
     11.603  0.3351E+01  0.8380E+01  0.1353E+03  0.1272E+03
     11.668  0.2702E+01  0.1112E+02  0.1354E+03  0.1280E+03
     11.733  0.2237E+01  0.1319E+02  0.1356E+03  0.1288E+03
     11.798  0.1797E+01  0.1416E+02  0.1357E+03  0.1297E+03
     11.863  0.1330E+01  0.1396E+02  0.1358E+03  0.1307E+03
     11.928  0.9374E+00  0.1294E+02  0.1359E+03  0.1315E+03
     11.993  0.7068E+00  0.1163E+02  0.1359E+03  0.1323E+03
     12.058  0.5899E+00  0.1023E+02  0.1359E+03  0.1329E+03
     12.123  0.4743E+00  0.8659E+01  0.1360E+03  0.1335E+03
     12.188  0.3168E+00  0.6936E+01  0.1360E+03  0.1339E+03
     12.253  0.1594E+00  0.5468E+01  0.1360E+03  0.1343E+03
     12.318  0.5166E-01  0.4612E+01  0.1360E+03  0.1346E+03
     12.383  0.1102E-02  0.4241E+01  0.1360E+03  0.1349E+03
     12.448 -0.1302E-01  0.3892E+01  0.1360E+03  0.1351E+03
     12.513 -0.1187E-01  0.3285E+01  0.1360E+03  0.1353E+03
     12.578 -0.7124E-02  0.2547E+01  0.1360E+03  0.1355E+03
     12.643 -0.3275E-02  0.1960E+01  0.1360E+03  0.1356E+03
     12.708 -0.1185E-02  0.1630E+01  0.1360E+03  0.1357E+03
     12.773 -0.3392E-03  0.1441E+01  0.1360E+03  0.1358E+03
     12.838 -0.7694E-04  0.1217E+01  0.1360E+03  0.1359E+03
     12.903 -0.1386E-04  0.8857E+00  0.1360E+03  0.1360E+03
     12.968 -0.1986E-05  0.5111E+00  0.1360E+03  0.1360E+03
     13.033 -0.2269E-06  0.2051E+00  0.1360E+03  0.1360E+03
     13.098 -0.2073E-07  0.2798E-01  0.1360E+03  0.1360E+03
     13.163 -0.1517E-08 -0.3602E-01  0.1360E+03  0.1360E+03
     13.228 -0.8903E-10 -0.3827E-01  0.1360E+03  0.1360E+03
     13.293 -0.4197E-11 -0.2255E-01  0.1360E+03  0.1360E+03
     13.358 -0.1591E-12 -0.9582E-02  0.1360E+03  0.1360E+03
     13.423 -0.4829E-14 -0.3123E-02  0.1360E+03  0.1360E+03
     13.488 -0.1367E-15 -0.7986E-03  0.1360E+03  0.1360E+03
     13.553  0.0000E+00 -0.1617E-03  0.1360E+03  0.1360E+03
     13.618  0.0000E+00 -0.2607E-04  0.1360E+03  0.1360E+03
     13.683  0.0000E+00 -0.3357E-05  0.1360E+03  0.1360E+03
     13.748  0.0000E+00 -0.3459E-06  0.1360E+03  0.1360E+03
     13.813  0.0000E+00 -0.2857E-07  0.1360E+03  0.1360E+03
     13.877  0.0000E+00 -0.1894E-08  0.1360E+03  0.1360E+03
     13.942  0.0000E+00 -0.1009E-09  0.1360E+03  0.1360E+03
     14.007  0.0000E+00 -0.4326E-11  0.1360E+03  0.1360E+03
     14.072  0.0000E+00 -0.1491E-12  0.1360E+03  0.1360E+03
     14.137  0.0000E+00 -0.4009E-14  0.1360E+03  0.1360E+03
     14.202  0.0000E+00 -0.1822E-15  0.1360E+03  0.1360E+03
     14.267  0.0000E+00  0.0000E+00  0.1360E+03  0.1360E+03
     14.332  0.0000E+00  0.0000E+00  0.1360E+03  0.1360E+03
     14.397  0.0000E+00  0.0000E+00  0.1360E+03  0.1360E+03
     14.462  0.0000E+00  0.0000E+00  0.1360E+03  0.1360E+03
     14.527  0.0000E+00  0.0000E+00  0.1360E+03  0.1360E+03
     14.592  0.0000E+00  0.0000E+00  0.1360E+03  0.1360E+03
     14.657  0.0000E+00  0.0000E+00  0.1360E+03  0.1360E+03
     14.722  0.0000E+00  0.0000E+00  0.1360E+03  0.1360E+03
     14.787  0.0000E+00  0.0000E+00  0.1360E+03  0.1360E+03
     14.852  0.0000E+00  0.0000E+00  0.1360E+03  0.1360E+03
     14.917  0.0000E+00  0.0000E+00  0.1360E+03  0.1360E+03
     14.91734757     -4.57993276  301      7.72836294      1.00000000
     -4.580  0.0000E+00  0.0000E+00  0.0000E+00  0.0000E+00  0.0000E+00  0.0000E+00
     -4.515  0.0000E+00  0.0000E+00  0.0000E+00  0.0000E+00  0.0000E+00  0.0000E+00
     -4.450  0.0000E+00  0.0000E+00  0.0000E+00  0.0000E+00  0.0000E+00  0.0000E+00
     -4.385  0.0000E+00  0.0000E+00  0.0000E+00  0.0000E+00  0.0000E+00  0.0000E+00
     -4.320  0.0000E+00  0.0000E+00  0.0000E+00  0.0000E+00  0.0000E+00  0.0000E+00
     -4.255  0.0000E+00  0.0000E+00  0.0000E+00  0.0000E+00  0.0000E+00  0.0000E+00
     -4.190 -0.1879E-30  0.0000E+00 -0.3845E-49  0.0000E+00  0.0000E+00  0.0000E+00
     -4.125 -0.3033E-28 -0.5092E-32 -0.8915E-33 -0.1463E-50  0.0000E+00  0.0000E+00
     -4.060 -0.3962E-26 -0.9491E-30 -0.1560E-30 -0.2726E-48  0.0000E+00  0.0000E+00
     -3.995 -0.4183E-24 -0.1444E-27 -0.2213E-28 -0.4666E-32  0.0000E+00  0.0000E+00
     -3.930 -0.3569E-22 -0.1768E-25 -0.2535E-26 -0.7639E-30  0.0000E+00  0.0000E+00
     -3.865 -0.2461E-20 -0.1749E-23 -0.2348E-24 -0.1013E-27  0.0000E+00  0.0000E+00
     -3.800 -0.1372E-18 -0.1399E-21 -0.1756E-22 -0.1086E-25  0.0000E+00  0.0000E+00
     -3.735 -0.5985E-17 -0.9042E-20 -0.1061E-20 -0.9405E-24  0.0000E+00  0.0000E+00
     -3.670 -0.2173E-15 -0.4723E-18 -0.4948E-19 -0.6581E-22  0.0000E+00  0.0000E+00
     -3.605 -0.6372E-14 -0.1933E-16 -0.1980E-17 -0.3720E-20  0.0000E+00  0.0000E+00
     -3.540 -0.1508E-12 -0.6573E-15 -0.6269E-16 -0.1651E-18  0.0000E+00  0.0000E+00
     -3.475 -0.2886E-11 -0.1805E-13 -0.1604E-14 -0.6056E-17  0.0000E+00  0.0000E+00
     -3.410 -0.4464E-10 -0.4007E-12 -0.3309E-13 -0.1796E-15  0.0000E+00  0.0000E+00
     -3.345 -0.5586E-09 -0.7189E-11 -0.5507E-12 -0.4297E-14  0.0000E+00  0.0000E+00
     -3.280 -0.5659E-08 -0.1043E-09 -0.7388E-11 -0.8294E-13  0.0000E+00  0.0000E+00
     -3.215 -0.4645E-07 -0.1225E-08 -0.7990E-10 -0.1291E-11  0.0000E+00  0.0000E+00
     -3.150 -0.3090E-06 -0.1165E-07 -0.6961E-09 -0.1620E-10  0.0000E+00  0.0000E+00
     -3.085 -0.1667E-05 -0.8981E-07 -0.4880E-08 -0.1639E-09  0.0000E+00  0.0000E+00
     -3.020 -0.7269E-05 -0.5612E-06 -0.2748E-07 -0.1336E-08  0.0000E+00  0.0000E+00
     -2.955 -0.2550E-04 -0.2842E-05 -0.1238E-06 -0.8755E-08  0.0000E+00  0.0000E+00
     -2.890 -0.7093E-04 -0.1162E-04 -0.4431E-06 -0.4606E-07  0.0000E+00  0.0000E+00
     -2.825 -0.1509E-03 -0.3811E-04 -0.1239E-05 -0.1936E-06  0.0000E+00  0.0000E+00
     -2.760 -0.2209E-03 -0.9825E-04 -0.2609E-05 -0.6434E-06  0.0000E+00  0.0000E+00
     -2.695 -0.1191E-03 -0.1898E-03 -0.3729E-05 -0.1657E-05  0.0000E+00  0.0000E+00
     -2.630  0.4386E-03 -0.2337E-03 -0.2025E-05 -0.3150E-05  0.0000E+00  0.0000E+00
     -2.565  0.1688E-02 -0.1127E-04  0.6159E-05 -0.3777E-05  0.0000E+00  0.0000E+00
     -2.500  0.3517E-02  0.7931E-03  0.2256E-04 -0.3583E-06  0.0000E+00  0.0000E+00
     -2.435  0.5370E-02  0.2347E-02  0.4525E-04  0.1063E-04  0.0000E+00  0.0000E+00
     -2.370  0.6715E-02  0.4371E-02  0.7416E-04  0.2974E-04  0.0000E+00  0.0000E+00
     -2.305  0.7727E-02  0.6210E-02  0.1205E-03  0.5469E-04  0.0000E+00  0.0000E+00
     -2.240  0.9227E-02  0.7485E-02  0.2014E-03  0.8848E-04  0.0000E+00  0.0000E+00
     -2.175  0.1152E-01  0.8670E-02  0.3122E-03  0.1463E-03  0.0000E+00  0.0000E+00
     -2.110  0.1351E-01  0.1059E-01  0.4076E-03  0.2418E-03  0.0000E+00  0.0000E+00
     -2.045  0.1365E-01  0.1308E-01  0.4391E-03  0.3558E-03  0.0000E+00  0.0000E+00
     -1.980  0.1209E-01  0.1461E-01  0.4247E-03  0.4342E-03  0.0000E+00  0.0000E+00
     -1.915  0.1102E-01  0.1399E-01  0.4560E-03  0.4452E-03  0.0000E+00  0.0000E+00
     -1.850  0.1239E-01  0.1229E-01  0.6078E-03  0.4378E-03  0.0000E+00  0.0000E+00
     -1.785  0.1570E-01  0.1205E-01  0.8469E-03  0.5110E-03  0.0000E+00  0.0000E+00
     -1.720  0.1855E-01  0.1449E-01  0.1054E-02  0.7054E-03  0.0000E+00  0.0000E+00
     -1.655  0.1915E-01  0.1807E-01  0.1143E-02  0.9464E-03  0.0000E+00  0.0000E+00
     -1.590  0.1805E-01  0.2021E-01  0.1152E-02  0.1114E-02  0.0000E+00  0.0000E+00
     -1.525  0.1739E-01  0.1993E-01  0.1210E-02  0.1166E-02  0.0000E+00  0.0000E+00
     -1.460  0.1839E-01  0.1874E-01  0.1383E-02  0.1187E-02  0.0000E+00  0.0000E+00
     -1.395  0.1979E-01  0.1876E-01  0.1558E-02  0.1299E-02  0.0000E+00  0.0000E+00
     -1.330  0.1933E-01  0.2028E-01  0.1561E-02  0.1498E-02  0.0000E+00  0.0000E+00
     -1.265  0.1716E-01  0.2123E-01  0.1429E-02  0.1622E-02  0.0000E+00  0.0000E+00
     -1.200  0.1629E-01  0.1998E-01  0.1452E-02  0.1552E-02  0.0000E+00  0.0000E+00
     -1.135  0.1899E-01  0.1799E-01  0.1831E-02  0.1439E-02  0.0000E+00  0.0000E+00
     -1.070  0.2374E-01  0.1849E-01  0.2408E-02  0.1583E-02  0.0000E+00  0.0000E+00
     -1.005  0.2718E-01  0.2235E-01  0.2848E-02  0.2067E-02  0.0000E+00  0.0000E+00
     -0.940  0.2797E-01  0.2700E-01  0.3025E-02  0.2634E-02  0.0000E+00  0.0000E+00
     -0.875  0.2737E-01  0.2951E-01  0.3085E-02  0.2986E-02  0.0000E+00  0.0000E+00
     -0.810  0.2646E-01  0.2948E-01  0.3132E-02  0.3094E-02  0.0000E+00  0.0000E+00
     -0.745  0.2464E-01  0.2836E-01  0.3047E-02  0.3126E-02  0.0000E+00  0.0000E+00
     -0.680  0.2149E-01  0.2702E-01  0.2711E-02  0.3145E-02  0.0000E+00  0.0000E+00
     -0.615  0.1885E-01  0.2525E-01  0.2337E-02  0.3026E-02  0.0000E+00  0.0000E+00
     -0.550  0.1963E-01  0.2323E-01  0.2363E-02  0.2721E-02  0.0000E+00  0.0000E+00
     -0.486  0.2441E-01  0.2251E-01  0.3002E-02  0.2477E-02  0.0000E+00  0.0000E+00
     -0.421  0.3049E-01  0.2455E-01  0.3989E-02  0.2650E-02  0.0000E+00  0.0000E+00
     -0.356  0.3458E-01  0.2900E-01  0.4825E-02  0.3334E-02  0.0000E+00  0.0000E+00
     -0.291  0.3572E-01  0.3402E-01  0.5221E-02  0.4250E-02  0.0000E+00  0.0000E+00
     -0.226  0.3518E-01  0.3771E-01  0.5268E-02  0.4983E-02  0.0000E+00  0.0000E+00
     -0.161  0.3429E-01  0.3905E-01  0.5201E-02  0.5290E-02  0.0000E+00  0.0000E+00
     -0.096  0.3336E-01  0.3820E-01  0.5104E-02  0.5256E-02  0.0000E+00  0.0000E+00
     -0.031  0.3246E-01  0.3663E-01  0.4914E-02  0.5167E-02  0.0000E+00  0.0000E+00
      0.034  0.3229E-01  0.3593E-01  0.4696E-02  0.5178E-02  0.0000E+00  0.0000E+00
      0.099  0.3360E-01  0.3622E-01  0.4727E-02  0.5174E-02  0.0000E+00  0.0000E+00
      0.164  0.3603E-01  0.3624E-01  0.5200E-02  0.5040E-02  0.0000E+00  0.0000E+00
      0.229  0.3797E-01  0.3552E-01  0.5906E-02  0.4978E-02  0.0000E+00  0.0000E+00
      0.294  0.3778E-01  0.3536E-01  0.6339E-02  0.5320E-02  0.0000E+00  0.0000E+00
      0.359  0.3519E-01  0.3659E-01  0.6208E-02  0.6004E-02  0.0000E+00  0.0000E+00
      0.424  0.3179E-01  0.3754E-01  0.5793E-02  0.6474E-02  0.0000E+00  0.0000E+00
      0.489  0.3014E-01  0.3585E-01  0.5721E-02  0.6308E-02  0.0000E+00  0.0000E+00
      0.554  0.3171E-01  0.3224E-01  0.6321E-02  0.5819E-02  0.0000E+00  0.0000E+00
      0.619  0.3550E-01  0.3042E-01  0.7325E-02  0.5770E-02  0.0000E+00  0.0000E+00
      0.684  0.3911E-01  0.3261E-01  0.8250E-02  0.6496E-02  0.0000E+00  0.0000E+00
      0.749  0.4096E-01  0.3700E-01  0.8890E-02  0.7560E-02  0.0000E+00  0.0000E+00
      0.814  0.4078E-01  0.4034E-01  0.9216E-02  0.8362E-02  0.0000E+00  0.0000E+00
      0.879  0.3877E-01  0.4143E-01  0.9106E-02  0.8779E-02  0.0000E+00  0.0000E+00
      0.944  0.3579E-01  0.4080E-01  0.8578E-02  0.8986E-02  0.0000E+00  0.0000E+00
      1.009  0.3372E-01  0.3884E-01  0.8066E-02  0.8977E-02  0.0000E+00  0.0000E+00
      1.074  0.3376E-01  0.3599E-01  0.8021E-02  0.8659E-02  0.0000E+00  0.0000E+00
      1.139  0.3484E-01  0.3379E-01  0.8362E-02  0.8264E-02  0.0000E+00  0.0000E+00
      1.204  0.3521E-01  0.3368E-01  0.8710E-02  0.8197E-02  0.0000E+00  0.0000E+00
      1.269  0.3482E-01  0.3487E-01  0.8958E-02  0.8438E-02  0.0000E+00  0.0000E+00
      1.334  0.3440E-01  0.3522E-01  0.9189E-02  0.8556E-02  0.0000E+00  0.0000E+00
      1.399  0.3353E-01  0.3432E-01  0.9363E-02  0.8416E-02  0.0000E+00  0.0000E+00
      1.464  0.3188E-01  0.3374E-01  0.9600E-02  0.8378E-02  0.0000E+00  0.0000E+00
      1.529  0.3142E-01  0.3400E-01  0.1047E-01  0.8676E-02  0.0000E+00  0.0000E+00
      1.594  0.3453E-01  0.3361E-01  0.1237E-01  0.9087E-02  0.0000E+00  0.0000E+00
      1.659  0.4027E-01  0.3192E-01  0.1468E-01  0.9449E-02  0.0000E+00  0.0000E+00
      1.724  0.4458E-01  0.3111E-01  0.1611E-01  0.1009E-01  0.0000E+00  0.0000E+00
      1.789  0.4461E-01  0.3386E-01  0.1594E-01  0.1145E-01  0.0000E+00  0.0000E+00
      1.854  0.4163E-01  0.3983E-01  0.1467E-01  0.1336E-01  0.0000E+00  0.0000E+00
      1.919  0.3937E-01  0.4532E-01  0.1347E-01  0.1495E-01  0.0000E+00  0.0000E+00
      1.984  0.4055E-01  0.4665E-01  0.1326E-01  0.1535E-01  0.0000E+00  0.0000E+00
      2.049  0.4503E-01  0.4373E-01  0.1409E-01  0.1453E-01  0.0000E+00  0.0000E+00
      2.114  0.5011E-01  0.3969E-01  0.1514E-01  0.1333E-01  0.0000E+00  0.0000E+00
      2.179  0.5219E-01  0.3728E-01  0.1531E-01  0.1258E-01  0.0000E+00  0.0000E+00
      2.244  0.4924E-01  0.3680E-01  0.1418E-01  0.1255E-01  0.0000E+00  0.0000E+00
      2.309  0.4236E-01  0.3741E-01  0.1248E-01  0.1313E-01  0.0000E+00  0.0000E+00
      2.374  0.3512E-01  0.3862E-01  0.1144E-01  0.1411E-01  0.0000E+00  0.0000E+00
      2.439  0.3117E-01  0.4029E-01  0.1173E-01  0.1507E-01  0.0000E+00  0.0000E+00
      2.504  0.3175E-01  0.4204E-01  0.1313E-01  0.1533E-01  0.0000E+00  0.0000E+00
      2.569  0.3494E-01  0.4322E-01  0.1494E-01  0.1454E-01  0.0000E+00  0.0000E+00
      2.634  0.3764E-01  0.4309E-01  0.1668E-01  0.1333E-01  0.0000E+00  0.0000E+00
      2.699  0.3826E-01  0.4147E-01  0.1822E-01  0.1291E-01  0.0000E+00  0.0000E+00
      2.764  0.3742E-01  0.3928E-01  0.1952E-01  0.1398E-01  0.0000E+00  0.0000E+00
      2.829  0.3641E-01  0.3768E-01  0.2063E-01  0.1610E-01  0.0000E+00  0.0000E+00
      2.894  0.3557E-01  0.3662E-01  0.2168E-01  0.1818E-01  0.0000E+00  0.0000E+00
      2.959  0.3406E-01  0.3497E-01  0.2239E-01  0.1954E-01  0.0000E+00  0.0000E+00
      3.024  0.3091E-01  0.3247E-01  0.2216E-01  0.2027E-01  0.0000E+00  0.0000E+00
      3.089  0.2626E-01  0.3016E-01  0.2101E-01  0.2068E-01  0.0000E+00  0.0000E+00
      3.154  0.2137E-01  0.2887E-01  0.1985E-01  0.2079E-01  0.0000E+00  0.0000E+00
      3.219  0.1731E-01  0.2822E-01  0.1941E-01  0.2072E-01  0.0000E+00  0.0000E+00
      3.284  0.1404E-01  0.2758E-01  0.1952E-01  0.2115E-01  0.0000E+00  0.0000E+00
      3.349  0.1117E-01  0.2685E-01  0.2000E-01  0.2241E-01  0.0000E+00  0.0000E+00
      3.414  0.8956E-02  0.2603E-01  0.2134E-01  0.2373E-01  0.0000E+00  0.0000E+00
      3.479  0.8212E-02  0.2482E-01  0.2390E-01  0.2404E-01  0.0000E+00  0.0000E+00
      3.544  0.9407E-02  0.2296E-01  0.2706E-01  0.2329E-01  0.0000E+00  0.0000E+00
      3.609  0.1192E-01  0.2044E-01  0.2959E-01  0.2225E-01  0.0000E+00  0.0000E+00
      3.674  0.1425E-01  0.1782E-01  0.3106E-01  0.2141E-01  0.0000E+00  0.0000E+00
      3.739  0.1510E-01  0.1614E-01  0.3261E-01  0.2088E-01  0.0000E+00  0.0000E+00
      3.804  0.1426E-01  0.1618E-01  0.3628E-01  0.2120E-01  0.0000E+00  0.0000E+00
      3.869  0.1250E-01  0.1778E-01  0.4358E-01  0.2335E-01  0.0000E+00  0.0000E+00
      3.934  0.1070E-01  0.2008E-01  0.5429E-01  0.2742E-01  0.0000E+00  0.0000E+00
      3.999  0.9236E-02  0.2210E-01  0.6610E-01  0.3176E-01  0.0000E+00  0.0000E+00
      4.064  0.8123E-02  0.2309E-01  0.7537E-01  0.3424E-01  0.0000E+00  0.0000E+00
      4.129  0.7264E-02  0.2265E-01  0.7898E-01  0.3462E-01  0.0000E+00  0.0000E+00
      4.194  0.6603E-02  0.2099E-01  0.7625E-01  0.3464E-01  0.0000E+00  0.0000E+00
      4.259  0.6220E-02  0.1879E-01  0.6957E-01  0.3563E-01  0.0000E+00  0.0000E+00
      4.324  0.6368E-02  0.1676E-01  0.6299E-01  0.3691E-01  0.0000E+00  0.0000E+00