   36   36    1    2
  0.1314651E+02  0.8250148E-09  0.8250148E-09  0.6953274E-09  0.2000000E-15
  1.000000000000000E-004
  CAR 
 AlMn_pv                                 
    180     24    136
 
  0.0000000E+00  0.0000000E+00  0.0000000E+00  0.6666667E-02
    1       -2.579933     -2.469768   1.000000   1.000000
    2       -0.401068     -0.282284   1.000000   1.000000
    3       -0.401068     -0.282284   1.000000   1.000000
    4       -0.401068     -0.282284   1.000000   1.000000
    5       -0.401068     -0.282284   1.000000   1.000000
    6       -0.117647     -0.153821   1.000000   1.000000
    7        1.221666      1.470486   1.000000   1.000000
    8        1.303188      1.470486   1.000000   1.000000
    9        1.303188      1.470486   1.000000   1.000000
   10        1.303188      1.470486   1.000000   1.000000
   11        1.303188      1.596880   1.000000   1.000000
   12        1.485938      1.698305   1.000000   1.000000
   13        1.485938      1.698305   1.000000   1.000000
   14        1.485938      1.698305   1.000000   1.000000
   15        1.485938      1.698305   1.000000   1.000000
   16        2.594068      3.004980   1.000000   1.000000
   17        2.594068      3.004980   1.000000   1.000000
   18        2.594068      3.004980   1.000000   1.000000
   19        2.594068      3.004980   1.000000   1.000000
   20        3.371478      3.770455   1.000000   1.000000
   21        3.371478      3.770455   1.000000   1.000000
   22        3.371478      3.770455   1.000000   1.000000
   23        3.371478      3.770455   1.000000   1.000000
   24        3.952631      4.963577   1.000000   1.000000
   25        3.952631      4.963577   1.000000   1.000000
   26        3.952631      4.963577   1.000000   1.000000
   27        3.952631      4.963577   1.000000   1.000000
   28        4.405886      4.971755   1.000000   1.000000
   29        4.422923      4.971755   1.000000   1.000000
   30        4.422923      4.971755   1.000000   1.000000
   31        4.422923      4.971755   1.000000   1.000000
   32        4.422923      5.682993   1.000000   1.000000
   33        4.446360      5.682993   1.000000   1.000000
   34        4.446360      5.682993   1.000000   1.000000
   35        4.446360      5.682993   1.000000   1.000000
   36        4.446360      5.864447   1.000000   1.000000
   37        4.475806      5.865343   1.000000   1.000000
   38        4.475806      5.865343   1.000000   1.000000
   39        4.475806      5.865343   1.000000   1.000000
   40        4.475806      5.865343   1.000000   1.000000
   41        5.018398      6.030698   1.000000   1.000000
   42        5.155647      6.030698   1.000000   1.000000
   43        5.155647      6.030698   1.000000   1.000000
   44        5.155647      6.030698   1.000000   1.000000
   45        5.155647      6.248331   1.000000   1.000000
   46        5.156049      6.533571   1.000000   1.000000
   47        5.156049      6.533571   1.000000   1.000000
   48        5.156049      6.533571   1.000000   1.000000
   49        5.156049      6.533571   1.000000   1.000000
   50        5.205143      6.554852   1.000000   1.000000
   51        5.205143      6.755610   1.000000   1.000000
   52        5.205143      6.755610   1.000000   1.000000
   53        5.205143      6.755610   1.000000   1.000000
   54        5.235126      6.755610   1.000000   1.000000
   55        5.445326      6.760141   1.000000   1.000000
   56        5.445326      6.760141   1.000000   1.000000
   57        5.445326      6.760141   1.000000   1.000000
   58        5.445326      6.760141   1.000000   1.000000
   59        5.733912      6.837882   1.000000   1.000000
   60        5.733912      6.837882   1.000000   1.000000
   61        5.733912      6.837882   1.000000   1.000000
   62        5.733912      6.837882   1.000000   1.000000
   63        5.770217      7.195018   1.000000   1.000533
   64        5.770217      7.195018   1.000000   1.000533
   65        5.770217      7.195018   1.000000   1.000533
   66        5.770217      7.195018   1.000000   1.000533
   67        5.957359      7.746418   1.000000   0.423937
   68        5.957359      7.746418   1.000000   0.423937
   69        5.957359      7.746418   1.000000   0.423937
   70        5.957359      7.746418   1.000000   0.423937
   71        6.336125      8.243104   1.000000  -0.000828
   72        6.336125      8.243104   1.000000  -0.000828
   73        6.336125      8.243104   1.000000  -0.000828
   74        6.336125      8.243104   1.000000  -0.000828
   75        6.410253      8.340626   1.000000  -0.000066
   76        6.410253      8.340626   1.000000  -0.000066
   77        6.418909      8.340626   1.000000  -0.000066
   78        6.418909      8.340626   1.000000  -0.000066
   79        6.418909      8.511732   1.000000  -0.000000
   80        6.418909      8.511732   1.000000  -0.000000
   81        6.461604      8.676377   1.000000  -0.000000
   82        6.461604      8.742518   1.000000  -0.000000
   83        6.461604      8.742518   1.000000  -0.000000
   84        6.461604      8.742518   1.000000  -0.000000
   85        6.511192      8.742518   1.000000  -0.000000
   86        6.594429      8.776008   1.000000  -0.000000
   87        6.594429      8.776008   1.000000  -0.000000
   88        6.594429      8.776008   1.000000  -0.000000
   89        6.594429      8.776008   1.000000  -0.000000
   90        6.730597      8.931156   1.000000  -0.000000
   91        6.730597      8.958234   1.000000  -0.000000
   92        6.741789      8.958234   1.000000  -0.000000
   93        6.741789      8.958234   1.000000  -0.000000
   94        6.741789      8.958234   1.000000  -0.000000
   95        6.741789      8.986036   1.000000  -0.000000
   96        6.774866      8.986036   1.000000  -0.000000
   97        6.774866      9.080834   1.000000  -0.000000
   98        6.774866      9.080834   1.000000  -0.000000
   99        6.774866      9.080834   1.000000  -0.000000
  100        6.871499      9.080834   1.000000  -0.000000
  101        6.871499      9.129694   1.000000  -0.000000
  102        6.871499      9.129694   1.000000  -0.000000
  103        6.871499      9.129694   1.000000  -0.000000
  104        6.908858      9.129694   1.000000  -0.000000
  105        6.908858      9.162109   1.000000  -0.000000
  106        6.908858      9.162109   1.000000  -0.000000
  107        6.908858      9.162109   1.000000  -0.000000
  108        7.137737      9.162109   1.000121  -0.000000
  109        7.159097      9.169423   1.000215  -0.000000
  110        7.390292      9.169423   1.018969  -0.000000
  111        7.390292      9.169423   1.018969  -0.000000
  112        7.390292      9.169423   1.018969  -0.000000
  113        7.390292      9.205614   1.018969  -0.000000
  114        7.749165      9.205614   0.412545  -0.000000
  115        7.749165      9.205614   0.412537  -0.000000
  116        7.749165      9.205614   0.412537  -0.000000
  117        7.749165     10.029711   0.412536  -0.000000
  118        8.754589     10.061395  -0.000000  -0.000000
  119        9.216606     10.282221  -0.000000  -0.000000
  120        9.216606     10.282221  -0.000000  -0.000000
  121        9.216606     10.282221  -0.000000  -0.000000
  122        9.216606     10.282221  -0.000000  -0.000000
  123        9.239472     10.548909  -0.000000  -0.000000
  124        9.239472     10.548909  -0.000000  -0.000000
  125        9.239472     10.548909  -0.000000  -0.000000
  126        9.239472     10.548909  -0.000000  -0.000000
  127       11.212336     12.420474  -0.000000  -0.000000
  128       11.212343     12.421651  -0.000000  -0.000000
  129       11.212357     12.540820  -0.000000  -0.000000
  130       11.212358     12.541433  -0.000000  -0.000000
  131       11.994608     12.541585  -0.000000  -0.000000
  132       11.994652     12.541594  -0.000000  -0.000000
  133       11.996499     12.616655  -0.000000  -0.000000
  134       12.010547     12.620342  -0.000000  -0.000000
  135       12.229006     12.623535  -0.000000  -0.000000
  136       12.231018     12.623572  -0.000000  -0.000000
 
  0.2000000E+00  0.0000000E+00  0.0000000E+00  0.2666667E-01
    1       -2.489324     -2.379265   1.000000   1.000000
    2       -1.164350     -1.051726   1.000000   1.000000
    3       -0.318860     -0.198632   1.000000   1.000000
    4       -0.318860     -0.198632   1.000000   1.000000
    5       -0.054420     -0.085041   1.000000   1.000000
    6        0.495900      0.629488   1.000000   1.000000
    7        0.835636      0.911835   1.000000   1.000000
    8        0.850590      1.012813   1.000000   1.000000
    9        0.850590      1.012813   1.000000   1.000000
   10        1.317249      1.537149   1.000000   1.000000
   11        1.362824      1.537149   1.000000   1.000000
   12        1.362824      1.691453   1.000000   1.000000
   13        1.774020      2.087421   1.000000   1.000000
   14        2.170083      2.484170   1.000000   1.000000
   15        2.170083      2.484170   1.000000   1.000000
   16        2.181160      2.487018   1.000000   1.000000
   17        2.181160      2.487018   1.000000   1.000000
   18        2.660531      3.035439   1.000000   1.000000
   19        3.003993      3.570122   1.000000   1.000000
   20        3.003993      3.570122   1.000000   1.000000
   21        3.437324      3.842646   1.000000   1.000000
   22        3.437324      3.842646   1.000000   1.000000
   23        3.612002      3.924858   1.000000   1.000000
   24        3.925416      4.584893   1.000000   1.000000
   25        3.925416      4.672537   1.000000   1.000000
   26        3.932870      4.672537   1.000000   1.000000
   27        3.932870      5.028473   1.000000   1.000000
   28        4.108962      5.028473   1.000000   1.000000
   29        4.219837      5.167740   1.000000   1.000000
   30        4.219837      5.167740   1.000000   1.000000
   31        4.259992      5.225418   1.000000   1.000000
   32        4.259992      5.298886   1.000000   1.000000
   33        4.446961      5.298886   1.000000   1.000000
   34        4.448648      5.350473   1.000000   1.000000
   35        4.448648      5.350473   1.000000   1.000000
   36        4.553921      5.736744   1.000000   1.000000
   37        4.553921      5.750354   1.000000   1.000000
   38        4.683522      5.750354   1.000000   1.000000
   39        4.683522      5.899184   1.000000   1.000000
   40        4.794530      5.899184   1.000000   1.000000
   41        4.797894      5.912317   1.000000   1.000000
   42        4.958586      6.035522   1.000000   1.000000
   43        5.039548      6.035522   1.000000   1.000000
   44        5.074606      6.260296   1.000000   1.000000
   45        5.161118      6.534071   1.000000   1.000000
   46        5.161118      6.561475   1.000000   1.000000
   47        5.176487      6.586072   1.000000   1.000000
   48        5.176487      6.613618   1.000000   1.000000
   49        5.204278      6.766271   1.000000   1.000000
   50        5.204278      6.766271   1.000000   1.000000
   51        5.267378      6.773104   1.000000   1.000000
   52        5.275279      6.773104   1.000000   1.000000
   53        5.376109      6.788654   1.000000   1.000000
   54        5.376109      6.788654   1.000000   1.000000
   55        5.406240      6.794456   1.000000   1.000000
   56        5.406240      6.794456   1.000000   1.000000
   57        5.440997      6.825218   1.000000   1.000000
   58        5.600924      6.860529   1.000000   1.000000
   59        5.628541      6.892186   1.000000   1.000000
   60        5.731419      6.892186   1.000000   1.000000
   61        5.731419      6.933885   1.000000   1.000000
   62        5.735541      7.050477   1.000000   1.000009
   63        5.735541      7.116655   1.000000   1.000067
   64        5.748586      7.116655   1.000000   1.000067
   65        5.781375      7.165807   1.000000   1.000256
   66        5.781375      7.165807   1.000000   1.000256
   67        5.966066      7.687193   1.000000   0.670167
   68        5.966066      7.687193   1.000000   0.670167
   69        6.069451      7.771023   1.000000   0.323913
   70        6.069451      7.771023   1.000000   0.323913
   71        6.274560      7.976841   1.000000  -0.035411
   72        6.274560      7.976841   1.000000  -0.035411
   73        6.287999      8.141666   1.000000  -0.006410
   74        6.329540      8.141666   1.000000  -0.006410
   75        6.329540      8.372331   1.000000  -0.000026
   76        6.332301      8.372331   1.000000  -0.000026
   77        6.354772      8.385757   1.000000  -0.000017
   78        6.355321      8.396184   1.000000  -0.000012
   79        6.355321      8.419362   1.000000  -0.000006
   80        6.391603      8.419362   1.000000  -0.000006
   81        6.391603      8.526504   1.000000  -0.000000
   82        6.420649      8.691562   1.000000  -0.000000
   83        6.498432      8.704605   1.000000  -0.000000
   84        6.498432      8.710983   1.000000  -0.000000
   85        6.523072      8.710983   1.000000  -0.000000
   86        6.545092      8.774920   1.000000  -0.000000
   87        6.560424      8.774920   1.000000  -0.000000
   88        6.593927      8.832676   1.000000  -0.000000
   89        6.633297      8.879997   1.000000  -0.000000
   90        6.633852      8.919158   1.000000  -0.000000
   91        6.655111      8.949170   1.000000  -0.000000
   92        6.655111      8.949170   1.000000  -0.000000
   93        6.674198      8.971276   1.000000  -0.000000
   94        6.738590      8.971276   1.000000  -0.000000
   95        6.754677      8.996367   1.000000  -0.000000
   96        6.754677      9.000083   1.000000  -0.000000
   97        6.769443      9.000083   1.000000  -0.000000
   98        6.769443      9.002390   1.000000  -0.000000
   99        6.782499      9.018834   1.000000  -0.000000
  100        6.782499      9.034921   1.000000  -0.000000
  101        6.799041      9.034921   1.000000  -0.000000
  102        6.833934      9.114933   1.000000  -0.000000
  103        6.836424      9.114933   1.000000  -0.000000
  104        6.836424      9.120304   1.000000  -0.000000
  105        6.901215      9.135011   1.000000  -0.000000
  106        7.060145      9.135011   1.000012  -0.000000
  107        7.060145      9.208383   1.000012  -0.000000
  108        7.091509      9.231948   1.000032  -0.000000
  109        7.115423      9.231948   1.000065  -0.000000
  110        7.156632      9.301091   1.000201  -0.000000
  111        7.156632      9.326816   1.000201  -0.000000
  112        7.393126      9.326816   1.019594  -0.000000
  113        7.393126      9.359343   1.019594  -0.000000
  114        8.117359      9.359343  -0.009512  -0.000000
  115        8.117359      9.377709  -0.009512  -0.000000
  116        8.168082      9.585617  -0.003997  -0.000000
  117        8.168082      9.964282  -0.003997  -0.000000
  118        8.838471     10.002583  -0.000000  -0.000000
  119        8.838471     10.183673  -0.000000  -0.000000
  120        8.882652     10.183673  -0.000000  -0.000000
  121        8.987901     10.467333  -0.000000  -0.000000
  122        9.268431     10.467333  -0.000000  -0.000000
  123        9.268431     10.526855  -0.000000  -0.000000
  124        9.446358     10.562578  -0.000000  -0.000000
  125        9.446358     10.562578  -0.000000  -0.000000
  126       10.051026     10.937472  -0.000000  -0.000000
  127       10.547356     11.785097  -0.000000  -0.000000
  128       11.093916     11.897147  -0.000000  -0.000000
  129       11.216154     11.897173  -0.000000  -0.000000
  130       11.234096     12.004985  -0.000000  -0.000000
  131       11.234096     12.314147  -0.000000  -0.000000
  132       11.251400     12.442825  -0.000000  -0.000000
  133       11.251633     12.601867  -0.000000  -0.000000
  134       11.898874     12.735986  -0.000000  -0.000000
  135       12.054881     12.779438  -0.000000  -0.000000
  136       12.088629     12.804337  -0.000000  -0.000000
 
  0.4000000E+00  0.0000000E+00  0.0000000E+00  0.2666667E-01
    1       -2.219187     -2.109248   1.000000   1.000000
    2       -1.774653     -1.664249   1.000000   1.000000
    3       -0.075261      0.050183   1.000000   1.000000
    4       -0.075261      0.050183   1.000000   1.000000
    5        0.132598      0.119667   1.000000   1.000000
    6        0.320282      0.455255   1.000000   1.000000
    7        0.320282      0.457672   1.000000   1.000000
    8        0.434901      0.457672   1.000000   1.000000
    9        1.487022      1.662187   1.000000   1.000000
   10        1.538143      1.734760   1.000000   1.000000
   11        1.538143      1.734760   1.000000   1.000000
   12        1.599708      1.971482   1.000000   1.000000
   13        1.817902      2.055966   1.000000   1.000000
   14        1.817902      2.055966   1.000000   1.000000
   15        2.055693      2.425883   1.000000   1.000000
   16        2.111446      2.615313   1.000000   1.000000
   17        2.602439      2.781971   1.000000   1.000000
   18        2.755975      3.276618   1.000000   1.000000
   19        2.755975      3.276618   1.000000   1.000000
   20        3.316070      4.046559   1.000000   1.000000
   21        3.316070      4.046559   1.000000   1.000000
   22        3.608298      4.085764   1.000000   1.000000
   23        3.608298      4.085764   1.000000   1.000000
   24        3.803459      4.343769   1.000000   1.000000
   25        3.803459      4.343769   1.000000   1.000000
   26        3.911382      4.527680   1.000000   1.000000
   27        3.911382      4.527680   1.000000   1.000000
   28        3.912015      4.593245   1.000000   1.000000
   29        3.912015      4.961393   1.000000   1.000000
   30        4.069068      4.961393   1.000000   1.000000
   31        4.069068      5.193250   1.000000   1.000000
   32        4.490381      5.193250   1.000000   1.000000
   33        4.509591      5.269098   1.000000   1.000000
   34        4.509591      5.269098   1.000000   1.000000
   35        4.559911      5.404222   1.000000   1.000000
   36        4.562166      5.448187   1.000000   1.000000
   37        4.562166      5.448187   1.000000   1.000000
   38        4.695242      6.006627   1.000000   1.000000
   39        4.713090      6.006627   1.000000   1.000000
   40        4.857684      6.038188   1.000000   1.000000
   41        4.876463      6.038213   1.000000   1.000000
   42        4.876463      6.038213   1.000000   1.000000
   43        5.042722      6.088769   1.000000   1.000000
   44        5.042722      6.124190   1.000000   1.000000
   45        5.088668      6.276651   1.000000   1.000000
   46        5.116267      6.327973   1.000000   1.000000
   47        5.234195      6.460508   1.000000   1.000000
   48        5.234195      6.669779   1.000000   1.000000
   49        5.304677      6.778277   1.000000   1.000000
   50        5.304677      6.869650   1.000000   1.000000
   51        5.318219      6.869650   1.000000   1.000000
   52        5.318219      6.884667   1.000000   1.000000
   53        5.344923      6.884667   1.000000   1.000000
   54        5.345072      6.930256   1.000000   1.000000
   55        5.345072      6.930256   1.000000   1.000000
   56        5.357658      6.988761   1.000000   1.000001
   57        5.488298      6.988761   1.000000   1.000001
   58        5.555480      7.033234   1.000000   1.000005
   59        5.555480      7.058477   1.000000   1.000012
   60        5.643802      7.058477   1.000000   1.000012
   61        5.756014      7.098943   1.000000   1.000040
   62        5.756014      7.098943   1.000000   1.000040
   63        5.763486      7.108561   1.000000   1.000053
   64        5.763486      7.108561   1.000000   1.000053
   65        5.797062      7.347885   1.000000   1.010820
   66        5.931682      7.347885   1.000000   1.010820
   67        5.931682      7.424198   1.000000   1.026717
   68        5.936767      7.520824   1.000000   1.028608
   69        6.125003      7.705690   1.000000   0.595247
   70        6.125003      7.705690   1.000000   0.595247
   71        6.192870      7.857184   1.000000   0.061165
   72        6.193865      7.857184   1.000000   0.061165
   73        6.218119      7.872325   1.000000   0.033379
   74        6.253737      8.057786   1.000000  -0.020904
   75        6.253737      8.324446   1.000000  -0.000104
   76        6.263136      8.324446   1.000000  -0.000104
   77        6.270757      8.369199   1.000000  -0.000028
   78        6.270757      8.369199   1.000000  -0.000028
   79        6.306790      8.557837   1.000000  -0.000000
   80        6.306790      8.557837   1.000000  -0.000000
   81        6.326959      8.568335   1.000000  -0.000000
   82        6.326959      8.631174   1.000000  -0.000000
   83        6.450026      8.709100   1.000000  -0.000000
   84        6.494004      8.709100   1.000000  -0.000000
   85        6.550972      8.734745   1.000000  -0.000000
   86        6.550972      8.783794   1.000000  -0.000000
   87        6.556981      8.783794   1.000000  -0.000000
   88        6.590211      8.792908   1.000000  -0.000000
   89        6.590211      8.792908   1.000000  -0.000000
   90        6.609538      8.800871   1.000000  -0.000000
   91        6.654776      8.832841   1.000000  -0.000000
   92        6.692175      8.832841   1.000000  -0.000000
   93        6.692175      8.833839   1.000000  -0.000000
   94        6.761264      8.838898   1.000000  -0.000000
   95        6.787053      8.838898   1.000000  -0.000000
   96        6.794956      8.864097   1.000000  -0.000000
   97        6.798006      8.917630   1.000000  -0.000000
   98        6.798006      8.991823   1.000000  -0.000000
   99        6.822116      8.991823   1.000000  -0.000000
  100        6.824483      9.009083   1.000000  -0.000000
  101        6.824483      9.009083   1.000000  -0.000000
  102        6.831288      9.025752   1.000000  -0.000000
  103        6.856623      9.049932   1.000000  -0.000000
  104        6.856623      9.066300   1.000000  -0.000000
  105        6.892007      9.066300   1.000000  -0.000000
  106        6.892007      9.069523   1.000000  -0.000000
  107        6.917471      9.229733   1.000000  -0.000000
  108        6.964871      9.286212   1.000000  -0.000000
  109        6.993988      9.286212   1.000001  -0.000000
  110        7.078050      9.460816   1.000021  -0.000000
  111        7.078050      9.460816   1.000021  -0.000000
  112        7.251361      9.550945   1.001905  -0.000000
  113        7.251361      9.617808   1.001905  -0.000000
  114        8.409210      9.788943  -0.000008  -0.000000
  115        8.409210      9.841479  -0.000008  -0.000000
  116        8.612185     10.135918  -0.000000  -0.000000
  117        8.612185     10.135918  -0.000000  -0.000000
  118        8.784338     10.186658  -0.000000  -0.000000
  119        9.126087     10.186658  -0.000000  -0.000000
  120        9.126087     10.264455  -0.000000  -0.000000
  121        9.346075     10.576448  -0.000000  -0.000000
  122        9.346075     10.576448  -0.000000  -0.000000
  123        9.437246     10.587147  -0.000000  -0.000000
  124        9.437246     10.587147  -0.000000  -0.000000
  125        9.545967     10.602738  -0.000000  -0.000000
  126       10.204623     10.997220  -0.000000  -0.000000
  127       10.268894     11.499982  -0.000000  -0.000000
  128       10.522254     11.499982  -0.000000  -0.000000
  129       10.587846     11.798323  -0.000000  -0.000000
  130       10.587846     11.800548  -0.000000  -0.000000
  131       10.898918     11.847300  -0.000000  -0.000000
  132       10.898921     11.847508  -0.000000  -0.000000
  133       11.318786     11.861285  -0.000000  -0.000000
  134       11.370142     12.530009  -0.000000  -0.000000
  135       11.378862     12.580907  -0.000000  -0.000000
  136       11.575313     12.628422  -0.000000  -0.000000
 
  0.2000000E+00  0.2000000E+00  0.0000000E+00  0.2666667E-01
    1       -2.399003     -2.289005   1.000000   1.000000
    2       -1.078869     -0.965487   1.000000   1.000000
    3       -1.078869     -0.965487   1.000000   1.000000
    4        0.008676     -0.016344   1.000000   1.000000
    5        0.155866      0.291834   1.000000   1.000000
    6        0.573842      0.709740   1.000000   1.000000
    7        0.573842      0.709740   1.000000   1.000000
    8        0.896575      0.979257   1.000000   1.000000
    9        0.896575      0.979257   1.000000   1.000000
   10        1.412130      1.785396   1.000000   1.000000
   11        1.642785      1.855407   1.000000   1.000000
   12        1.642785      1.855407   1.000000   1.000000
   13        1.743756      1.949127   1.000000   1.000000
   14        1.832655      2.153717   1.000000   1.000000
   15        1.832655      2.153717   1.000000   1.000000
   16        2.621871      3.082055   1.000000   1.000000
   17        2.621871      3.082055   1.000000   1.000000
   18        2.650864      3.117350   1.000000   1.000000
   19        2.739991      3.117350   1.000000   1.000000
   20        2.739991      3.171824   1.000000   1.000000
   21        3.366877      3.989544   1.000000   1.000000
   22        3.644229      3.989544   1.000000   1.000000
   23        3.653303      4.080429   1.000000   1.000000
   24        3.653303      4.185929   1.000000   1.000000
   25        3.809086      4.642664   1.000000   1.000000
   26        4.081919      4.642664   1.000000   1.000000
   27        4.081919      4.875294   1.000000   1.000000
   28        4.089844      4.875294   1.000000   1.000000
   29        4.089844      5.098838   1.000000   1.000000
   30        4.120729      5.098838   1.000000   1.000000
   31        4.159673      5.191925   1.000000   1.000000
   32        4.159673      5.230113   1.000000   1.000000
   33        4.352937      5.243904   1.000000   1.000000
   34        4.402715      5.243904   1.000000   1.000000
   35        4.402715      5.379139   1.000000   1.000000
   36        4.486726      5.379139   1.000000   1.000000
   37        4.761157      5.522249   1.000000   1.000000
   38        4.761157      5.784326   1.000000   1.000000
   39        4.796050      5.784326   1.000000   1.000000
   40        4.812096      5.958683   1.000000   1.000000
   41        4.812096      6.275111   1.000000   1.000000
   42        4.952945      6.297277   1.000000   1.000000
   43        4.981650      6.316252   1.000000   1.000000
   44        4.981650      6.486595   1.000000   1.000000
   45        5.062647      6.520398   1.000000   1.000000
   46        5.130080      6.569447   1.000000   1.000000
   47        5.130080      6.569447   1.000000   1.000000
   48        5.264174      6.593729   1.000000   1.000000
   49        5.264174      6.593729   1.000000   1.000000
   50        5.300618      6.618703   1.000000   1.000000
   51        5.323482      6.660973   1.000000   1.000000
   52        5.323482      6.660973   1.000000   1.000000
   53        5.439869      6.810759   1.000000   1.000000
   54        5.455955      6.810759   1.000000   1.000000
   55        5.455955      6.913822   1.000000   1.000000
   56        5.526342      6.913822   1.000000   1.000000
   57        5.546210      6.981692   1.000000   1.000001
   58        5.546210      6.981692   1.000000   1.000001
   59        5.577498      6.999080   1.000000   1.000002
   60        5.639906      6.999080   1.000000   1.000002
   61        5.639906      7.070589   1.000000   1.000017
   62        5.666229      7.070589   1.000000   1.000017
   63        5.666229      7.120042   1.000000   1.000074
   64        5.668093      7.120042   1.000000   1.000074
   65        5.879668      7.195973   1.000000   1.000545
   66        5.879668      7.272552   1.000000   1.002934
   67        5.991403      7.503105   1.000000   1.033756
   68        5.991403      7.618568   1.000000   0.895767
   69        6.019759      7.670851   1.000000   0.732503
   70        6.214044      7.670851   1.000000   0.732500
   71        6.243405      7.937111   1.000000  -0.029093
   72        6.243405      7.993013   1.000000  -0.034155
   73        6.252647      7.993013   1.000000  -0.034155
   74        6.267414      8.064274   1.000000  -0.019447
   75        6.267414      8.191460   1.000000  -0.002537
   76        6.291259      8.191460   1.000000  -0.002537
   77        6.305525      8.211576   1.000000  -0.001670
   78        6.336209      8.313706   1.000000  -0.000140
   79        6.336209      8.513722   1.000000  -0.000000
   80        6.378243      8.544523   1.000000  -0.000000
   81        6.427097      8.646734   1.000000  -0.000000
   82        6.441555      8.694493   1.000000  -0.000000
   83        6.482297      8.694493   1.000000  -0.000000
   84        6.518133      8.706424   1.000000  -0.000000
   85        6.518133      8.805271   1.000000  -0.000000
   86        6.534477      8.832628   1.000000  -0.000000
   87        6.549193      8.832628   1.000000  -0.000000
   88        6.549193      8.839087   1.000000  -0.000000
   89        6.593685      8.839087   1.000000  -0.000000
   90        6.593685      8.893207   1.000000  -0.000000
   91        6.595331      8.893207   1.000000  -0.000000
   92        6.595331      8.912339   1.000000  -0.000000
   93        6.674378      8.978890   1.000000  -0.000000
   94        6.697140      8.978890   1.000000  -0.000000
   95        6.697140      9.004962   1.000000  -0.000000
   96        6.703421      9.004962   1.000000  -0.000000
   97        6.703421      9.007195   1.000000  -0.000000
   98        6.740843      9.036559   1.000000  -0.000000
   99        6.740843      9.036559   1.000000  -0.000000
  100        6.809750      9.065050   1.000000  -0.000000
  101        6.809750      9.079969   1.000000  -0.000000