       N       E                     dE             d eps       ncg     rms          ort
DAV:   1     0.130938699016E+04    0.13094E+04   -0.61920E+04  3264   0.124E+03
DAV:   2    -0.108171089143E+03   -0.14176E+04   -0.13491E+04  3264   0.358E+02
DAV:   3    -0.252026092933E+03   -0.14386E+03   -0.11961E+03  3264   0.126E+02
DAV:   4    -0.268225092629E+03   -0.16199E+02   -0.14482E+02  3264   0.498E+01
DAV:   5    -0.268922866315E+03   -0.69777E+00   -0.68892E+00  3264   0.112E+01
DAV:   6    -0.268943728250E+03   -0.20862E-01   -0.20798E-01  3264   0.186E+00
DAV:   7    -0.268944700914E+03   -0.97266E-03   -0.97106E-03  3264   0.354E-01
DAV:   8    -0.268944757454E+03   -0.56540E-04   -0.56466E-04  3264   0.818E-02
SDA:   9    -0.740267126389E+02    0.19492E+03   -0.56466E-04  3264   0.197E+04 0.000E+00
CGA:  10    -0.215483238509E+03   -0.14146E+03   -0.14277E+03  3264   0.618E+02 0.152E+03
CGA:  11    -0.227795975440E+03   -0.12313E+02   -0.12327E+02  3264   0.630E+02 0.756E+00
CGA:  12    -0.236351594370E+03   -0.85556E+01   -0.85238E+01  3264   0.600E+01 0.118E+00
CGA:  13    -0.237264875311E+03   -0.91328E+00   -0.91379E+00  3264   0.457E+01 0.204E-02
CGA:  14    -0.238109587923E+03   -0.84471E+00   -0.84473E+00  3264   0.103E+01 0.484E-02
CGA:  15    -0.238298022946E+03   -0.18844E+00   -0.18842E+00  3264   0.827E+00-0.125E-02
CGA:  16    -0.238444266205E+03   -0.14624E+00   -0.14625E+00  3264   0.181E+00 0.472E-03
CGA:  17    -0.238487816055E+03   -0.43550E-01   -0.43546E-01  3264   0.192E+00 0.132E-03
CGA:  18    -0.238520955467E+03   -0.33139E-01   -0.33132E-01  3264   0.290E-01-0.207E-03
CGA:  19    -0.238527583621E+03   -0.66282E-02   -0.66318E-02  3264   0.285E-01-0.883E-04
CGA:  20    -0.238533372164E+03   -0.57885E-02   -0.57899E-02  3264   0.845E-02-0.113E-03
CGA:  21    -0.238535690230E+03   -0.23181E-02   -0.23222E-02  3264   0.716E-02-0.494E-04
CGA:  22    -0.238536770480E+03   -0.10802E-02   -0.10797E-02  3264   0.116E-02-0.909E-05
CGA:  23    -0.238537145074E+03   -0.37459E-03   -0.37484E-03  3264   0.141E-02-0.176E-05
CGA:  24    -0.238537384791E+03   -0.23972E-03   -0.23946E-03  3264   0.277E-03-0.885E-05
CGA:  25    -0.238537467317E+03   -0.82527E-04   -0.82901E-04  3264   0.225E-03-0.366E-05
CGA:  26    -0.238537502345E+03   -0.35028E-04   -0.35094E-04  3264   0.582E-04 0.149E-05
CGA:  27    -0.238537526423E+03   -0.24078E-04   -0.23951E-04  3264   0.661E-04 0.634E-06
CGA:  28    -0.238537536782E+03   -0.10358E-04   -0.10278E-04  3264   0.112E-04-0.139E-05
CGA:  29    -0.238537541452E+03   -0.46705E-05   -0.47920E-05  3264   0.124E-04-0.532E-06
CGA:  30    -0.238537543257E+03   -0.18044E-05   -0.18338E-05  3264   0.342E-05 0.455E-06
CGA:  31    -0.238537544424E+03   -0.11676E-05   -0.11550E-05  3264   0.272E-05 0.114E-06
CGA:  32    -0.238537544920E+03   -0.49603E-06   -0.47530E-06  3264   0.629E-06-0.397E-06
CGA:  33    -0.238537544547E+03    0.37288E-06   -0.27112E-06  3264   0.226E-05-0.936E-06
CGA:  34    -0.238537545081E+03   -0.53322E-06   -0.57965E-06  3264   0.751E-06 0.315E-06
CGA:  35    -0.238537545247E+03   -0.16669E-06   -0.17298E-06  3264   0.186E-06 0.326E-07
CGA:  36    -0.238537545293E+03   -0.45877E-07   -0.54073E-07  3264   0.575E-07 0.768E-07
   1 F= -.23853755E+03 E0= -.23854224E+03  d E =0.140929E-01  mag=    41.9321
