 vasp.5.4.4.18Apr17-6-g9f103f2a35 (build Dec 20 2018 12:05:58) complex          
  
 executed on             LinuxIFC date 2019.06.20  18:08:22
 running on   32 total cores
 distrk:  each k-point on    8 cores,    4 groups
 distr:  one band on NCORES_PER_BAND=   4 cores,    2 groups


--------------------------------------------------------------------------------------------------------


 INCAR:
 POTCAR:    PAW_PBE Al 04Jan2001                  
 POTCAR:    PAW_PBE Mn 06Sep2000                  

 ----------------------------------------------------------------------------- 
|                                                                             |
|           W    W    AA    RRRRR   N    N  II  N    N   GGGG   !!!           |
|           W    W   A  A   R    R  NN   N  II  NN   N  G    G  !!!           |
|           W    W  A    A  R    R  N N  N  II  N N  N  G       !!!           |
|           W WW W  AAAAAA  RRRRR   N  N N  II  N  N N  G  GGG   !            |
|           WW  WW  A    A  R   R   N   NN  II  N   NN  G    G                |
|           W    W  A    A  R    R  N    N  II  N    N   GGGG   !!!           |
|                                                                             |
|      You have enabled k-point parallelism (KPAR>1).                         |
|      This developmental code was originally  written by Paul Kent at ORNL,  |
|      and carefully double checked in Vienna.                                |
|      GW as well as linear response parallelism added by Martijn Marsman     |
|      and Georg Kresse.                                                      |
|      Carefully verify results versus KPAR=1.                                |
|      Report problems to Paul Kent and Vienna.                               |
|                                                                             |
 ----------------------------------------------------------------------------- 

 POTCAR:    PAW_PBE Al 04Jan2001                  
   VRHFIN =Al: s2p1                                                             
   LEXCH  = PE                                                                  
   EATOM  =    53.5387 eV,    3.9350 Ry                                         
                                                                                
   TITEL  = PAW_PBE Al 04Jan2001                                                
   LULTRA =        F    use ultrasoft PP ?                                      
   IUNSCR =        1    unscreen: 0-lin 1-nonlin 2-no                           
   RPACOR =    1.500    partial core radius                                     
   POMASS =   26.981; ZVAL   =    3.000    mass and valenz                      
   RCORE  =    1.900    outmost cutoff radius                                   
   RWIGS  =    2.650; RWIGS  =    1.402    wigner-seitz radius (au A)           
   ENMAX  =  240.300; ENMIN  =  180.225 eV                                      
   ICORE  =        2    local potential                                         
   LCOR   =        T    correct aug charges                                     
   LPAW   =        T    paw PP                                                  
   EAUG   =  291.052                                                            
   DEXC   =    0.000                                                            
   RMAX   =    1.939    core radius for proj-oper                               
   RAUG   =    1.300    factor for augmentation sphere                          
   RDEP   =    1.966    radius for radial grids                                 
   RDEPT  =    1.856    core radius for aug-charge                              
                                                                                
   Atomic configuration                                                         
    6 entries                                                                   
     n  l   j            E        occ.                                          
     1  0  0.50     -1511.1048   2.0000                                         
     2  0  0.50      -108.1629   2.0000                                         
     2  1  1.50       -69.6402   6.0000                                         
     3  0  0.50        -7.7528   2.0000                                         
     3  1  1.50        -2.7121   1.0000                                         
     3  2  2.50        -2.7212   0.0000                                         
   Description                                                                  
     l       E           TYP  RCUT    TYP  RCUT                                 
     0     -7.7528455     23  1.900                                             
     0     -3.3096929     23  1.900                                             
     1     -2.7120682     23  1.900                                             
     1     13.6058260     23  1.900                                             
     2     -2.7211652      7  1.900                                             
  local pseudopotential read in
  partial core-charges read in
  partial kinetic energy density read in
  atomic valenz-charges read in
  non local Contribution for L=           0  read in
    real space projection operators read in
  non local Contribution for L=           0  read in
    real space projection operators read in
  non local Contribution for L=           1  read in
    real space projection operators read in
  non local Contribution for L=           1  read in
    real space projection operators read in
    PAW grid and wavefunctions read in
 
   number of l-projection  operators is LMAX  =           4
   number of lm-projection operators is LMMAX =           8
 
 POTCAR:    PAW_PBE Mn 06Sep2000                  
   VRHFIN =Mn: d6 s1                                                            
   LEXCH  = PE                                                                  
   EATOM  =   416.7541 eV,   30.6306 Ry                                         
                                                                                
   TITEL  = PAW_PBE Mn 06Sep2000                                                
   LULTRA =        F    use ultrasoft PP ?                                      
   IUNSCR =        1    unscreen: 0-lin 1-nonlin 2-no                           
   RPACOR =    2.000    partial core radius                                     
   POMASS =   54.938; ZVAL   =    7.000    mass and valenz                      
   RCORE  =    2.300    outmost cutoff radius                                   
   RWIGS  =    2.500; RWIGS  =    1.323    wigner-seitz radius (au A)           
   ENMAX  =  269.864; ENMIN  =  202.398 eV                                      
   RCLOC  =    1.725    cutoff for local pot                                    
   LCOR   =        T    correct aug charges                                     
   LPAW   =        T    paw PP                                                  
   EAUG   =  500.711                                                            
   DEXC   =    0.000                                                            
   RMAX   =    2.343    core radius for proj-oper                               
   RAUG   =    1.300    factor for augmentation sphere                          
   RDEP   =    2.338    radius for radial grids                                 
   RDEPT  =    1.911    core radius for aug-charge                              
                                                                                
   Atomic configuration                                                         
    9 entries                                                                   
     n  l   j            E        occ.                                          
     1  0  0.50     -6424.8288   2.0000                                         
     2  0  0.50      -739.1154   2.0000                                         
     2  1  1.50      -625.3949   6.0000                                         
     3  0  0.50       -81.6100   2.0000                                         
     3  1  1.50       -50.4667   6.0000                                         
     3  2  2.50        -3.3745   6.0000                                         
     4  0  0.50        -4.1331   1.0000                                         
     4  1  0.50        -4.0817   0.0000                                         
     4  3  2.50        -1.3606   0.0000                                         
   Description                                                                  
     l       E           TYP  RCUT    TYP  RCUT                                 
     2     -3.3744664     23  2.300                                             
     2     -4.7350490     23  2.300                                             
     0     -4.1331408     23  2.300                                             
     0      7.6656614     23  2.300                                             
     1     -2.7211652     23  2.300                                             
     1     20.4087390     23  2.300                                             
  local pseudopotential read in
  partial core-charges read in
  partial kinetic energy density read in
  atomic valenz-charges read in
  non local Contribution for L=           2  read in
    real space projection operators read in
  non local Contribution for L=           2  read in
    real space projection operators read in
  non local Contribution for L=           0  read in
    real space projection operators read in
  non local Contribution for L=           0  read in
    real space projection operators read in
  non local Contribution for L=           1  read in
    real space projection operators read in
  non local Contribution for L=           1  read in
    real space projection operators read in
    PAW grid and wavefunctions read in
 
   number of l-projection  operators is LMAX  =           6
   number of lm-projection operators is LMMAX =          18
 

 ----------------------------------------------------------------------------- 
|                                                                             |
|  ADVICE TO THIS USER RUNNING 'VASP/VAMP'   (HEAR YOUR MASTER'S VOICE ...):  |
|                                                                             |
|      You have a (more or less) 'large supercell' and for larger cells       |
|      it might be more efficient to use real space projection opertators     |
|      So try LREAL= Auto  in the INCAR   file.                               |
|      Mind:          For very  accurate calculation you might also keep the  |
|      reciprocal projection scheme          (i.e. LREAL=.FALSE.)             |
|                                                                             |
 ----------------------------------------------------------------------------- 

  PAW_PBE Al 04Jan2001                  :
 energy of atom  1       EATOM=  -53.5387
 kinetic energy error for atom=    0.0005 (will be added to EATOM!!)
  PAW_PBE Mn 06Sep2000                  :
 energy of atom  2       EATOM= -416.7541
 kinetic energy error for atom=    0.0080 (will be added to EATOM!!)
 
 
 POSCAR: NewRef: 18, @ ['Mn', array([1.37502469, 
  positions in cartesian coordinates
  velocities in cartesian coordinates
  No initial velocities read in
 exchange correlation table for  LEXCH =        8
   RHO(1)=    0.500       N(1)  =     2000
   RHO(2)=  100.500       N(2)  =     4000
 


--------------------------------------------------------------------------------------------------------


 ion  position               nearest neighbor table
   1  0.000  0.000  0.000-  20 2.61  24 2.61  32 2.61  36 2.61  31 2.61  23 2.61  35 2.61  19 2.61
                             3 2.75   7 2.75   5 2.75  13 2.75
   2  0.000  0.000  0.500-  19 2.61  23 2.61  31 2.61  35 2.61  20 2.61  32 2.61  24 2.61  36 2.61
                             4 2.75   8 2.75   6 2.75  14 2.75
   3  0.000  0.333  0.000-  20 2.61  32 2.61  22 2.61  34 2.61  19 2.61  31 2.61  33 2.61  21 2.61
                             9 2.75   1 2.75   5 2.75  15 2.75
   4  0.000  0.333  0.500-  19 2.61  31 2.61  21 2.61  33 2.61  32 2.61  20 2.61  22 2.61  34 2.61
                            10 2.75   2 2.75   6 2.75  16 2.75
   5  0.000  0.667  0.000-  22 2.61  34 2.61  24 2.61  36 2.61  21 2.61  33 2.61  35 2.61  23 2.61
                             3 2.75  11 2.75   1 2.75  17 2.75
   6  0.000  0.667  0.500-  21 2.61  33 2.61  23 2.61  35 2.61  34 2.61  22 2.61  24 2.61  36 2.61
                             4 2.75  12 2.75   2 2.75  18 2.75
   7  0.333  0.000  0.000-  20 2.61  24 2.61  26 2.61  30 2.61  23 2.61  19 2.61  29 2.61  25 2.61
                            13 2.75   1 2.75   9 2.75  11 2.75
   8  0.333  0.000  0.500-  19 2.61  23 2.61  25 2.61  29 2.61  20 2.61  24 2.61  26 2.61  30 2.61
                            14 2.75   2 2.75  10 2.75  12 2.75
   9  0.333  0.333  0.000-  20 2.61  22 2.61  26 2.61  19 2.61  28 2.61  21 2.61  25 2.61  27 2.61
                             3 2.75   7 2.75  11 2.75  15 2.75
  10  0.333  0.333  0.500-  19 2.61  21 2.61  25 2.61  20 2.61  27 2.61  26 2.61  22 2.61  28 2.61
                             4 2.75   8 2.75  12 2.75  16 2.75
  11  0.333  0.667  0.000-  22 2.61  24 2.61  28 2.61  21 2.61  30 2.61  23 2.61  27 2.61  29 2.61
                            17 2.75   5 2.75   9 2.75   7 2.75
  12  0.333  0.667  0.500-  21 2.61  23 2.61  27 2.61  22 2.61  29 2.61  28 2.61  24 2.61  30 2.61
                            18 2.75   6 2.75  10 2.75   8 2.75
  13  0.667  0.000  0.000-  26 2.61  30 2.61  32 2.61  36 2.61  29 2.61  25 2.61  35 2.61  31 2.61
                             7 2.75  15 2.75   1 2.75  17 2.75
  14  0.667  0.000  0.500-  25 2.61  29 2.61  31 2.61  35 2.61  26 2.61  30 2.61  32 2.61  36 2.61
                             8 2.75  16 2.75   2 2.75  18 2.75
  15  0.667  0.333  0.000-  26 2.61  28 2.61  32 2.61  25 2.61  34 2.61  27 2.61  31 2.61  33 2.61
                            17 2.75   9 2.75  13 2.75   3 2.75
  16  0.667  0.333  0.500-  25 2.61  27 2.61  31 2.61  26 2.61  33 2.61  32 2.61  28 2.61  34 2.61
                            18 2.75  10 2.75  14 2.75   4 2.75
  17  0.667  0.667  0.000-  28 2.61  30 2.61  34 2.61  27 2.61  36 2.61  29 2.61  33 2.61  35 2.61
                            11 2.75  15 2.75  13 2.75   5 2.75
  18  0.667  0.667  0.500-  27 2.61  29 2.61  33 2.61  28 2.61  35 2.61  34 2.61  30 2.61  36 2.61
                            12 2.75  16 2.75  14 2.75   6 2.75
  19  0.167  0.167  0.250-  10 2.61   8 2.61   4 2.61   9 2.61   2 2.61   7 2.61   3 2.61   1 2.61
                            21 2.75  25 2.75  23 2.75  31 2.75
  20  0.167  0.167  0.750-   9 2.61   7 2.61   3 2.61  10 2.61   1 2.61   4 2.61   8 2.61   2 2.61
                            22 2.75  26 2.75  24 2.75  32 2.75
  21  0.167  0.500  0.250-  12 2.61  10 2.61   6 2.61  11 2.61   4 2.61   9 2.61   5 2.61   3 2.61
                            19 2.75  23 2.75  27 2.75  33 2.75
  22  0.167  0.500  0.750-  11 2.61   9 2.61   5 2.61  12 2.61   3 2.61   6 2.61  10 2.61   4 2.61
                            20 2.75  24 2.75  28 2.75  34 2.75
  23  0.167  0.833  0.250-   8 2.61  12 2.61   2 2.61   6 2.61  11 2.61   7 2.61   5 2.61   1 2.61
                            21 2.75  29 2.75  19 2.75  35 2.75
  24  0.167  0.833  0.750-   7 2.61  11 2.61   1 2.61   5 2.61   8 2.61  12 2.61   2 2.61   6 2.61
                            22 2.75  30 2.75  20 2.75  36 2.75
  25  0.500  0.167  0.250-  16 2.61  14 2.61  10 2.61  15 2.61   8 2.61  13 2.61   9 2.61   7 2.61
                            19 2.75  27 2.75  31 2.75  29 2.75
  26  0.500  0.167  0.750-  15 2.61  13 2.61   9 2.61  16 2.61   7 2.61  10 2.61  14 2.61   8 2.61
                            20 2.75  28 2.75  32 2.75  30 2.75
  27  0.500  0.500  0.250-  18 2.61  16 2.61  12 2.61  17 2.61  10 2.61  15 2.61  11 2.61   9 2.61
                            21 2.75  25 2.75  29 2.75  33 2.75
  28  0.500  0.500  0.750-  17 2.61  15 2.61  11 2.61  18 2.61   9 2.61  12 2.61  16 2.61  10 2.61
                            22 2.75  26 2.75  30 2.75  34 2.75
  29  0.500  0.833  0.250-  14 2.61  18 2.61   8 2.61  12 2.61  17 2.61  13 2.61  11 2.61   7 2.61
                            23 2.75  27 2.75  35 2.75  25 2.75
  30  0.500  0.833  0.750-  13 2.61  17 2.61   7 2.61  11 2.61  14 2.61  18 2.61   8 2.61  12 2.61
                            24 2.75  28 2.75  36 2.75  26 2.75
  31  0.833  0.167  0.250-   4 2.61  16 2.61  14 2.61   2 2.61  15 2.61   3 2.61  13 2.61   1 2.61
                            25 2.75  33 2.75  19 2.75  35 2.75
  32  0.833  0.167  0.750-   3 2.61  15 2.61  13 2.61   1 2.61   4 2.61  16 2.61   2 2.61  14 2.61
                            26 2.75  34 2.75  20 2.75  36 2.75
  33  0.833  0.500  0.250-   6 2.61  18 2.61  16 2.61   4 2.61  17 2.61   5 2.61  15 2.61   3 2.61
                            27 2.75  31 2.75  35 2.75  21 2.75
  34  0.833  0.500  0.750-   5 2.61  17 2.61  15 2.61   3 2.61   6 2.61  18 2.61   4 2.61  16 2.61
                            28 2.75  32 2.75  36 2.75  22 2.75
  35  0.833  0.833  0.250-   2 2.61   6 2.61  14 2.61  18 2.61  13 2.61   5 2.61  17 2.61   1 2.61
                            29 2.75  33 2.75  31 2.75  23 2.75
  36  0.833  0.833  0.750-   1 2.61   5 2.61  13 2.61  17 2.61   2 2.61  14 2.61   6 2.61  18 2.61
                            30 2.75  34 2.75  32 2.75  24 2.75
 
  LATTYP: Found a simple tetragonal cell.
 ALAT       =     8.2501481662
 C/A-ratio  =     0.8428059861
  
  Lattice vectors:
  
 A1 = (   8.2501481662,   0.0000000000,   0.0000000000)
 A2 = (   0.0000000000,   8.2501481662,   0.0000000000)
 A3 = (   0.0000000000,   0.0000000000,   6.9532742610)


Analysis of symmetry for initial positions (statically):
=====================================================================
 Subroutine PRICEL returns following result:
 
  LATTYP: Found a simple tetragonal cell.
 ALAT       =     2.7500493888
 C/A-ratio  =     1.2642089792
  
  Lattice vectors:
  
 A1 = (   2.7500493888,   0.0000000000,   0.0000000000)
 A2 = (   0.0000000000,   2.7500493888,   0.0000000000)
 A3 = (   0.0000000000,   0.0000000000,   3.4766371305)
 
  18 primitive cells build up your supercell.
 

 Routine SETGRP: Setting up the symmetry group for a 
 simple tetragonal supercell.


 Subroutine GETGRP returns: Found 16 space group operations
 (whereof 16 operations were pure point group operations)
 out of a pool of 16 trial point group operations.


The static configuration has the point symmetry D_4h.


Analysis of symmetry for dynamics (positions and initial velocities):
=====================================================================
 Subroutine PRICEL returns following result:
 
  LATTYP: Found a simple tetragonal cell.
 ALAT       =     2.7500493888
 C/A-ratio  =     1.2642089792
  
  Lattice vectors:
  
 A1 = (   2.7500493888,   0.0000000000,   0.0000000000)
 A2 = (   0.0000000000,   2.7500493888,   0.0000000000)
 A3 = (   0.0000000000,   0.0000000000,   3.4766371305)
 
  18 primitive cells build up your supercell.
 

 Routine SETGRP: Setting up the symmetry group for a 
 simple tetragonal supercell.


 Subroutine GETGRP returns: Found 16 space group operations
 (whereof 16 operations were pure point group operations)
 out of a pool of 16 trial point group operations.


The dynamic configuration has the point symmetry D_4h.


Analysis of structural, dynamic, and magnetic symmetry:
=====================================================================
 Subroutine PRICEL returns following result:
 
  LATTYP: Found a simple tetragonal cell.
 ALAT       =     2.7500493888
 C/A-ratio  =     1.2642089792
  
  Lattice vectors:
  
 A1 = (   2.7500493888,   0.0000000000,   0.0000000000)
 A2 = (   0.0000000000,   2.7500493888,   0.0000000000)
 A3 = (   0.0000000000,   0.0000000000,   3.4766371305)
 
  18 primitive cells build up your supercell.
 

 Routine SETGRP: Setting up the symmetry group for a 
 simple tetragonal supercell.


 Subroutine GETGRP returns: Found 16 space group operations
 (whereof 16 operations were pure point group operations)
 out of a pool of 16 trial point group operations.


The magnetic configuration has the point symmetry D_4h.


 Subroutine INISYM returns: Found 16 space group operations
 (whereof 16 operations are pure point group operations),
 and found    18 'primitive' translations

 
 
 KPOINTS: automatic KPOINTS                       

Automatic generation of k-mesh.
 generate k-points for:    5    5    6
Space group operators:
 irot       det(A)        alpha          n_x          n_y          n_z        tau_x        tau_y        tau_z
    1     1.000000     0.000001     1.000000     0.000000     0.000000     0.000000     0.000000     0.000000
    2    -1.000000     0.000001     1.000000     0.000000     0.000000     0.000000     0.000000     0.000000
    3     1.000000    90.000000     0.000000     0.000000    -1.000000     0.000000     0.000000     0.000000
    4    -1.000000    90.000000     0.000000     0.000000    -1.000000     0.000000     0.000000     0.000000
    5     1.000000   179.999999     0.000000     0.000000     1.000000     0.000000     0.000000     0.000000
    6    -1.000000   179.999999     0.000000     0.000000     1.000000     0.000000     0.000000     0.000000
    7     1.000000    90.000000     0.000000     0.000000     1.000000     0.000000     0.000000     0.000000
    8    -1.000000    90.000000     0.000000     0.000000     1.000000     0.000000     0.000000     0.000000
    9     1.000000   180.000000     0.000000     1.000000     0.000000     0.000000     0.000000     0.000000
   10    -1.000000   180.000000     0.000000     1.000000     0.000000     0.000000     0.000000     0.000000
   11     1.000000   180.000000     0.707107     0.707107     0.000000     0.000000     0.000000     0.000000
   12    -1.000000   180.000000     0.707107     0.707107     0.000000     0.000000     0.000000     0.000000
   13     1.000000   180.000000     1.000000     0.000000     0.000000     0.000000     0.000000     0.000000
   14    -1.000000   180.000000     1.000000     0.000000     0.000000     0.000000     0.000000     0.000000
   15     1.000000   180.000000     0.707107    -0.707107     0.000000     0.000000     0.000000     0.000000
   16    -1.000000   180.000000     0.707107    -0.707107     0.000000     0.000000     0.000000     0.000000
 
 Subroutine IBZKPT returns following result:
 ===========================================
 
 Found     24 irreducible k-points:
 
 Following reciprocal coordinates:
            Coordinates               Weight
  0.000000  0.000000  0.000000      1.000000
  0.200000  0.000000  0.000000      4.000000
  0.400000  0.000000  0.000000      4.000000
  0.200000  0.200000  0.000000      4.000000
  0.400000  0.200000  0.000000      8.000000
  0.400000  0.400000  0.000000      4.000000
  0.000000  0.000000  0.166667      2.000000
  0.200000  0.000000  0.166667      8.000000
  0.400000  0.000000  0.166667      8.000000
  0.200000  0.200000  0.166667      8.000000
  0.400000  0.200000  0.166667     16.000000
  0.400000  0.400000  0.166667      8.000000
  0.000000  0.000000  0.333333      2.000000
  0.200000  0.000000  0.333333      8.000000
  0.400000  0.000000  0.333333      8.000000
  0.200000  0.200000  0.333333      8.000000
  0.400000  0.200000  0.333333     16.000000
  0.400000  0.400000  0.333333      8.000000
  0.000000  0.000000  0.500000      1.000000
  0.200000  0.000000  0.500000      4.000000
  0.400000  0.000000  0.500000      4.000000
  0.200000  0.200000  0.500000      4.000000
  0.400000  0.200000  0.500000      8.000000
  0.400000  0.400000  0.500000      4.000000
 
 Following cartesian coordinates:
            Coordinates               Weight
  0.000000  0.000000  0.000000      1.000000
  0.024242  0.000000  0.000000      4.000000
  0.048484  0.000000  0.000000      4.000000
  0.024242  0.024242  0.000000      4.000000
  0.048484  0.024242  0.000000      8.000000
  0.048484  0.048484  0.000000      4.000000
  0.000000  0.000000  0.023970      2.000000
  0.024242  0.000000  0.023970      8.000000
  0.048484  0.000000  0.023970      8.000000
  0.024242  0.024242  0.023970      8.000000
  0.048484  0.024242  0.023970     16.000000
  0.048484  0.048484  0.023970      8.000000
  0.000000  0.000000  0.047939      2.000000
  0.024242  0.000000  0.047939      8.000000
  0.048484  0.000000  0.047939      8.000000
  0.024242  0.024242  0.047939      8.000000
  0.048484  0.024242  0.047939     16.000000
  0.048484  0.048484  0.047939      8.000000
  0.000000  0.000000  0.071909      1.000000
  0.024242  0.000000  0.071909      4.000000
  0.048484  0.000000  0.071909      4.000000
  0.024242  0.024242  0.071909      4.000000
  0.048484  0.024242  0.071909      8.000000
  0.048484  0.048484  0.071909      4.000000
 


--------------------------------------------------------------------------------------------------------




 Dimension of arrays:
   k-points           NKPTS =     24   k-points in BZ     NKDIM =     24   number of bands    NBANDS=    136
   number of dos      NEDOS =    301   number of ions     NIONS =     36
   non local maximal  LDIM  =      6   non local SUM 2l+1 LMDIM =     18
   total plane-waves  NPLWV = 139968
   max r-space proj   IRMAX =      1   max aug-charges    IRDMAX=  92271
   dimension x,y,z NGX =    54 NGY =   54 NGZ =   48
   dimension x,y,z NGXF=   108 NGYF=  108 NGZF=   96
   support grid    NGXF=   216 NGYF=  216 NGZF=  192
   ions per type =              18  18
   NGX,Y,Z   is equivalent  to a cutoff of  10.88, 10.88, 11.48 a.u.
   NGXF,Y,Z  is equivalent  to a cutoff of  21.76, 21.76, 22.95 a.u.

 SYSTEM =  AlMn_pv                                 
 POSCAR =  NewRef: 18, @ ['Mn', array([1.37502469, 

 Startparameter for this run:
   NWRITE =      2    write-flag & timer
   PREC   = accura    normal or accurate (medium, high low for compatibility)
   ISTART =      0    job   : 0-new  1-cont  2-samecut
   ICHARG =      2    charge: 1-file 2-atom 10-const
   ISPIN  =      2    spin polarized calculation?
   LNONCOLLINEAR =      F non collinear calculations
   LSORBIT =      F    spin-orbit coupling
   INIWAV =      1    electr: 0-lowe 1-rand  2-diag
   LASPH  =      F    aspherical Exc in radial PAW
   METAGGA=      F    non-selfconsistent MetaGGA calc.

 Electronic Relaxation 1
   ENCUT  =  404.8 eV  29.75 Ry    5.45 a.u.  13.53 13.53 11.41*2*pi/ulx,y,z
   ENINI  =  404.8     initial cutoff
   ENAUG  =  500.7 eV  augmentation charge cutoff
   NELM   =    100;   NELMIN=  4; NELMDL= -8     # of ELM steps 
   EDIFF  = 0.1E-06   stopping-criterion for ELM
   LREAL  =      F    real-space projection
   NLSPLINE    = F    spline interpolate recip. space projectors
   LCOMPAT=      F    compatible to vasp.4.4
   GGA_COMPAT  = T    GGA compatible to vasp.4.4-vasp.4.6
   LMAXPAW     = -100 max onsite density
   LMAXMIX     =    2 max onsite mixed and CHGCAR
   VOSKOWN=      0    Vosko Wilk Nusair interpolation
   ROPT   =    0.00000   0.00000
 Ionic relaxation
   EDIFFG = 0.1E-05   stopping-criterion for IOM
   NSW    =      0    number of steps for IOM
   NBLOCK =      1;   KBLOCK =      1    inner block; outer block 
   IBRION =     -1    ionic relax: 0-MD 1-quasi-New 2-CG
   NFREE  =      0    steps in history (QN), initial steepest desc. (CG)
   ISIF   =      2    stress and relaxation
   IWAVPR =     10    prediction:  0-non 1-charg 2-wave 3-comb
   ISYM   =      2    0-nonsym 1-usesym 2-fastsym
   LCORR  =      T    Harris-Foulkes like correction to forces

   POTIM  = 0.2000    time-step for ionic-motion
   TEIN   =    0.0    initial temperature
   TEBEG  =    0.0;   TEEND  =   0.0 temperature during run
   SMASS  =  -3.00    Nose mass-parameter (am)
   estimated Nose-frequenzy (Omega)   =  0.10E-29 period in steps =****** mass=  -0.156E-26a.u.
   SCALEE = 1.0000    scale energy and forces
   NPACO  =    256;   APACO  = 16.0  distance and # of slots for P.C.
   PSTRESS=    0.0 pullay stress

  Mass of Ions in am
   POMASS =  26.98 54.94
  Ionic Valenz
   ZVAL   =   3.00  7.00
  Atomic Wigner-Seitz radii
   RWIGS  =  -1.00 -1.00
  virtual crystal weights 
   VCA    =   1.00  1.00
   NELECT =     180.0000    total number of electrons
   NUPDOWN=      -1.0000    fix difference up-down

 DOS related values:
   EMIN   =  10.00;   EMAX   =-10.00  energy-range for DOS
   EFERMI =   0.00
   ISMEAR =     1;   SIGMA  =   0.20  broadening in eV -4-tet -1-fermi 0-gaus

 Electronic relaxation 2 (details)
   IALGO  =     58    algorithm
   LDIAG  =      T    sub-space diagonalisation (order eigenvalues)
   LSUBROT=      F    optimize rotation matrix (better conditioning)
   TURBO    =      0    0=normal 1=particle mesh
   IRESTART =      0    0=no restart 2=restart with 2 vectors
   NREBOOT  =      0    no. of reboots
   NMIN     =      0    reboot dimension
   EREF     =   0.00    reference energy to select bands
   IMIX   =      4    mixing-type and parameters
     AMIX     =   0.40;   BMIX     =  1.00
     AMIX_MAG =   1.60;   BMIX_MAG =  1.00
     AMIN     =   0.10
     WC   =   100.;   INIMIX=   1;  MIXPRE=   1;  MAXMIX= -45

 Intra band minimization:
   WEIMIN = 0.0000     energy-eigenvalue tresh-hold
   EBREAK =  0.18E-09  absolut break condition
   DEPER  =   0.30     relativ break condition  

   TIME   =   0.40     timestep for ELM

  volume/ion in A,a.u.               =      13.15        88.72
  Fermi-wavevector in a.u.,A,eV,Ry     =   1.186118  2.241439 19.141722  1.406877
  Thomas-Fermi vector in A             =   2.322298
 
 Write flags
   LWAVE        =      F    write WAVECAR
   LDOWNSAMPLE  =      F    k-point downsampling of WAVECAR
   LCHARG       =      F    write CHGCAR
   LVTOT        =      F    write LOCPOT, total local potential
   LVHAR        =      F    write LOCPOT, Hartree potential only
   LELF         =      F    write electronic localiz. function (ELF)
   LORBIT       =     10    0 simple, 1 ext, 2 COOP (PROOUT), +10 PAW based schemes


 Dipole corrections
   LMONO  =      F    monopole corrections only (constant potential shift)
   LDIPOL =      F    correct potential (dipole corrections)
   IDIPOL =      0    1-x, 2-y, 3-z, 4-all directions 
   EPSILON=  1.0000000 bulk dielectric constant

 Exchange correlation treatment:
   GGA     =    --    GGA type
   LEXCH   =     8    internal setting for exchange type
   VOSKOWN=      0    Vosko Wilk Nusair interpolation
   LHFCALC =     F    Hartree Fock is set to
   LHFONE  =     F    Hartree Fock one center treatment
   AEXX    =    0.0000 exact exchange contribution

 Linear response parameters
   LEPSILON=     F    determine dielectric tensor
   LRPA    =     F    only Hartree local field effects (RPA)
   LNABLA  =     F    use nabla operator in PAW spheres
   LVEL    =     F    velocity operator in full k-point grid
   LINTERFAST=   F  fast interpolation
   KINTER  =     0    interpolate to denser k-point grid
   CSHIFT  =0.1000    complex shift for real part using Kramers Kronig
   OMEGAMAX=  -1.0    maximum frequency
   DEG_THRESHOLD= 0.2000000E-02 threshold for treating states as degnerate
   RTIME   =   -0.100 relaxation time in fs
  (WPLASMAI=    0.000 imaginary part of plasma frequency in eV, 0.658/RTIME)
   DFIELD  = 0.0000000 0.0000000 0.0000000 field for delta impulse in time
 
 Orbital magnetization related:
   ORBITALMAG=     F  switch on orbital magnetization
   LCHIMAG   =     F  perturbation theory with respect to B field
   DQ        =  0.001000  dq finite difference perturbation B field
   LLRAUG    =     F  two centre corrections for induced B field



--------------------------------------------------------------------------------------------------------


 Static calculation
 charge density and potential will be updated during run
 spin polarized calculation
 Conjugate gradient for all bands (Freysoldt, et al. PRB 79, 241103 (2009))
 preconditioned conjugated gradient                                        
 perform sub-space diagonalisation
    before iterative eigenvector-optimisation
 modified Broyden-mixing scheme, WC =      100.0
 initial mixing is a Kerker type mixing with AMIX =  0.4000 and BMIX =      1.0000
 Hartree-type preconditioning will be used
 using additional bands           46
 reciprocal scheme for non local part
 use partial core corrections
 no Harris-corrections to forces 
 use gradient corrections 
 use of overlap-Matrix (Vanderbilt PP)
 Methfessel and Paxton  Order N= 1 SIGMA  =   0.20


--------------------------------------------------------------------------------------------------------


  energy-cutoff  :      404.80
  volume of cell :      473.27
      direct lattice vectors                 reciprocal lattice vectors
     8.250148166  0.000000000  0.000000000     0.121209944  0.000000000  0.000000000
     0.000000000  8.250148166  0.000000000     0.000000000  0.121209944  0.000000000
     0.000000000  0.000000000  6.953274261     0.000000000  0.000000000  0.143817137

  length of vectors
     8.250148166  8.250148166  6.953274261     0.121209944  0.121209944  0.143817137


 
 k-points in units of 2pi/SCALE and weight: automatic KPOINTS                       
   0.00000000  0.00000000  0.00000000       0.007
   0.02424199  0.00000000  0.00000000       0.027
   0.04848398  0.00000000  0.00000000       0.027
   0.02424199  0.02424199  0.00000000       0.027
   0.04848398  0.02424199  0.00000000       0.053
   0.04848398  0.04848398  0.00000000       0.027
   0.00000000  0.00000000  0.02396952       0.013
   0.02424199  0.00000000  0.02396952       0.053
   0.04848398  0.00000000  0.02396952       0.053
   0.02424199  0.02424199  0.02396952       0.053
   0.04848398  0.02424199  0.02396952       0.107
   0.04848398  0.04848398  0.02396952       0.053
   0.00000000  0.00000000  0.04793905       0.013
   0.02424199  0.00000000  0.04793905       0.053
   0.04848398  0.00000000  0.04793905       0.053
   0.02424199  0.02424199  0.04793905       0.053
   0.04848398  0.02424199  0.04793905       0.107
   0.04848398  0.04848398  0.04793905       0.053
   0.00000000  0.00000000  0.07190857       0.007
   0.02424199  0.00000000  0.07190857       0.027
   0.04848398  0.00000000  0.07190857       0.027
   0.02424199  0.02424199  0.07190857       0.027
   0.04848398  0.02424199  0.07190857       0.053
   0.04848398  0.04848398  0.07190857       0.027
 
 k-points in reciprocal lattice and weights: automatic KPOINTS                       
   0.00000000  0.00000000  0.00000000       0.007
   0.20000000  0.00000000  0.00000000       0.027
   0.40000000  0.00000000  0.00000000       0.027
   0.20000000  0.20000000  0.00000000       0.027
   0.40000000  0.20000000  0.00000000       0.053
   0.40000000  0.40000000  0.00000000       0.027
   0.00000000  0.00000000  0.16666667       0.013
   0.20000000  0.00000000  0.16666667       0.053
   0.40000000  0.00000000  0.16666667       0.053
   0.20000000  0.20000000  0.16666667       0.053
   0.40000000  0.20000000  0.16666667       0.107
   0.40000000  0.40000000  0.16666667       0.053
   0.00000000  0.00000000  0.33333333       0.013
   0.20000000  0.00000000  0.33333333       0.053
   0.40000000  0.00000000  0.33333333       0.053
   0.20000000  0.20000000  0.33333333       0.053
   0.40000000  0.20000000  0.33333333       0.107
   0.40000000  0.40000000  0.33333333       0.053
   0.00000000  0.00000000  0.50000000       0.007
   0.20000000  0.00000000  0.50000000       0.027
   0.40000000  0.00000000  0.50000000       0.027
   0.20000000  0.20000000  0.50000000       0.027
   0.40000000  0.20000000  0.50000000       0.053
   0.40000000  0.40000000  0.50000000       0.027
 
 position of ions in fractional coordinates (direct lattice) 
   0.00000000  0.00000000  0.00000000
   0.00000000  0.00000000  0.50000000
   0.00000000  0.33333333  0.00000000
   0.00000000  0.33333333  0.50000000
   0.00000000  0.66666667  0.00000000
   0.00000000  0.66666667  0.50000000
   0.33333333  0.00000000  0.00000000
   0.33333333  0.00000000  0.50000000
   0.33333333  0.33333333  0.00000000
   0.33333333  0.33333333  0.50000000
   0.33333333  0.66666667  0.00000000
   0.33333333  0.66666667  0.50000000
   0.66666667  0.00000000  0.00000000
   0.66666667  0.00000000  0.50000000
   0.66666667  0.33333333  0.00000000
   0.66666667  0.33333333  0.50000000
   0.66666667  0.66666667  0.00000000
   0.66666667  0.66666667  0.50000000
   0.16666667  0.16666667  0.25000000
   0.16666667  0.16666667  0.75000000
   0.16666667  0.50000000  0.25000000
   0.16666667  0.50000000  0.75000000
   0.16666667  0.83333333  0.25000000
   0.16666667  0.83333333  0.75000000
   0.50000000  0.16666667  0.25000000
   0.50000000  0.16666667  0.75000000
   0.50000000  0.50000000  0.25000000
   0.50000000  0.50000000  0.75000000
   0.50000000  0.83333333  0.25000000
   0.50000000  0.83333333  0.75000000
   0.83333333  0.16666667  0.25000000
   0.83333333  0.16666667  0.75000000
   0.83333333  0.50000000  0.25000000
   0.83333333  0.50000000  0.75000000
   0.83333333  0.83333333  0.25000000
   0.83333333  0.83333333  0.75000000
 
 position of ions in cartesian coordinates  (Angst):
   0.00000000  0.00000000  0.00000000
   0.00000000  0.00000000  3.47663713
   0.00000000  2.75004939  0.00000000
   0.00000000  2.75004939  3.47663713
   0.00000000  5.50009878  0.00000000
   0.00000000  5.50009878  3.47663713
   2.75004939  0.00000000  0.00000000
   2.75004939  0.00000000  3.47663713
   2.75004939  2.75004939  0.00000000
   2.75004939  2.75004939  3.47663713
   2.75004939  5.50009878  0.00000000
   2.75004939  5.50009878  3.47663713
   5.50009878  0.00000000  0.00000000
   5.50009878  0.00000000  3.47663713
   5.50009878  2.75004939  0.00000000
   5.50009878  2.75004939  3.47663713
   5.50009878  5.50009878  0.00000000
   5.50009878  5.50009878  3.47663713
   1.37502469  1.37502469  1.73831857
   1.37502469  1.37502469  5.21495570
   1.37502469  4.12507408  1.73831857
   1.37502469  4.12507408  5.21495570
   1.37502469  6.87512347  1.73831857
   1.37502469  6.87512347  5.21495570
   4.12507408  1.37502469  1.73831857
   4.12507408  1.37502469  5.21495570
   4.12507408  4.12507408  1.73831857
   4.12507408  4.12507408  5.21495570
   4.12507408  6.87512347  1.73831857
   4.12507408  6.87512347  5.21495570
   6.87512347  1.37502469  1.73831857
   6.87512347  1.37502469  5.21495570
   6.87512347  4.12507408  1.73831857
   6.87512347  4.12507408  5.21495570
   6.87512347  6.87512347  1.73831857
   6.87512347  6.87512347  5.21495570
 


--------------------------------------------------------------------------------------------------------


 k-point  1 :   0.0000 0.0000 0.0000  plane waves:    8799
 k-point  2 :   0.2000 0.0000 0.0000  plane waves:    8753
 k-point  3 :   0.4000 0.0000 0.0000  plane waves:    8757
 k-point  4 :   0.2000 0.2000 0.0000  plane waves:    8767
 k-point  5 :   0.4000 0.2000 0.0000  plane waves:    8761
 k-point  6 :   0.4000 0.4000 0.0000  plane waves:    8731
 k-point  7 :   0.0000 0.0000 0.1667  plane waves:    8763
 k-point  8 :   0.2000 0.0000 0.1667  plane waves:    8771
 k-point  9 :   0.4000 0.0000 0.1667  plane waves:    8747
 k-point 10 :   0.2000 0.2000 0.1667  plane waves:    8764
 k-point 11 :   0.4000 0.2000 0.1667  plane waves:    8768
 k-point 12 :   0.4000 0.4000 0.1667  plane waves:    8740
 k-point 13 :   0.0000 0.0000 0.3333  plane waves:    8743
 k-point 14 :   0.2000 0.0000 0.3333  plane waves:    8736
 k-point 15 :   0.4000 0.0000 0.3333  plane waves:    8753
 k-point 16 :   0.2000 0.2000 0.3333  plane waves:    8753
 k-point 17 :   0.4000 0.2000 0.3333  plane waves:    8743
 k-point 18 :   0.4000 0.4000 0.3333  plane waves:    8755
 k-point 19 :   0.0000 0.0000 0.5000  plane waves:    8742
 k-point 20 :   0.2000 0.0000 0.5000  plane waves:    8756
 k-point 21 :   0.4000 0.0000 0.5000  plane waves:    8744
 k-point 22 :   0.2000 0.2000 0.5000  plane waves:    8762
 k-point 23 :   0.4000 0.2000 0.5000  plane waves:    8732
 k-point 24 :   0.4000 0.4000 0.5000  plane waves:    8736

 maximum and minimum number of plane-waves per node :      2206     2165

 maximum number of plane-waves:      8799
 maximum index in each direction: 
   IXMAX=   13   IYMAX=   13   IZMAX=   11
   IXMIN=  -13   IYMIN=  -13   IZMIN=  -11


 parallel 3D FFT for wavefunctions:
    minimum data exchange during FFTs selected (reduces bandwidth)
 parallel 3D FFT for charge:
    minimum data exchange during FFTs selected (reduces bandwidth)


 total amount of memory used by VASP MPI-rank0   447986. kBytes
=======================================================================

   base      :      30000. kBytes
   nonl-proj :      16518. kBytes
   fftplans  :      21726. kBytes
   grid      :      14732. kBytes
   one-center:        279. kBytes
   wavefun   :     364731. kBytes
 
     INWAV:  cpu time    0.0001: real time    0.0001
 Broyden mixing: mesh for mixing (old mesh)
   NGX = 27   NGY = 27   NGZ = 23
  (NGX  =108   NGY  =108   NGZ  = 96)
  gives a total of  16767 points

 initial charge density was supplied:
 charge density of overlapping atoms calculated
 number of electron     180.0000000 magnetization      54.0000000
 keeping initial charge density in first step


--------------------------------------------------------------------------------------------------------


 Maximum index for augmentation-charges        11261 (set IRDMAX)


--------------------------------------------------------------------------------------------------------


 First call to EWALD:  gamma=   0.227
 Maximum number of real-space cells 3x 3x 3
 Maximum number of reciprocal cells 3x 3x 3

    FEWALD:  cpu time    0.0022: real time    0.0022


--------------------------------------- Iteration      1(   1)  ---------------------------------------


    POTLOK:  cpu time    0.2507: real time    0.2508
    SETDIJ:  cpu time    0.3199: real time    0.3200
    TRIAL :  cpu time   10.7038: real time   10.7613
    CORREC:  cpu time    0.0036: real time    0.0037
    --------------------------------------------
      LOOP:  cpu time   11.4037: real time   11.4672

 eigenvalue-minimisations  : 13056
 total energy-change (2. order) : 0.1309387E+04  (-0.6191996E+04)
 number of electron     180.0000000 magnetization      54.0000000
 augmentation part      180.0000000 magnetization      54.0000000

 Free energy of the ion-electron system (eV)
  ---------------------------------------------------
  alpha Z        PSCENC =       532.25742704
  Ewald energy   TEWEN  =     -8601.05107233
  -Hartree energ DENC   =     -1903.73857242
  -exchange      EXHF   =         0.00000000
  -V(xc)+E(xc)   XCENC  =      -663.64960893
  PAW double counting   =      8494.55058411    -7650.81563588
  entropy T*S    EENTRO =        -0.00239415
  eigenvalues    EBANDS =      2636.72025426
  atomic energy  EATOM  =      8465.11600846
  ---------------------------------------------------
  free energy    TOTEN  =      1309.38699016 eV

  energy without entropy =     1309.38938431  energy(sigma->0) =     1309.38778821


--------------------------------------------------------------------------------------------------------




--------------------------------------- Iteration      1(   2)  ---------------------------------------


    TRIAL :  cpu time   10.6873: real time   11.4467
    CORREC:  cpu time    0.0045: real time    0.0046
    --------------------------------------------
      LOOP:  cpu time   10.6928: real time   11.4545

 eigenvalue-minimisations  : 13056
 total energy-change (2. order) :-0.1417558E+04  (-0.1349113E+04)
 number of electron     180.0000000 magnetization      54.0000000
 augmentation part      180.0000000 magnetization      54.0000000

 Free energy of the ion-electron system (eV)
  ---------------------------------------------------
  alpha Z        PSCENC =       532.25742704
  Ewald energy   TEWEN  =     -8601.05107233
  -Hartree energ DENC   =     -1903.73857242
  -exchange      EXHF   =         0.00000000
  -V(xc)+E(xc)   XCENC  =      -663.64960893
  PAW double counting   =      8494.55058411    -7650.81563588
  entropy T*S    EENTRO =         0.00355979
  eigenvalues    EBANDS =      1219.15622101
  atomic energy  EATOM  =      8465.11600846
  ---------------------------------------------------
  free energy    TOTEN  =      -108.17108914 eV

  energy without entropy =     -108.17464893  energy(sigma->0) =     -108.17227574


--------------------------------------------------------------------------------------------------------




--------------------------------------- Iteration      1(   3)  ---------------------------------------


    TRIAL :  cpu time   14.2923: real time   14.4446
    CORREC:  cpu time    0.0050: real time    0.0059
    --------------------------------------------
      LOOP:  cpu time   14.2983: real time   14.4536

 eigenvalue-minimisations  : 18896
 total energy-change (2. order) :-0.1438550E+03  (-0.1196098E+03)
 number of electron     180.0000000 magnetization      54.0000000
 augmentation part      180.0000000 magnetization      54.0000000

 Free energy of the ion-electron system (eV)
  ---------------------------------------------------
  alpha Z        PSCENC =       532.25742704
  Ewald energy   TEWEN  =     -8601.05107233
  -Hartree energ DENC   =     -1903.73857242
  -exchange      EXHF   =         0.00000000
  -V(xc)+E(xc)   XCENC  =      -663.64960893
  PAW double counting   =      8494.55058411    -7650.81563588
  entropy T*S    EENTRO =         0.01714273
  eigenvalues    EBANDS =      1075.28763428
  atomic energy  EATOM  =      8465.11600846
  ---------------------------------------------------
  free energy    TOTEN  =      -252.02609293 eV

  energy without entropy =     -252.04323566  energy(sigma->0) =     -252.03180718


--------------------------------------------------------------------------------------------------------




--------------------------------------- Iteration      1(   4)  ---------------------------------------


    TRIAL :  cpu time   15.6186: real time   15.7242
    CORREC:  cpu time    0.0049: real time    0.0051
    --------------------------------------------
      LOOP:  cpu time   15.6243: real time   15.7325

 eigenvalue-minimisations  : 20952
 total energy-change (2. order) :-0.1619900E+02  (-0.1448192E+02)
 number of electron     180.0000000 magnetization      54.0000000
 augmentation part      180.0000000 magnetization      54.0000000

 Free energy of the ion-electron system (eV)
  ---------------------------------------------------
  alpha Z        PSCENC =       532.25742704
  Ewald energy   TEWEN  =     -8601.05107233
  -Hartree energ DENC   =     -1903.73857242
  -exchange      EXHF   =         0.00000000
  -V(xc)+E(xc)   XCENC  =      -663.64960893
  PAW double counting   =      8494.55058411    -7650.81563588
  entropy T*S    EENTRO =         0.06209883
  eigenvalues    EBANDS =      1059.04367849
  atomic energy  EATOM  =      8465.11600846
  ---------------------------------------------------
  free energy    TOTEN  =      -268.22509263 eV

  energy without entropy =     -268.28719146  energy(sigma->0) =     -268.24579224


--------------------------------------------------------------------------------------------------------




--------------------------------------- Iteration      1(   5)  ---------------------------------------


    TRIAL :  cpu time   15.3338: real time   15.3838
    CORREC:  cpu time    0.0050: real time    0.0051
    --------------------------------------------
      LOOP:  cpu time   15.3397: real time   15.3927

 eigenvalue-minimisations  : 20688
 total energy-change (2. order) :-0.6977737E+00  (-0.6889179E+00)
 number of electron     180.0000000 magnetization      54.0000000
 augmentation part      180.0000000 magnetization      54.0000000

 Free energy of the ion-electron system (eV)
  ---------------------------------------------------
  alpha Z        PSCENC =       532.25742704
  Ewald energy   TEWEN  =     -8601.05107233
  -Hartree energ DENC   =     -1903.73857242
  -exchange      EXHF   =         0.00000000
  -V(xc)+E(xc)   XCENC  =      -663.64960893
  PAW double counting   =      8494.55058411    -7650.81563588
  entropy T*S    EENTRO =         0.06199486
  eigenvalues    EBANDS =      1058.34600878
  atomic energy  EATOM  =      8465.11600846
  ---------------------------------------------------
  free energy    TOTEN  =      -268.92286631 eV

  energy without entropy =     -268.98486117  energy(sigma->0) =     -268.94353127


--------------------------------------------------------------------------------------------------------




--------------------------------------- Iteration      1(   6)  ---------------------------------------


    TRIAL :  cpu time   15.3256: real time   16.1402
    CORREC:  cpu time    0.0051: real time    0.0053
    --------------------------------------------
      LOOP:  cpu time   15.3316: real time   16.1488

 eigenvalue-minimisations  : 20792
 total energy-change (2. order) :-0.2086194E-01  (-0.2079822E-01)
 number of electron     180.0000000 magnetization      54.0000000
 augmentation part      180.0000000 magnetization      54.0000000

 Free energy of the ion-electron system (eV)
  ---------------------------------------------------
  alpha Z        PSCENC =       532.25742704
  Ewald energy   TEWEN  =     -8601.05107233
  -Hartree energ DENC   =     -1903.73857242
  -exchange      EXHF   =         0.00000000
  -V(xc)+E(xc)   XCENC  =      -663.64960893
  PAW double counting   =      8494.55058411    -7650.81563588
  entropy T*S    EENTRO =         0.06201431
  eigenvalues    EBANDS =      1058.32512738
  atomic energy  EATOM  =      8465.11600846
  ---------------------------------------------------
  free energy    TOTEN  =      -268.94372825 eV

  energy without entropy =     -269.00574256  energy(sigma->0) =     -268.96439969


--------------------------------------------------------------------------------------------------------




--------------------------------------- Iteration      1(   7)  ---------------------------------------


    TRIAL :  cpu time   15.4098: real time   15.5768
    CORREC:  cpu time    0.0052: real time    0.0061
    --------------------------------------------
      LOOP:  cpu time   15.4159: real time   15.5869

 eigenvalue-minimisations  : 20872
 total energy-change (2. order) :-0.9726639E-03  (-0.9710603E-03)
 number of electron     180.0000000 magnetization      54.0000000
 augmentation part      180.0000000 magnetization      54.0000000

 Free energy of the ion-electron system (eV)
  ---------------------------------------------------
  alpha Z        PSCENC =       532.25742704
  Ewald energy   TEWEN  =     -8601.05107233
  -Hartree energ DENC   =     -1903.73857242
  -exchange      EXHF   =         0.00000000
  -V(xc)+E(xc)   XCENC  =      -663.64960893
  PAW double counting   =      8494.55058411    -7650.81563588
  entropy T*S    EENTRO =         0.06201374
  eigenvalues    EBANDS =      1058.32415530
  atomic energy  EATOM  =      8465.11600846
  ---------------------------------------------------
  free energy    TOTEN  =      -268.94470091 eV

  energy without entropy =     -269.00671465  energy(sigma->0) =     -268.96537216


--------------------------------------------------------------------------------------------------------




--------------------------------------- Iteration      1(   8)  ---------------------------------------


    TRIAL :  cpu time   15.4445: real time   15.5773
    CORREC:  cpu time    0.0052: real time    0.0054
    CHARGE:  cpu time    0.9294: real time    0.9294
    --------------------------------------------
      LOOP:  cpu time   16.3802: real time   16.5163

 eigenvalue-minimisations  : 20800
 total energy-change (2. order) :-0.5653994E-04  (-0.5646616E-04)
 number of electron     179.9999998 magnetization      39.2014947
 augmentation part       42.9596658 magnetization      22.5381035

 Free energy of the ion-electron system (eV)
  ---------------------------------------------------
  alpha Z        PSCENC =       532.25742704
  Ewald energy   TEWEN  =     -8601.05107233
  -Hartree energ DENC   =     -1903.73857242
  -exchange      EXHF   =         0.00000000
  -V(xc)+E(xc)   XCENC  =      -663.64960893
  PAW double counting   =      8494.55058411    -7650.81563588
  entropy T*S    EENTRO =         0.06201380
  eigenvalues    EBANDS =      1058.32409869
  atomic energy  EATOM  =      8465.11600846
  ---------------------------------------------------
  free energy    TOTEN  =      -268.94475745 eV

  energy without entropy =     -269.00677126  energy(sigma->0) =     -268.96542872


--------------------------------------------------------------------------------------------------------




--------------------------------------- Iteration      1(   9)  ---------------------------------------


    POTLOK:  cpu time    0.2519: real time    0.2519
    SETDIJ:  cpu time    0.3223: real time    0.3223
    TRIAL :  cpu time    5.3938: real time    5.4246
    CORREC:  cpu time    2.5840: real time    2.5851
    CHARGE:  cpu time    0.9177: real time    0.9177
    --------------------------------------------
      LOOP:  cpu time    9.4976: real time    9.5296

 eigenvalue-minimisations  :     0
 total energy-change (2. order) : 0.1949180E+03  (-0.1427739E+03)
 number of electron     179.9999997 magnetization      41.4429535
 augmentation part       55.8186368 magnetization      27.6208073

 Free energy of the ion-electron system (eV)
  ---------------------------------------------------
  alpha Z        PSCENC =       532.25742704
  Ewald energy   TEWEN  =     -8601.05107233
  -Hartree energ DENC   =      -854.39320621
  -exchange      EXHF   =         0.00000000
  -V(xc)+E(xc)   XCENC  =      -694.46830247
  PAW double counting   =     12796.87915607   -11851.05755617
  entropy T*S    EENTRO =         0.02677826
  eigenvalues    EBANDS =       132.62881918
  atomic energy  EATOM  =      8465.11600846
  ---------------------------------------------------
  free energy    TOTEN  =       -74.02671264 eV

  energy without entropy =      -74.05349090  energy(sigma->0) =      -74.03563873


--------------------------------------------------------------------------------------------------------




--------------------------------------- Iteration      1(  10)  ---------------------------------------


    POTLOK:  cpu time    0.2473: real time    0.2473
    SETDIJ:  cpu time    0.3244: real time    0.3245
    TRIAL :  cpu time    5.3725: real time    5.3938
    CORREC:  cpu time    3.4794: real time    4.1441
    CHARGE:  cpu time    0.8984: real time    0.8984
    --------------------------------------------
      LOOP:  cpu time   10.3473: real time   11.0350

 eigenvalue-minimisations  :     0
 total energy-change (2. order) :-0.1414565E+03  (-0.1232694E+02)
 number of electron     179.9999997 magnetization      42.5657458
 augmentation part       59.2206777 magnetization      29.3185981

 Free energy of the ion-electron system (eV)
  ---------------------------------------------------
  alpha Z        PSCENC =       532.25742704
  Ewald energy   TEWEN  =     -8601.05107233
  -Hartree energ DENC   =     -1449.62557844
  -exchange      EXHF   =         0.00000000
  -V(xc)+E(xc)   XCENC  =      -672.90757293
  PAW double counting   =     13981.83010459   -13167.30471633
  entropy T*S    EENTRO =         0.03017198
  eigenvalues    EBANDS =       696.17538318
  atomic energy  EATOM  =      8465.11600846
  ---------------------------------------------------
  free energy    TOTEN  =      -215.48323851 eV

  energy without entropy =     -215.51341048  energy(sigma->0) =     -215.49329583


--------------------------------------------------------------------------------------------------------




--------------------------------------- Iteration      1(  11)  ---------------------------------------


    POTLOK:  cpu time    0.2804: real time    0.2804
    SETDIJ:  cpu time    0.3164: real time    0.3164
    TRIAL :  cpu time    5.4171: real time    5.4539
    CORREC:  cpu time    2.5717: real time    2.5802
    CHARGE:  cpu time    0.8992: real time    0.8997
    --------------------------------------------
      LOOP:  cpu time    9.4883: real time    9.5362

 eigenvalue-minimisations  :     0
 total energy-change (2. order) :-0.1231274E+02  (-0.8523756E+01)
 number of electron     179.9999997 magnetization      42.5626558
 augmentation part       57.8752417 magnetization      29.2082250

 Free energy of the ion-electron system (eV)
  ---------------------------------------------------
  alpha Z        PSCENC =       532.25742704
  Ewald energy   TEWEN  =     -8601.05107233
  -Hartree energ DENC   =     -1691.87899810
  -exchange      EXHF   =         0.00000000
  -V(xc)+E(xc)   XCENC  =      -664.38359126
  PAW double counting   =     14451.79949512   -13662.32309950
  entropy T*S    EENTRO =         0.02564792
  eigenvalues    EBANDS =       942.63768316
  atomic energy  EATOM  =      8465.11600846
  ---------------------------------------------------
  free energy    TOTEN  =      -227.79597544 eV

  energy without entropy =     -227.82162336  energy(sigma->0) =     -227.80452475


--------------------------------------------------------------------------------------------------------




--------------------------------------- Iteration      1(  12)  ---------------------------------------


    POTLOK:  cpu time    0.2479: real time    0.2478
    SETDIJ:  cpu time    0.3222: real time    0.3222
    TRIAL :  cpu time    5.3560: real time    5.4683
    CORREC:  cpu time    2.5961: real time    2.6547
    CHARGE:  cpu time    0.9180: real time    0.9316
    --------------------------------------------
      LOOP:  cpu time    9.4434: real time    9.6284

 eigenvalue-minimisations  :     0
 total energy-change (2. order) :-0.8555619E+01  (-0.9137865E+00)
 number of electron     179.9999997 magnetization      42.5017818
 augmentation part       57.1687473 magnetization      28.8802155

 Free energy of the ion-electron system (eV)
  ---------------------------------------------------
  alpha Z        PSCENC =       532.25742704
  Ewald energy   TEWEN  =     -8601.05107233
  -Hartree energ DENC   =     -1688.62979197
  -exchange      EXHF   =         0.00000000
  -V(xc)+E(xc)   XCENC  =      -665.79570540
  PAW double counting   =     13831.63031422   -13005.62137750
  entropy T*S    EENTRO =         0.02452089
  eigenvalues    EBANDS =       895.71695518
  atomic energy  EATOM  =      8465.11600846
  ---------------------------------------------------
  free energy    TOTEN  =      -236.35159437 eV

  energy without entropy =     -236.37611526  energy(sigma->0) =     -236.35976800


--------------------------------------------------------------------------------------------------------




--------------------------------------- Iteration      1(  13)  ---------------------------------------


    POTLOK:  cpu time    0.2439: real time    0.2496
    SETDIJ:  cpu time    0.3240: real time    0.3240
    TRIAL :  cpu time    5.3721: real time    5.4306
    CORREC:  cpu time    2.5408: real time    2.5420
    CHARGE:  cpu time    0.8976: real time    0.8976
    --------------------------------------------
      LOOP:  cpu time    9.3795: real time    9.4462

 eigenvalue-minimisations  :     0
 total energy-change (2. order) :-0.9132809E+00  (-0.8447347E+00)
 number of electron     179.9999996 magnetization      42.3943455
 augmentation part       57.8549371 magnetization      28.8554312

 Free energy of the ion-electron system (eV)
  ---------------------------------------------------
  alpha Z        PSCENC =       532.25742704
  Ewald energy   TEWEN  =     -8601.05107233
  -Hartree energ DENC   =     -1645.01085044
  -exchange      EXHF   =         0.00000000
  -V(xc)+E(xc)   XCENC  =      -667.46837295
  PAW double counting   =     13407.21969189   -12569.13560040
  entropy T*S    EENTRO =         0.02127669
  eigenvalues    EBANDS =       840.78337253
  atomic energy  EATOM  =      8465.11600846
  ---------------------------------------------------
  free energy    TOTEN  =      -237.26487531 eV

  energy without entropy =     -237.28615200  energy(sigma->0) =     -237.27196754


--------------------------------------------------------------------------------------------------------




--------------------------------------- Iteration      1(  14)  ---------------------------------------


    POTLOK:  cpu time    0.2724: real time    0.2723
    SETDIJ:  cpu time    0.3178: real time    0.3178
    TRIAL :  cpu time    5.4007: real time    5.4593
    CORREC:  cpu time    2.6489: real time    2.6607
    CHARGE:  cpu time    0.8975: real time    0.9119
    --------------------------------------------
      LOOP:  cpu time    9.5597: real time    9.6459

 eigenvalue-minimisations  :     0
 total energy-change (2. order) :-0.8447126E+00  (-0.1884220E+00)
 number of electron     179.9999996 magnetization      42.2952973
 augmentation part       58.2790524 magnetization      29.0900784

 Free energy of the ion-electron system (eV)
  ---------------------------------------------------
  alpha Z        PSCENC =       532.25742704
  Ewald energy   TEWEN  =     -8601.05107233
  -Hartree energ DENC   =     -1663.80851403
  -exchange      EXHF   =         0.00000000
  -V(xc)+E(xc)   XCENC  =      -666.66228640
  PAW double counting   =     12995.86353227   -12161.70857492
  entropy T*S    EENTRO =         0.01874926
  eigenvalues    EBANDS =       861.86261531
  atomic energy  EATOM  =      8465.11600846
  ---------------------------------------------------
  free energy    TOTEN  =      -238.10958792 eV

  energy without entropy =     -238.12833718  energy(sigma->0) =     -238.11583768


--------------------------------------------------------------------------------------------------------




--------------------------------------- Iteration      1(  15)  ---------------------------------------


    POTLOK:  cpu time    0.2471: real time    0.2471
    SETDIJ:  cpu time    0.3561: real time    0.3561
    TRIAL :  cpu time    5.3432: real time    5.3528
    CORREC:  cpu time    2.5335: real time    2.5547
    CHARGE:  cpu time    0.9709: real time    0.9709
    --------------------------------------------
      LOOP:  cpu time    9.4555: real time    9.4875

 eigenvalue-minimisations  :     0
 total energy-change (2. order) :-0.1884350E+00  (-0.1462530E+00)
 number of electron     179.9999996 magnetization      42.1490845
 augmentation part       58.0776174 magnetization      29.2438498

 Free energy of the ion-electron system (eV)
  ---------------------------------------------------
  alpha Z        PSCENC =       532.25742704
  Ewald energy   TEWEN  =     -8601.05107233
  -Hartree energ DENC   =     -1682.92303441
  -exchange      EXHF   =         0.00000000
  -V(xc)+E(xc)   XCENC  =      -665.73016574
  PAW double counting   =     13001.01306111   -12171.23816539
  entropy T*S    EENTRO =         0.01578522
  eigenvalues    EBANDS =       884.23916905
  atomic energy  EATOM  =      8465.11600846
  ---------------------------------------------------
  free energy    TOTEN  =      -238.29802295 eV

  energy without entropy =     -238.31380817  energy(sigma->0) =     -238.30328469


--------------------------------------------------------------------------------------------------------




--------------------------------------- Iteration      1(  16)  ---------------------------------------


    POTLOK:  cpu time    0.2474: real time    0.2474
    SETDIJ:  cpu time    0.3193: real time    0.3193
    TRIAL :  cpu time    5.3779: real time    5.3937
    CORREC:  cpu time    2.5730: real time    2.5741
    CHARGE:  cpu time    0.8990: real time    0.9171
    --------------------------------------------
      LOOP:  cpu time    9.4208: real time    9.4574

 eigenvalue-minimisations  :     0
 total energy-change (2. order) :-0.1462433E+00  (-0.4354650E-01)
 number of electron     179.9999996 magnetization      42.0546363
 augmentation part       57.8843708 magnetization      29.2569732

 Free energy of the ion-electron system (eV)
  ---------------------------------------------------
  alpha Z        PSCENC =       532.25742704
  Ewald energy   TEWEN  =     -8601.05107233
  -Hartree energ DENC   =     -1671.46332345
  -exchange      EXHF   =         0.00000000
  -V(xc)+E(xc)   XCENC  =      -665.88443636
  PAW double counting   =     13013.35383401   -12181.13574673
  entropy T*S    EENTRO =         0.01440071
  eigenvalues    EBANDS =       870.34725794
  atomic energy  EATOM  =      8465.11600846
  ---------------------------------------------------
  free energy    TOTEN  =      -238.44426621 eV

  energy without entropy =     -238.45866691  energy(sigma->0) =     -238.44906644


--------------------------------------------------------------------------------------------------------




--------------------------------------- Iteration      1(  17)  ---------------------------------------


    POTLOK:  cpu time    0.8553: real time    0.8557
    SETDIJ:  cpu time    0.4601: real time    0.4600
    TRIAL :  cpu time    5.3752: real time    5.3991
    CORREC:  cpu time    2.5801: real time    2.5979
    CHARGE:  cpu time    0.9042: real time    0.9042
    --------------------------------------------
      LOOP:  cpu time   10.3469: real time   10.4917

 eigenvalue-minimisations  :     0
 total energy-change (2. order) :-0.4354985E-01  (-0.3313167E-01)
 number of electron     179.9999996 magnetization      41.9599900
 augmentation part       57.9800297 magnetization      29.3145571

 Free energy of the ion-electron system (eV)
  ---------------------------------------------------
  alpha Z        PSCENC =       532.25742704
  Ewald energy   TEWEN  =     -8601.05107233
  -Hartree energ DENC   =     -1662.80576027
  -exchange      EXHF   =         0.00000000
  -V(xc)+E(xc)   XCENC  =      -666.12256495
  PAW double counting   =     13001.16546123   -12167.05138343
  entropy T*S    EENTRO =         0.01344917
  eigenvalues    EBANDS =       859.98966749
  atomic energy  EATOM  =      8465.11600846
  ---------------------------------------------------
  free energy    TOTEN  =      -238.48781605 eV

  energy without entropy =     -238.50126522  energy(sigma->0) =     -238.49229911


--------------------------------------------------------------------------------------------------------




--------------------------------------- Iteration      1(  18)  ---------------------------------------


    POTLOK:  cpu time    0.2487: real time    0.2487
    SETDIJ:  cpu time    0.3487: real time    0.3487
    TRIAL :  cpu time    5.3345: real time    5.4471
    CORREC:  cpu time    2.5311: real time    2.5321
    CHARGE:  cpu time    0.9734: real time    0.9734
    --------------------------------------------
      LOOP:  cpu time    9.4395: real time    9.5556

 eigenvalue-minimisations  :     0
 total energy-change (2. order) :-0.3313941E-01  (-0.6631783E-02)
 number of electron     179.9999996 magnetization      41.9299695
 augmentation part       58.0472795 magnetization      29.3337367

 Free energy of the ion-electron system (eV)
  ---------------------------------------------------
  alpha Z        PSCENC =       532.25742704
  Ewald energy   TEWEN  =     -8601.05107233
  -Hartree energ DENC   =     -1669.58131675
  -exchange      EXHF   =         0.00000000
  -V(xc)+E(xc)   XCENC  =      -665.81591548
  PAW double counting   =     13006.75031404   -12174.13534562
  entropy T*S    EENTRO =         0.01332385
  eigenvalues    EBANDS =       867.92549601
  atomic energy  EATOM  =      8465.11600846
  ---------------------------------------------------
  free energy    TOTEN  =      -238.52095547 eV

  energy without entropy =     -238.53427931  energy(sigma->0) =     -238.52539675


--------------------------------------------------------------------------------------------------------




--------------------------------------- Iteration      1(  19)  ---------------------------------------


    POTLOK:  cpu time    0.2856: real time    0.2859
    SETDIJ:  cpu time    0.3503: real time    0.3503
    TRIAL :  cpu time    5.4106: real time    5.4216
    CORREC:  cpu time    2.5344: real time    2.5886
    CHARGE:  cpu time    0.8977: real time    0.8977
    --------------------------------------------
      LOOP:  cpu time    9.4847: real time    9.5502

 eigenvalue-minimisations  :     0
 total energy-change (2. order) :-0.6628154E-02  (-0.5789868E-02)
 number of electron     179.9999996 magnetization      41.8982578
 augmentation part       58.0017120 magnetization      29.3350813

 Free energy of the ion-electron system (eV)
  ---------------------------------------------------
  alpha Z        PSCENC =       532.25742704
  Ewald energy   TEWEN  =     -8601.05107233
  -Hartree energ DENC   =     -1673.25395019
  -exchange      EXHF   =         0.00000000
  -V(xc)+E(xc)   XCENC  =      -665.66172758
  PAW double counting   =     13000.60724619   -12168.83252132
  entropy T*S    EENTRO =         0.01330143
  eigenvalues    EBANDS =       872.27768227
  atomic energy  EATOM  =      8465.11600846
  ---------------------------------------------------
  free energy    TOTEN  =      -238.52758362 eV

  energy without entropy =     -238.54088505  energy(sigma->0) =     -238.53201743


--------------------------------------------------------------------------------------------------------




--------------------------------------- Iteration      1(  20)  ---------------------------------------


    POTLOK:  cpu time    0.2468: real time    0.2468
    SETDIJ:  cpu time    0.3292: real time    0.3292
    TRIAL :  cpu time    5.3951: real time    5.4887
    CORREC:  cpu time    2.5290: real time    2.5301
    CHARGE:  cpu time    0.9420: real time    0.9510
    --------------------------------------------
      LOOP:  cpu time    9.4475: real time    9.5518

 eigenvalue-minimisations  :     0
 total energy-change (2. order) :-0.5788543E-02  (-0.2322195E-02)
 number of electron     179.9999996 magnetization      41.8861477
 augmentation part       57.9714978 magnetization      29.3666160

 Free energy of the ion-electron system (eV)
  ---------------------------------------------------
  alpha Z        PSCENC =       532.25742704
  Ewald energy   TEWEN  =     -8601.05107233
  -Hartree energ DENC   =     -1670.63320240
  -exchange      EXHF   =         0.00000000
  -V(xc)+E(xc)   XCENC  =      -665.72222774
  PAW double counting   =     12982.17913088   -12149.90301825
  entropy T*S    EENTRO =         0.01337768
  eigenvalues    EBANDS =       869.21028075
  atomic energy  EATOM  =      8465.11600846
  ---------------------------------------------------
  free energy    TOTEN  =      -238.53337216 eV

  energy without entropy =     -238.54674984  energy(sigma->0) =     -238.53783139


--------------------------------------------------------------------------------------------------------




--------------------------------------- Iteration      1(  21)  ---------------------------------------


    POTLOK:  cpu time    0.2471: real time    0.2471
    SETDIJ:  cpu time    0.3681: real time    0.3681
    TRIAL :  cpu time    5.4237: real time    5.4479
    CORREC:  cpu time    2.5349: real time    2.5639
    CHARGE:  cpu time    0.8911: real time    0.8910
    --------------------------------------------
      LOOP:  cpu time    9.4710: real time    9.5251

 eigenvalue-minimisations  :     0
 total energy-change (2. order) :-0.2318066E-02  (-0.1079695E-02)
 number of electron     179.9999996 magnetization      41.8829324
 augmentation part       57.9990415 magnetization      29.4023131

 Free energy of the ion-electron system (eV)
  ---------------------------------------------------
  alpha Z        PSCENC =       532.25742704
  Ewald energy   TEWEN  =     -8601.05107233
  -Hartree energ DENC   =     -1668.63706345
  -exchange      EXHF   =         0.00000000
  -V(xc)+E(xc)   XCENC  =      -665.73601053
  PAW double counting   =     12978.00768111   -12145.37679302
  entropy T*S    EENTRO =         0.01347367
  eigenvalues    EBANDS =       866.87075481
  atomic energy  EATOM  =      8465.11600846
  ---------------------------------------------------
  free energy    TOTEN  =      -238.53569023 eV

  energy without entropy =     -238.54916390  energy(sigma->0) =     -238.54018145


--------------------------------------------------------------------------------------------------------




--------------------------------------- Iteration      1(  22)  ---------------------------------------


    POTLOK:  cpu time    0.2478: real time    0.2477
    SETDIJ:  cpu time    0.3285: real time    0.3285
    TRIAL :  cpu time    5.3382: real time    5.3394
    CORREC:  cpu time    2.5224: real time    2.5509
    CHARGE:  cpu time    0.8989: real time    0.8989
    --------------------------------------------
      LOOP:  cpu time    9.3623: real time    9.3927

 eigenvalue-minimisations  :     0
 total energy-change (2. order) :-0.1080250E-02  (-0.3748350E-03)
 number of electron     179.9999996 magnetization      41.8884373
 augmentation part       58.0123017 magnetization      29.4224546

 Free energy of the ion-electron system (eV)
  ---------------------------------------------------
  alpha Z        PSCENC =       532.25742704
  Ewald energy   TEWEN  =     -8601.05107233
  -Hartree energ DENC   =     -1669.90717623
  -exchange      EXHF   =         0.00000000
  -V(xc)+E(xc)   XCENC  =      -665.64780240
  PAW double counting   =     12981.43720458   -12149.12653397
  entropy T*S    EENTRO =         0.01361267
  eigenvalues    EBANDS =       868.37170070
  atomic energy  EATOM  =      8465.11600846
  ---------------------------------------------------
  free energy    TOTEN  =      -238.53677048 eV

  energy without entropy =     -238.55038315  energy(sigma->0) =     -238.54130804


--------------------------------------------------------------------------------------------------------




--------------------------------------- Iteration      1(  23)  ---------------------------------------


    POTLOK:  cpu time    0.2480: real time    0.2480
    SETDIJ:  cpu time    0.3227: real time    0.3227
    TRIAL :  cpu time    5.3499: real time    6.0818
    CORREC:  cpu time    2.5844: real time    2.6116
    CHARGE:  cpu time    0.8967: real time    0.8967
    --------------------------------------------
      LOOP:  cpu time    9.4320: real time   10.1915

 eigenvalue-minimisations  :     0
 total energy-change (2. order) :-0.3745942E-03  (-0.2394550E-03)
 number of electron     179.9999996 magnetization      41.8953194
 augmentation part       57.9996668 magnetization      29.4303525

 Free energy of the ion-electron system (eV)
  ---------------------------------------------------
  alpha Z        PSCENC =       532.25742704
  Ewald energy   TEWEN  =     -8601.05107233
  -Hartree energ DENC   =     -1670.69650739
  -exchange      EXHF   =         0.00000000
  -V(xc)+E(xc)   XCENC  =      -665.59657799
  PAW double counting   =     12983.62691652   -12151.48917101
  entropy T*S    EENTRO =         0.01373754
  eigenvalues    EBANDS =       869.28221897
  atomic energy  EATOM  =      8465.11600846
  ---------------------------------------------------
  free energy    TOTEN  =      -238.53714507 eV

  energy without entropy =     -238.55088262  energy(sigma->0) =     -238.54172426


--------------------------------------------------------------------------------------------------------




--------------------------------------- Iteration      1(  24)  ---------------------------------------


    POTLOK:  cpu time    0.2476: real time    0.2476
    SETDIJ:  cpu time    0.3744: real time    0.3744
    TRIAL :  cpu time    5.3551: real time    5.4111
    CORREC:  cpu time    2.5325: real time    2.5850
    CHARGE:  cpu time    0.9309: real time    0.9311
    --------------------------------------------
      LOOP:  cpu time    9.4454: real time    9.5587

 eigenvalue-minimisations  :     0
 total energy-change (2. order) :-0.2397165E-03  (-0.8290116E-04)
 number of electron     179.9999996 magnetization      41.9033106
 augmentation part       57.9939720 magnetization      29.4323247

 Free energy of the ion-electron system (eV)
  ---------------------------------------------------
  alpha Z        PSCENC =       532.25742704
  Ewald energy   TEWEN  =     -8601.05107233
  -Hartree energ DENC   =     -1670.11490314
  -exchange      EXHF   =         0.00000000
  -V(xc)+E(xc)   XCENC  =      -665.60296858
  PAW double counting   =     12983.12418875   -12150.85843817
  entropy T*S    EENTRO =         0.01383099
  eigenvalues    EBANDS =       868.57863564
  atomic energy  EATOM  =      8465.11600846
  ---------------------------------------------------
  free energy    TOTEN  =      -238.53738479 eV

  energy without entropy =     -238.55121578  energy(sigma->0) =     -238.54199512


--------------------------------------------------------------------------------------------------------




--------------------------------------- Iteration      1(  25)  ---------------------------------------


    POTLOK:  cpu time    0.2480: real time    0.2481
    SETDIJ:  cpu time    0.3219: real time    0.3220
    TRIAL :  cpu time    5.3672: real time    5.4542
    CORREC:  cpu time    2.5724: real time    2.5986
    CHARGE:  cpu time    0.8508: real time    0.9380
    --------------------------------------------
      LOOP:  cpu time    9.3635: real time    9.5662

 eigenvalue-minimisations  :     0
 total energy-change (2. order) :-0.8252658E-04  (-0.3509363E-04)
 number of electron     179.9999996 magnetization      41.9090726
 augmentation part       57.9990169 magnetization      29.4363728

 Free energy of the ion-electron system (eV)
  ---------------------------------------------------
  alpha Z        PSCENC =       532.25742704
  Ewald energy   TEWEN  =     -8601.05107233
  -Hartree energ DENC   =     -1669.82225956
  -exchange      EXHF   =         0.00000000
  -V(xc)+E(xc)   XCENC  =      -665.60683046
  PAW double counting   =     12982.82999471   -12150.50698643
  entropy T*S    EENTRO =         0.01389056
  eigenvalues    EBANDS =       868.23242026
  atomic energy  EATOM  =      8465.11600846
  ---------------------------------------------------
  free energy    TOTEN  =      -238.53746732 eV

  energy without entropy =     -238.55135788  energy(sigma->0) =     -238.54209750


--------------------------------------------------------------------------------------------------------




--------------------------------------- Iteration      1(  26)  ---------------------------------------


    POTLOK:  cpu time    0.2480: real time    0.2480
    SETDIJ:  cpu time    0.3216: real time    0.3216
    TRIAL :  cpu time    5.3232: real time    5.3328
    CORREC:  cpu time    2.5782: real time    2.6838
    CHARGE:  cpu time    0.9006: real time    0.9006
    --------------------------------------------
      LOOP:  cpu time    9.3729: real time    9.4888

 eigenvalue-minimisations  :     0
 total energy-change (2. order) :-0.3502792E-04  (-0.2395058E-04)
 number of electron     179.9999996 magnetization      41.9177080
 augmentation part       58.0018780 magnetization      29.4432769

 Free energy of the ion-electron system (eV)
  ---------------------------------------------------
  alpha Z        PSCENC =       532.25742704
  Ewald energy   TEWEN  =     -8601.05107233
  -Hartree energ DENC   =     -1670.07748140
  -exchange      EXHF   =         0.00000000
[...]
  8.443  14.387   0.000  -0.000   0.000   0.000  -0.000   0.000
 14.387  24.519   0.000  -0.000   0.000   0.000  -0.000   0.000
  0.000   0.000   1.997  -0.000  -0.000   5.751  -0.000  -0.000
 -0.000  -0.000  -0.000   1.996  -0.000  -0.000   5.750  -0.000
  0.000   0.000  -0.000  -0.000   1.997  -0.000  -0.000   5.751
  0.000   0.000   5.751  -0.000  -0.000  16.483  -0.000  -0.000
 -0.000  -0.000  -0.000   5.750  -0.000  -0.000  16.479  -0.000
  0.000   0.000  -0.000  -0.000   5.751  -0.000  -0.000  16.483
 total augmentation occupancy for first ion, spin component:           1
  4.362  -1.244   0.000   0.000   0.000   0.000   0.000   0.000
 -1.244   0.372   0.000   0.000   0.000   0.000   0.000   0.000
  0.000   0.000   1.408   0.000   0.000  -0.100   0.000   0.000
  0.000   0.000   0.000   1.511   0.000   0.000  -0.102   0.000
  0.000   0.000   0.000   0.000   1.408   0.000   0.000  -0.100
  0.000   0.000  -0.100  -0.000   0.000   0.007  -0.000   0.000
  0.000   0.000   0.000  -0.102  -0.000   0.000   0.007   0.000
  0.000   0.000   0.000   0.000  -0.100   0.000   0.000   0.007
 total augmentation occupancy for first ion, spin component:           2
 -0.247   0.074   0.000   0.000   0.000   0.000   0.000   0.000
  0.074  -0.023   0.000   0.000   0.000   0.000   0.000   0.000
  0.000   0.000  -0.091  -0.000  -0.000   0.005   0.000  -0.000
  0.000   0.000   0.000  -0.152  -0.000  -0.000   0.007  -0.000
  0.000   0.000  -0.000  -0.000  -0.091  -0.000   0.000   0.005
  0.000   0.000   0.005   0.000  -0.000  -0.000   0.000  -0.000
  0.000   0.000   0.000   0.007   0.000  -0.000  -0.000   0.000
  0.000   0.000   0.000   0.000   0.005   0.000   0.000  -0.000


------------------------ aborting loop because EDIFF is reached ----------------------------------------


 


 total charge     
 
# of ion       s       p       d       tot
------------------------------------------
    1        0.404   0.428   0.000   0.831
    2        0.404   0.428   0.000   0.831
    3        0.404   0.428   0.000   0.831
    4        0.404   0.428   0.000   0.831
    5        0.404   0.428   0.000   0.831
    6        0.404   0.428   0.000   0.831
    7        0.404   0.428   0.000   0.831
    8        0.404   0.428   0.000   0.831
    9        0.404   0.428   0.000   0.831
   10        0.404   0.428   0.000   0.831
   11        0.404   0.428   0.000   0.831
   12        0.404   0.428   0.000   0.831
   13        0.404   0.428   0.000   0.831
   14        0.404   0.428   0.000   0.831
   15        0.404   0.428   0.000   0.831
   16        0.404   0.428   0.000   0.831
   17        0.404   0.428   0.000   0.831
   18        0.404   0.428   0.000   0.831
   19        0.332   0.349   5.142   5.824
   20        0.332   0.349   5.142   5.824
   21        0.332   0.349   5.142   5.824
   22        0.332   0.349   5.142   5.824
   23        0.332   0.349   5.142   5.824
   24        0.332   0.349   5.142   5.824
   25        0.332   0.349   5.142   5.824
   26        0.332   0.349   5.142   5.824
   27        0.332   0.349   5.142   5.824
   28        0.332   0.349   5.142   5.824
   29        0.332   0.349   5.142   5.824
   30        0.332   0.349   5.142   5.824
   31        0.332   0.349   5.142   5.824
   32        0.332   0.349   5.142   5.824
   33        0.332   0.349   5.142   5.824
   34        0.332   0.349   5.142   5.824
   35        0.332   0.349   5.142   5.824
   36        0.332   0.349   5.142   5.824
--------------------------------------------------
tot         13.253  13.987  92.553 119.793
 


 magnetization (x)
 
# of ion       s       p       d       tot
------------------------------------------
    1       -0.021  -0.036   0.000  -0.057
    2       -0.021  -0.036   0.000  -0.057
    3       -0.021  -0.036   0.000  -0.057
    4       -0.021  -0.036   0.000  -0.057
    5       -0.021  -0.036   0.000  -0.057
    6       -0.021  -0.036   0.000  -0.057
    7       -0.021  -0.036   0.000  -0.057
    8       -0.021  -0.036   0.000  -0.057
    9       -0.021  -0.036   0.000  -0.057
   10       -0.021  -0.036   0.000  -0.057
   11       -0.021  -0.036   0.000  -0.057
   12       -0.021  -0.036   0.000  -0.057
   13       -0.021  -0.036   0.000  -0.057
   14       -0.021  -0.036   0.000  -0.057
   15       -0.021  -0.036   0.000  -0.057
   16       -0.021  -0.036   0.000  -0.057
   17       -0.021  -0.036   0.000  -0.057
   18       -0.021  -0.036   0.000  -0.057
   19        0.018   0.021   2.308   2.346
   20        0.018   0.021   2.308   2.346
   21        0.018   0.021   2.308   2.346
   22        0.018   0.021   2.308   2.346
   23        0.018   0.021   2.308   2.346
   24        0.018   0.021   2.308   2.346
   25        0.018   0.021   2.308   2.346
   26        0.018   0.021   2.308   2.346
   27        0.018   0.021   2.308   2.346
   28        0.018   0.021   2.308   2.346
   29        0.018   0.021   2.308   2.346
   30        0.018   0.021   2.308   2.346
   31        0.018   0.021   2.308   2.346
   32        0.018   0.021   2.308   2.346
   33        0.018   0.021   2.308   2.346
   34        0.018   0.021   2.308   2.346
   35        0.018   0.021   2.308   2.346
   36        0.018   0.021   2.308   2.346
--------------------------------------------------
tot         -0.055  -0.274  41.539  41.210
 
    FORLOC:  cpu time    0.0289: real time    0.0289
    FORNL :  cpu time    8.2103: real time    8.2784
    STRESS:  cpu time   12.7208: real time   12.8272
    FORCOR:  cpu time    0.2694: real time    0.2694
    OFIELD:  cpu time    0.0016: real time    0.0016

  FORCE on cell =-STRESS in cart. coord.  units (eV):
  Direction    XX          YY          ZZ          XY          YZ          ZX
  --------------------------------------------------------------------------------------
  Alpha Z   532.25743   532.25743   532.25743
  Ewald   -2702.40749 -2702.40749 -3196.26924    -0.00000    -0.00000    -0.00000
  Hartree   723.34843   723.34843   223.34965    -0.00000    -0.00000    -0.00000
  E(xc)    -760.71358  -760.71358  -759.87091    -0.00000    -0.00000     0.00000
  Local     247.58994   247.58994  1267.18955     0.00000    -0.00000    -0.00000
  n-local  -118.85721  -117.03258  -120.66523    -0.43063    -0.54756    -1.06726
  augment   522.30487   522.30487   512.18331     0.00000     0.00001     0.00001
  Kinetic  1551.37685  1562.11863  1542.91404     0.13412     2.79458     3.25368
  Fock        0.00000     0.00000     0.00000     0.00000     0.00000     0.00000
  -------------------------------------------------------------------------------------
  Total       1.18244     1.18244     1.08859     0.00000    -0.00000     0.00000
  in kB       4.00293     4.00293     3.68520     0.00000    -0.00000     0.00000
  external pressure =        3.90 kB  Pullay stress =        0.00 kB


 VOLUME and BASIS-vectors are now :
 -----------------------------------------------------------------------------
  energy-cutoff  :      404.80
  volume of cell :      473.27
      direct lattice vectors                 reciprocal lattice vectors
     8.250148166  0.000000000  0.000000000     0.121209944  0.000000000  0.000000000
     0.000000000  8.250148166  0.000000000     0.000000000  0.121209944  0.000000000
     0.000000000  0.000000000  6.953274261     0.000000000  0.000000000  0.143817137

  length of vectors
     8.250148166  8.250148166  6.953274261     0.121209944  0.121209944  0.143817137


 FORCES acting on ions:
    Electron-Ion                     Ewald-Force                    Non-Local-Force
 -----------------------------------------------------------------------------------------------
   -.254E-10 -.254E-10 -.191E-08   -.239E-08 -.239E-08 0.411E-08   0.336E-24 0.145E-23 0.000E+00
   -.254E-10 -.254E-10 -.191E-08   -.239E-08 -.239E-08 0.411E-08   -.827E-24 -.207E-23 -.620E-24
   -.254E-10 -.623E-09 -.191E-08   -.239E-08 -.802E-09 0.411E-08   0.124E-23 -.227E-23 0.124E-23
   -.254E-10 -.623E-09 -.191E-08   -.239E-08 -.802E-09 0.411E-08   -.124E-23 0.827E-24 -.124E-23
   -.254E-10 -.379E-08 -.191E-08   -.239E-08 0.631E-08 0.411E-08   -.284E-23 -.207E-23 0.207E-23
   -.254E-10 -.379E-08 -.191E-08   -.239E-08 0.631E-08 0.411E-08   0.176E-23 -.931E-24 0.103E-23
   -.623E-09 -.254E-10 -.191E-08   -.802E-09 -.239E-08 0.411E-08   -.414E-24 -.207E-24 0.827E-24
   -.623E-09 -.254E-10 -.191E-08   -.802E-09 -.239E-08 0.411E-08   -.207E-23 0.165E-23 -.310E-24
   -.623E-09 -.623E-09 -.191E-08   -.802E-09 -.802E-09 0.411E-08   -.265E-23 -.207E-24 0.150E-23
   -.623E-09 -.623E-09 -.191E-08   -.802E-09 -.802E-09 0.411E-08   -.414E-24 0.134E-23 0.879E-24
   -.623E-09 -.379E-08 -.191E-08   -.802E-09 0.631E-08 0.411E-08   -.207E-24 -.620E-24 -.724E-24
   -.623E-09 -.379E-08 -.191E-08   -.802E-09 0.631E-08 0.411E-08   -.517E-24 0.827E-24 -.517E-25
   -.379E-08 -.254E-10 -.191E-08   0.631E-08 -.239E-08 0.411E-08   0.414E-24 0.801E-24 0.000E+00
   -.379E-08 -.254E-10 -.191E-08   0.631E-08 -.239E-08 0.411E-08   -.672E-24 0.931E-24 -.620E-24
   -.379E-08 -.623E-09 -.191E-08   0.631E-08 -.802E-09 0.411E-08   -.103E-23 0.165E-23 -.290E-23
   -.379E-08 -.623E-09 -.191E-08   0.631E-08 -.802E-09 0.411E-08   -.165E-23 0.150E-23 -.207E-23
   -.379E-08 -.379E-08 -.191E-08   0.631E-08 0.631E-08 0.411E-08   0.517E-24 -.827E-24 0.145E-23
   -.379E-08 -.379E-08 -.191E-08   0.631E-08 0.631E-08 0.411E-08   0.000E+00 0.176E-23 -.103E-23
   0.522E-08 0.522E-08 -.232E-08   -.169E-07 -.169E-07 -.411E-08   -.331E-23 0.176E-23 -.827E-24
   0.522E-08 0.522E-08 -.232E-08   -.169E-07 -.169E-07 -.411E-08   0.258E-23 0.931E-24 0.310E-24
   0.522E-08 0.812E-11 -.232E-08   -.169E-07 0.802E-09 -.411E-08   -.248E-23 0.109E-23 -.207E-23
   0.522E-08 0.823E-11 -.232E-08   -.169E-07 0.802E-09 -.411E-08   0.181E-24 0.000E+00 0.331E-23
   0.522E-08 -.526E-08 -.232E-08   -.169E-07 0.130E-07 -.411E-08   0.227E-23 0.258E-25 -.207E-23
   0.522E-08 -.526E-08 -.232E-08   -.169E-07 0.130E-07 -.411E-08   -.171E-23 -.433E-24 0.103E-23
   0.863E-11 0.522E-08 -.232E-08   0.802E-09 -.169E-07 -.411E-08   0.103E-24 0.414E-24 0.290E-23
   0.863E-11 0.522E-08 -.232E-08   0.802E-09 -.169E-07 -.411E-08   -.103E-24 0.414E-24 0.853E-24
   0.863E-11 0.950E-11 -.232E-08   0.802E-09 0.802E-09 -.411E-08   0.155E-23 -.310E-24 0.165E-23
   0.863E-11 0.791E-11 -.232E-08   0.802E-09 0.802E-09 -.411E-08   -.207E-23 0.627E-24 0.620E-24
   0.863E-11 -.526E-08 -.232E-08   0.802E-09 0.130E-07 -.411E-08   -.176E-23 0.362E-24 0.114E-23
   0.863E-11 -.526E-08 -.232E-08   0.802E-09 0.130E-07 -.411E-08   -.414E-24 0.000E+00 -.631E-23
   -.526E-08 0.522E-08 -.231E-08   0.130E-07 -.169E-07 -.411E-08   -.827E-24 0.827E-24 -.627E-24
   -.526E-08 0.522E-08 -.232E-08   0.130E-07 -.169E-07 -.411E-08   0.155E-23 0.103E-23 -.827E-24
   -.526E-08 0.928E-11 -.231E-08   0.130E-07 0.802E-09 -.411E-08   -.196E-23 -.367E-23 -.269E-23
   -.526E-08 0.923E-11 -.231E-08   0.130E-07 0.802E-09 -.411E-08   -.827E-24 0.165E-23 0.620E-24
   -.526E-08 -.526E-08 -.231E-08   0.130E-07 0.130E-07 -.411E-08   0.248E-23 0.158E-23 0.227E-23
   -.526E-08 -.526E-08 -.232E-08   0.130E-07 0.130E-07 -.411E-08   0.248E-23 -.121E-23 -.414E-24
 -----------------------------------------------------------------------------------------------
   -.299E-07 -.299E-07 -.783E-07   -.197E-14 0.275E-13 0.265E-14   -.125E-22 0.863E-23 -.169E-23
 
 
 POSITION                                       TOTAL-FORCE (eV/Angst)
 -----------------------------------------------------------------------------------
      0.00000      0.00000      0.00000         0.000000     -0.000000      0.000000
      0.00000      0.00000      3.47664        -0.000000     -0.000000      0.000000
      0.00000      2.75005      0.00000         0.000000     -0.000000      0.000000
      0.00000      2.75005      3.47664        -0.000000      0.000000     -0.000000
      0.00000      5.50010      0.00000         0.000000      0.000000      0.000000
      0.00000      5.50010      3.47664        -0.000000     -0.000000      0.000000
      2.75005      0.00000      0.00000         0.000000      0.000000      0.000000
      2.75005      0.00000      3.47664         0.000000      0.000000     -0.000000
      2.75005      2.75005      0.00000         0.000000      0.000000      0.000000
      2.75005      2.75005      3.47664        -0.000000     -0.000000     -0.000000
      2.75005      5.50010      0.00000         0.000000     -0.000000      0.000000
      2.75005      5.50010      3.47664         0.000000      0.000000     -0.000000
      5.50010      0.00000      0.00000         0.000000      0.000000     -0.000000
      5.50010      0.00000      3.47664        -0.000000      0.000000      0.000000
      5.50010      2.75005      0.00000         0.000000      0.000000     -0.000000
      5.50010      2.75005      3.47664         0.000000      0.000000      0.000000
      5.50010      5.50010      0.00000         0.000000     -0.000000      0.000000
      5.50010      5.50010      3.47664         0.000000      0.000000      0.000000
      1.37502      1.37502      1.73832        -0.000000      0.000000     -0.000000
      1.37502      1.37502      5.21496        -0.000000     -0.000000     -0.000000
      1.37502      4.12507      1.73832        -0.000000     -0.000000      0.000000
      1.37502      4.12507      5.21496         0.000000     -0.000000     -0.000000
      1.37502      6.87512      1.73832        -0.000000      0.000000      0.000000
      1.37502      6.87512      5.21496        -0.000000      0.000000     -0.000000
      4.12507      1.37502      1.73832        -0.000000      0.000000     -0.000000
      4.12507      1.37502      5.21496        -0.000000      0.000000     -0.000000
      4.12507      4.12507      1.73832         0.000000      0.000000      0.000000
      4.12507      4.12507      5.21496         0.000000      0.000000     -0.000000
      4.12507      6.87512      1.73832        -0.000000     -0.000000      0.000000
      4.12507      6.87512      5.21496        -0.000000     -0.000000     -0.000000
      6.87512      1.37502      1.73832        -0.000000     -0.000000     -0.000000
      6.87512      1.37502      5.21496         0.000000     -0.000000      0.000000
      6.87512      4.12507      1.73832         0.000000      0.000000      0.000000
      6.87512      4.12507      5.21496        -0.000000     -0.000000     -0.000000
      6.87512      6.87512      1.73832         0.000000      0.000000     -0.000000
      6.87512      6.87512      5.21496        -0.000000     -0.000000      0.000000
 -----------------------------------------------------------------------------------
    total drift:                               -0.000000     -0.000000     -0.000000


--------------------------------------------------------------------------------------------------------



  FREE ENERGIE OF THE ION-ELECTRON SYSTEM (eV)
  ---------------------------------------------------
  free  energy   TOTEN  =      -238.53754529 eV

  energy  without entropy=     -238.55163823  energy(sigma->0) =     -238.54224294
 


--------------------------------------------------------------------------------------------------------


    POTLOK:  cpu time    0.5963: real time    0.6147


--------------------------------------------------------------------------------------------------------


     LOOP+:  cpu time  411.5497: real time  419.2117
    4ORBIT:  cpu time    0.0000: real time    0.0000
 


 total charge     
 
# of ion       s       p       d       tot
------------------------------------------
    1        0.404   0.428   0.000   0.831
    2        0.404   0.428   0.000   0.831
    3        0.404   0.428   0.000   0.831
    4        0.404   0.428   0.000   0.831
    5        0.404   0.428   0.000   0.831
    6        0.404   0.428   0.000   0.831
    7        0.404   0.428   0.000   0.831
    8        0.404   0.428   0.000   0.831
    9        0.404   0.428   0.000   0.831
   10        0.404   0.428   0.000   0.831
   11        0.404   0.428   0.000   0.831
   12        0.404   0.428   0.000   0.831
   13        0.404   0.428   0.000   0.831
   14        0.404   0.428   0.000   0.831
   15        0.404   0.428   0.000   0.831
   16        0.404   0.428   0.000   0.831
   17        0.404   0.428   0.000   0.831
   18        0.404   0.428   0.000   0.831
   19        0.332   0.349   5.142   5.824
   20        0.332   0.349   5.142   5.824
   21        0.332   0.349   5.142   5.824
   22        0.332   0.349   5.142   5.824
   23        0.332   0.349   5.142   5.824
   24        0.332   0.349   5.142   5.824
   25        0.332   0.349   5.142   5.824
   26        0.332   0.349   5.142   5.824
   27        0.332   0.349   5.142   5.824
   28        0.332   0.349   5.142   5.824
   29        0.332   0.349   5.142   5.824
   30        0.332   0.349   5.142   5.824
   31        0.332   0.349   5.142   5.824
   32        0.332   0.349   5.142   5.824
   33        0.332   0.349   5.142   5.824
   34        0.332   0.349   5.142   5.824
   35        0.332   0.349   5.142   5.824
   36        0.332   0.349   5.142   5.824
--------------------------------------------------
tot         13.253  13.987  92.553 119.793
 


 magnetization (x)
 
# of ion       s       p       d       tot
------------------------------------------
    1       -0.021  -0.036   0.000  -0.057
    2       -0.021  -0.036   0.000  -0.057
    3       -0.021  -0.036   0.000  -0.057
    4       -0.021  -0.036   0.000  -0.057
    5       -0.021  -0.036   0.000  -0.057
    6       -0.021  -0.036   0.000  -0.057
    7       -0.021  -0.036   0.000  -0.057
    8       -0.021  -0.036   0.000  -0.057
    9       -0.021  -0.036   0.000  -0.057
   10       -0.021  -0.036   0.000  -0.057
   11       -0.021  -0.036   0.000  -0.057
   12       -0.021  -0.036   0.000  -0.057
   13       -0.021  -0.036   0.000  -0.057
   14       -0.021  -0.036   0.000  -0.057
   15       -0.021  -0.036   0.000  -0.057
   16       -0.021  -0.036   0.000  -0.057
   17       -0.021  -0.036   0.000  -0.057
   18       -0.021  -0.036   0.000  -0.057
   19        0.018   0.021   2.308   2.346
   20        0.018   0.021   2.308   2.346
   21        0.018   0.021   2.308   2.346
   22        0.018   0.021   2.308   2.346
   23        0.018   0.021   2.308   2.346
   24        0.018   0.021   2.308   2.346
   25        0.018   0.021   2.308   2.346
   26        0.018   0.021   2.308   2.346
   27        0.018   0.021   2.308   2.346
   28        0.018   0.021   2.308   2.346
   29        0.018   0.021   2.308   2.346
   30        0.018   0.021   2.308   2.346
   31        0.018   0.021   2.308   2.346
   32        0.018   0.021   2.308   2.346
   33        0.018   0.021   2.308   2.346
   34        0.018   0.021   2.308   2.346
   35        0.018   0.021   2.308   2.346
   36        0.018   0.021   2.308   2.346
--------------------------------------------------
tot         -0.055  -0.274  41.539  41.210
 

 total amount of memory used by VASP MPI-rank0   447986. kBytes
=======================================================================

   base      :      30000. kBytes
   nonl-proj :      16518. kBytes
   fftplans  :      21726. kBytes
   grid      :      14732. kBytes
   one-center:        279. kBytes
   wavefun   :     364731. kBytes
 
  
  
 General timing and accounting informations for this job:
 ========================================================
  
                  Total CPU time used (sec):      427.238
                            User time (sec):      416.044
                          System time (sec):       11.193
                         Elapsed time (sec):      436.465
  
                   Maximum memory used (kb):      578768.
                   Average memory used (kb):           0.
  
                          Minor page faults:       176981
                          Major page faults:           19
                 Voluntary context switches:         2503
