 vasp.5.4.4.18Apr17-6-g9f103f2a35 (build Dec 20 2018 12:05:58) complex          
  
 executed on             LinuxIFC date 2019.06.20  18:40:35
 running on   32 total cores
 distrk:  each k-point on    8 cores,    4 groups
 distr:  one band on NCORES_PER_BAND=   4 cores,    2 groups


--------------------------------------------------------------------------------------------------------


 INCAR:
 POTCAR:    PAW_PBE Al 04Jan2001                  
 POTCAR:    PAW_PBE Mn 06Sep2000                  

 ----------------------------------------------------------------------------- 
|                                                                             |
|           W    W    AA    RRRRR   N    N  II  N    N   GGGG   !!!           |
|           W    W   A  A   R    R  NN   N  II  NN   N  G    G  !!!           |
|           W    W  A    A  R    R  N N  N  II  N N  N  G       !!!           |
|           W WW W  AAAAAA  RRRRR   N  N N  II  N  N N  G  GGG   !            |
|           WW  WW  A    A  R   R   N   NN  II  N   NN  G    G                |
|           W    W  A    A  R    R  N    N  II  N    N   GGGG   !!!           |
|                                                                             |
|      You have enabled k-point parallelism (KPAR>1).                         |
|      This developmental code was originally  written by Paul Kent at ORNL,  |
|      and carefully double checked in Vienna.                                |
|      GW as well as linear response parallelism added by Martijn Marsman     |
|      and Georg Kresse.                                                      |
|      Carefully verify results versus KPAR=1.                                |
|      Report problems to Paul Kent and Vienna.                               |
|                                                                             |
 ----------------------------------------------------------------------------- 

 POTCAR:    PAW_PBE Al 04Jan2001                  
   VRHFIN =Al: s2p1                                                             
   LEXCH  = PE                                                                  
   EATOM  =    53.5387 eV,    3.9350 Ry                                         
                                                                                
   TITEL  = PAW_PBE Al 04Jan2001                                                
   LULTRA =        F    use ultrasoft PP ?                                      
   IUNSCR =        1    unscreen: 0-lin 1-nonlin 2-no                           
   RPACOR =    1.500    partial core radius                                     
   POMASS =   26.981; ZVAL   =    3.000    mass and valenz                      
   RCORE  =    1.900    outmost cutoff radius                                   
   RWIGS  =    2.650; RWIGS  =    1.402    wigner-seitz radius (au A)           
   ENMAX  =  240.300; ENMIN  =  180.225 eV                                      
   ICORE  =        2    local potential                                         
   LCOR   =        T    correct aug charges                                     
   LPAW   =        T    paw PP                                                  
   EAUG   =  291.052                                                            
   DEXC   =    0.000                                                            
   RMAX   =    1.939    core radius for proj-oper                               
   RAUG   =    1.300    factor for augmentation sphere                          
   RDEP   =    1.966    radius for radial grids                                 
   RDEPT  =    1.856    core radius for aug-charge                              
                                                                                
   Atomic configuration                                                         
    6 entries                                                                   
     n  l   j            E        occ.                                          
     1  0  0.50     -1511.1048   2.0000                                         
     2  0  0.50      -108.1629   2.0000                                         
     2  1  1.50       -69.6402   6.0000                                         
     3  0  0.50        -7.7528   2.0000                                         
     3  1  1.50        -2.7121   1.0000                                         
     3  2  2.50        -2.7212   0.0000                                         
   Description                                                                  
     l       E           TYP  RCUT    TYP  RCUT                                 
     0     -7.7528455     23  1.900                                             
     0     -3.3096929     23  1.900                                             
     1     -2.7120682     23  1.900                                             
     1     13.6058260     23  1.900                                             
     2     -2.7211652      7  1.900                                             
  local pseudopotential read in
  partial core-charges read in
  partial kinetic energy density read in
  atomic valenz-charges read in
  non local Contribution for L=           0  read in
    real space projection operators read in
  non local Contribution for L=           0  read in
    real space projection operators read in
  non local Contribution for L=           1  read in
    real space projection operators read in
  non local Contribution for L=           1  read in
    real space projection operators read in
    PAW grid and wavefunctions read in
 
   number of l-projection  operators is LMAX  =           4
   number of lm-projection operators is LMMAX =           8
 
 POTCAR:    PAW_PBE Mn 06Sep2000                  
   VRHFIN =Mn: d6 s1                                                            
   LEXCH  = PE                                                                  
   EATOM  =   416.7541 eV,   30.6306 Ry                                         
                                                                                
   TITEL  = PAW_PBE Mn 06Sep2000                                                
   LULTRA =        F    use ultrasoft PP ?                                      
   IUNSCR =        1    unscreen: 0-lin 1-nonlin 2-no                           
   RPACOR =    2.000    partial core radius                                     
   POMASS =   54.938; ZVAL   =    7.000    mass and valenz                      
   RCORE  =    2.300    outmost cutoff radius                                   
   RWIGS  =    2.500; RWIGS  =    1.323    wigner-seitz radius (au A)           
   ENMAX  =  269.864; ENMIN  =  202.398 eV                                      
   RCLOC  =    1.725    cutoff for local pot                                    
   LCOR   =        T    correct aug charges                                     
   LPAW   =        T    paw PP                                                  
   EAUG   =  500.711                                                            
   DEXC   =    0.000                                                            
   RMAX   =    2.343    core radius for proj-oper                               
   RAUG   =    1.300    factor for augmentation sphere                          
   RDEP   =    2.338    radius for radial grids                                 
   RDEPT  =    1.911    core radius for aug-charge                              
                                                                                
   Atomic configuration                                                         
    9 entries                                                                   
     n  l   j            E        occ.                                          
     1  0  0.50     -6424.8288   2.0000                                         
     2  0  0.50      -739.1154   2.0000                                         
     2  1  1.50      -625.3949   6.0000                                         
     3  0  0.50       -81.6100   2.0000                                         
     3  1  1.50       -50.4667   6.0000                                         
     3  2  2.50        -3.3745   6.0000                                         
     4  0  0.50        -4.1331   1.0000                                         
     4  1  0.50        -4.0817   0.0000                                         
     4  3  2.50        -1.3606   0.0000                                         
   Description                                                                  
     l       E           TYP  RCUT    TYP  RCUT                                 
     2     -3.3744664     23  2.300                                             
     2     -4.7350490     23  2.300                                             
     0     -4.1331408     23  2.300                                             
     0      7.6656614     23  2.300                                             
     1     -2.7211652     23  2.300                                             
     1     20.4087390     23  2.300                                             
  local pseudopotential read in
  partial core-charges read in
  partial kinetic energy density read in
  atomic valenz-charges read in
  non local Contribution for L=           2  read in
    real space projection operators read in
  non local Contribution for L=           2  read in
    real space projection operators read in
  non local Contribution for L=           0  read in
    real space projection operators read in
  non local Contribution for L=           0  read in
    real space projection operators read in
  non local Contribution for L=           1  read in
    real space projection operators read in
  non local Contribution for L=           1  read in
    real space projection operators read in
    PAW grid and wavefunctions read in
 
   number of l-projection  operators is LMAX  =           6
   number of lm-projection operators is LMMAX =          18
 

 ----------------------------------------------------------------------------- 
|                                                                             |
|  ADVICE TO THIS USER RUNNING 'VASP/VAMP'   (HEAR YOUR MASTER'S VOICE ...):  |
|                                                                             |
|      You have a (more or less) 'large supercell' and for larger cells       |
|      it might be more efficient to use real space projection opertators     |
|      So try LREAL= Auto  in the INCAR   file.                               |
|      Mind:          For very  accurate calculation you might also keep the  |
|      reciprocal projection scheme          (i.e. LREAL=.FALSE.)             |
|                                                                             |
 ----------------------------------------------------------------------------- 

  PAW_PBE Al 04Jan2001                  :
 energy of atom  1       EATOM=  -53.5387
 kinetic energy error for atom=    0.0005 (will be added to EATOM!!)
  PAW_PBE Mn 06Sep2000                  :
 energy of atom  2       EATOM= -416.7541
 kinetic energy error for atom=    0.0080 (will be added to EATOM!!)
 
 
 POSCAR: NewRef: 27, @ ['Mn', array([1.37502469, 
  positions in cartesian coordinates
  velocities in cartesian coordinates
  No initial velocities read in
 exchange correlation table for  LEXCH =        8
   RHO(1)=    0.500       N(1)  =     2000
   RHO(2)=  100.500       N(2)  =     4000
 


--------------------------------------------------------------------------------------------------------


 ion  position               nearest neighbor table
   1  0.000  0.000  0.000-  28 2.61  30 2.61  34 2.61  36 2.61  46 2.61  48 2.61  52 2.61  54 2.61
                             4 2.75  10 2.75   7 2.75  19 2.75
   2  0.000  0.000  0.333-  28 2.61  34 2.61  46 2.61  52 2.61  29 2.61  47 2.61  35 2.61  53 2.61
                             5 2.75  11 2.75   8 2.75  20 2.75
   3  0.000  0.000  0.667-  29 2.61  35 2.61  47 2.61  53 2.61  30 2.61  48 2.61  36 2.61  54 2.61
                             6 2.75  12 2.75   9 2.75  21 2.75
   4  0.000  0.333  0.000-  28 2.61  30 2.61  46 2.61  48 2.61  31 2.61  33 2.61  49 2.61  51 2.61
                            13 2.75   1 2.75   7 2.75  22 2.75
   5  0.000  0.333  0.333-  28 2.61  46 2.61  31 2.61  49 2.61  47 2.61  29 2.61  32 2.61  50 2.61
                            14 2.75   2 2.75   8 2.75  23 2.75
   6  0.000  0.333  0.667-  29 2.61  47 2.61  32 2.61  50 2.61  48 2.61  30 2.61  33 2.61  51 2.61
                            15 2.75   3 2.75   9 2.75  24 2.75
   7  0.000  0.667  0.000-  31 2.61  33 2.61  49 2.61  51 2.61  34 2.61  36 2.61  52 2.61  54 2.61
                             4 2.75  16 2.75   1 2.75  25 2.75
   8  0.000  0.667  0.333-  31 2.61  49 2.61  34 2.61  52 2.61  50 2.61  32 2.61  35 2.61  53 2.61
                             5 2.75  17 2.75   2 2.75  26 2.75
   9  0.000  0.667  0.667-  32 2.61  50 2.61  35 2.61  53 2.61  51 2.61  33 2.61  36 2.61  54 2.61
                             6 2.75  18 2.75   3 2.75  27 2.75
  10  0.333  0.000  0.000-  28 2.61  30 2.61  34 2.61  36 2.61  37 2.61  39 2.61  43 2.61  45 2.61
                            19 2.75   1 2.75  13 2.75  16 2.75
  11  0.333  0.000  0.333-  28 2.61  34 2.61  37 2.61  43 2.61  29 2.61  35 2.61  38 2.61  44 2.61
                            20 2.75   2 2.75  14 2.75  17 2.75
  12  0.333  0.000  0.667-  29 2.61  35 2.61  38 2.61  44 2.61  30 2.61  36 2.61  39 2.61  45 2.61
                            21 2.75   3 2.75  15 2.75  18 2.75
  13  0.333  0.333  0.000-  28 2.61  30 2.61  31 2.61  33 2.61  37 2.61  39 2.61  40 2.61  42 2.61
                             4 2.75  10 2.75  16 2.75  22 2.75
  14  0.333  0.333  0.333-  28 2.61  31 2.61  37 2.61  29 2.61  40 2.61  38 2.61  32 2.61  41 2.61
                             5 2.75  11 2.75  17 2.75  23 2.75
  15  0.333  0.333  0.667-  29 2.61  32 2.61  38 2.61  30 2.61  41 2.61  39 2.61  33 2.61  42 2.61
                             6 2.75  12 2.75  18 2.75  24 2.75
  16  0.333  0.667  0.000-  31 2.61  33 2.61  34 2.61  36 2.61  40 2.61  42 2.61  43 2.61  45 2.61
                            25 2.75   7 2.75  13 2.75  10 2.75
  17  0.333  0.667  0.333-  31 2.61  34 2.61  40 2.61  32 2.61  43 2.61  41 2.61  35 2.61  44 2.61
                            26 2.75   8 2.75  14 2.75  11 2.75
  18  0.333  0.667  0.667-  32 2.61  35 2.61  41 2.61  33 2.61  44 2.61  42 2.61  36 2.61  45 2.61
                            27 2.75   9 2.75  15 2.75  12 2.75
  19  0.667  0.000  0.000-  37 2.61  39 2.61  43 2.61  45 2.61  46 2.61  48 2.61  52 2.61  54 2.61
                            10 2.75  22 2.75   1 2.75  25 2.75
  20  0.667  0.000  0.333-  37 2.61  43 2.61  46 2.61  52 2.61  38 2.61  44 2.61  47 2.61  53 2.61
                            11 2.75  23 2.75   2 2.75  26 2.75
  21  0.667  0.000  0.667-  38 2.61  44 2.61  47 2.61  53 2.61  39 2.61  45 2.61  48 2.61  54 2.61
                            12 2.75  24 2.75   3 2.75  27 2.75
  22  0.667  0.333  0.000-  37 2.61  39 2.61  40 2.61  42 2.61  46 2.61  48 2.61  49 2.61  51 2.61
                            25 2.75  13 2.75  19 2.75   4 2.75
  23  0.667  0.333  0.333-  37 2.61  40 2.61  46 2.61  38 2.61  49 2.61  47 2.61  41 2.61  50 2.61
                            26 2.75  14 2.75  20 2.75   5 2.75
  24  0.667  0.333  0.667-  38 2.61  41 2.61  47 2.61  39 2.61  50 2.61  48 2.61  42 2.61  51 2.61
                            27 2.75  15 2.75  21 2.75   6 2.75
  25  0.667  0.667  0.000-  40 2.61  42 2.61  43 2.61  45 2.61  49 2.61  51 2.61  52 2.61  54 2.61
                            16 2.75  22 2.75  19 2.75   7 2.75
  26  0.667  0.667  0.333-  40 2.61  43 2.61  49 2.61  41 2.61  52 2.61  50 2.61  44 2.61  53 2.61
                            17 2.75  23 2.75  20 2.75   8 2.75
  27  0.667  0.667  0.667-  41 2.61  44 2.61  50 2.61  42 2.61  53 2.61  51 2.61  45 2.61  54 2.61
                            18 2.75  24 2.75  21 2.75   9 2.75
  28  0.167  0.167  0.167-  14 2.61  11 2.61   5 2.61  13 2.61   2 2.61  10 2.61   4 2.61   1 2.61
                            31 2.75  37 2.75  34 2.75  46 2.75
  29  0.167  0.167  0.500-  15 2.61  12 2.61   6 2.61  14 2.61   3 2.61  11 2.61   5 2.61   2 2.61
                            32 2.75  38 2.75  35 2.75  47 2.75
  30  0.167  0.167  0.833-  13 2.61  15 2.61  10 2.61  12 2.61   4 2.61   6 2.61   1 2.61   3 2.61
                            33 2.75  39 2.75  36 2.75  48 2.75
  31  0.167  0.500  0.167-  17 2.61  14 2.61   8 2.61  16 2.61   5 2.61  13 2.61   7 2.61   4 2.61
                            28 2.75  34 2.75  40 2.75  49 2.75
  32  0.167  0.500  0.500-  18 2.61  15 2.61   9 2.61  17 2.61   6 2.61  14 2.61   8 2.61   5 2.61
                            29 2.75  35 2.75  41 2.75  50 2.75
  33  0.167  0.500  0.833-  16 2.61  18 2.61  13 2.61  15 2.61   7 2.61   9 2.61   4 2.61   6 2.61
                            30 2.75  36 2.75  42 2.75  51 2.75
  34  0.167  0.833  0.167-  11 2.61  17 2.61   2 2.61   8 2.61  16 2.61  10 2.61   7 2.61   1 2.61
                            31 2.75  43 2.75  28 2.75  52 2.75
  35  0.167  0.833  0.500-  12 2.61  18 2.61   3 2.61   9 2.61  17 2.61  11 2.61   8 2.61   2 2.61
                            32 2.75  44 2.75  29 2.75  53 2.75
  36  0.167  0.833  0.833-  10 2.61  12 2.61  16 2.61  18 2.61   1 2.61   3 2.61   7 2.61   9 2.61
                            33 2.75  45 2.75  30 2.75  54 2.75
  37  0.500  0.167  0.167-  23 2.61  20 2.61  14 2.61  22 2.61  11 2.61  19 2.61  13 2.61  10 2.61
                            28 2.75  40 2.75  46 2.75  43 2.75
  38  0.500  0.167  0.500-  24 2.61  21 2.61  15 2.61  23 2.61  12 2.61  20 2.61  14 2.61  11 2.61
                            29 2.75  41 2.75  47 2.75  44 2.75
  39  0.500  0.167  0.833-  22 2.61  24 2.61  19 2.61  21 2.61  13 2.61  15 2.61  10 2.61  12 2.61
                            30 2.75  42 2.75  48 2.75  45 2.75
  40  0.500  0.500  0.167-  26 2.61  23 2.61  17 2.61  25 2.61  14 2.61  22 2.61  16 2.61  13 2.61
                            31 2.75  37 2.75  43 2.75  49 2.75
  41  0.500  0.500  0.500-  27 2.61  24 2.61  18 2.61  26 2.61  15 2.61  23 2.61  17 2.61  14 2.61
                            32 2.75  38 2.75  44 2.75  50 2.75
  42  0.500  0.500  0.833-  25 2.61  27 2.61  22 2.61  24 2.61  16 2.61  18 2.61  13 2.61  15 2.61
                            33 2.75  39 2.75  45 2.75  51 2.75
  43  0.500  0.833  0.167-  20 2.61  26 2.61  11 2.61  17 2.61  25 2.61  19 2.61  16 2.61  10 2.61
                            34 2.75  40 2.75  52 2.75  37 2.75
  44  0.500  0.833  0.500-  21 2.61  27 2.61  12 2.61  18 2.61  26 2.61  20 2.61  17 2.61  11 2.61
                            35 2.75  41 2.75  53 2.75  38 2.75
  45  0.500  0.833  0.833-  19 2.61  21 2.61  25 2.61  27 2.61  10 2.61  12 2.61  16 2.61  18 2.61
                            36 2.75  42 2.75  54 2.75  39 2.75
  46  0.833  0.167  0.167-   5 2.61  23 2.61  20 2.61   2 2.61  22 2.61   4 2.61  19 2.61   1 2.61
                            37 2.75  49 2.75  28 2.75  52 2.75
  47  0.833  0.167  0.500-   6 2.61  24 2.61  21 2.61   3 2.61  23 2.61   5 2.61  20 2.61   2 2.61
                            38 2.75  50 2.75  29 2.75  53 2.75
  48  0.833  0.167  0.833-   4 2.61   6 2.61  22 2.61  24 2.61  19 2.61  21 2.61   1 2.61   3 2.61
                            39 2.75  51 2.75  30 2.75  54 2.75
  49  0.833  0.500  0.167-   8 2.61  26 2.61  23 2.61   5 2.61  25 2.61   7 2.61  22 2.61   4 2.61
                            40 2.75  46 2.75  52 2.75  31 2.75
  50  0.833  0.500  0.500-   9 2.61  27 2.61  24 2.61   6 2.61  26 2.61   8 2.61  23 2.61   5 2.61
                            41 2.75  47 2.75  53 2.75  32 2.75
  51  0.833  0.500  0.833-   7 2.61   9 2.61  25 2.61  27 2.61  22 2.61  24 2.61   4 2.61   6 2.61
                            42 2.75  48 2.75  54 2.75  33 2.75
  52  0.833  0.833  0.167-   2 2.61   8 2.61  20 2.61  26 2.61  19 2.61   7 2.61  25 2.61   1 2.61
                            43 2.75  49 2.75  46 2.75  34 2.75
  53  0.833  0.833  0.500-   3 2.61   9 2.61  21 2.61  27 2.61  20 2.61   8 2.61  26 2.61   2 2.61
                            44 2.75  50 2.75  47 2.75  35 2.75
  54  0.833  0.833  0.833-   1 2.61   3 2.61   7 2.61   9 2.61  19 2.61  21 2.61  25 2.61  27 2.61
                            45 2.75  51 2.75  48 2.75  36 2.75
 
  LATTYP: Found a simple tetragonal cell.
 ALAT       =     8.2501481662
 C/A-ratio  =     1.2642089792
  
  Lattice vectors:
  
 A1 = (   8.2501481662,   0.0000000000,   0.0000000000)
 A2 = (   0.0000000000,   8.2501481662,   0.0000000000)
 A3 = (   0.0000000000,   0.0000000000,  10.4299113916)


Analysis of symmetry for initial positions (statically):
=====================================================================
 Subroutine PRICEL returns following result:
 
  LATTYP: Found a simple tetragonal cell.
 ALAT       =     2.7500493888
 C/A-ratio  =     1.2642089792
  
  Lattice vectors:
  
 A1 = (   2.7500493888,   0.0000000000,   0.0000000000)
 A2 = (   0.0000000000,   2.7500493888,   0.0000000000)
 A3 = (   0.0000000000,   0.0000000000,   3.4766371306)
 
  27 primitive cells build up your supercell.
 

 Routine SETGRP: Setting up the symmetry group for a 
 simple tetragonal supercell.


 Subroutine GETGRP returns: Found 16 space group operations
 (whereof 16 operations were pure point group operations)
 out of a pool of 16 trial point group operations.


The static configuration has the point symmetry D_4h.


Analysis of symmetry for dynamics (positions and initial velocities):
=====================================================================
 Subroutine PRICEL returns following result:
 
  LATTYP: Found a simple tetragonal cell.
 ALAT       =     2.7500493888
 C/A-ratio  =     1.2642089792
  
  Lattice vectors:
  
 A1 = (   2.7500493888,   0.0000000000,   0.0000000000)
 A2 = (   0.0000000000,   2.7500493888,   0.0000000000)
 A3 = (   0.0000000000,   0.0000000000,   3.4766371306)
 
  27 primitive cells build up your supercell.
 

 Routine SETGRP: Setting up the symmetry group for a 
 simple tetragonal supercell.


 Subroutine GETGRP returns: Found 16 space group operations
 (whereof 16 operations were pure point group operations)
 out of a pool of 16 trial point group operations.


The dynamic configuration has the point symmetry D_4h.


Analysis of structural, dynamic, and magnetic symmetry:
=====================================================================
 Subroutine PRICEL returns:
 Original cell was already a primitive cell.
 

 Routine SETGRP: Setting up the symmetry group for a 
 simple tetragonal supercell.


 Subroutine GETGRP returns: Found  4 space group operations
 (whereof  1 operations were pure point group operations)
 out of a pool of 16 trial point group operations.


The magnetic configuration has the point symmetry C_1 .
 The point group associated with its full space group is C_2v.


 Subroutine INISYM returns: Found  4 space group operations
 (whereof  1 operations are pure point group operations),
 and found     1 'primitive' translations

 
 
 KPOINTS: automatic KPOINTS                       

Automatic generation of k-mesh.
 generate k-points for:    5    5    4
Space group operators:
 irot       det(A)        alpha          n_x          n_y          n_z        tau_x        tau_y        tau_z
    1     1.000000     0.000001     1.000000     0.000000     0.000000     0.000000     0.000000     0.000000
    2     1.000000   180.000000     0.000000     0.000000     1.000000     0.333333     0.333333     0.000000
    3    -1.000000   180.000000     0.000000     1.000000     0.000000     0.000000     0.333333     0.000000
    4    -1.000000   180.000000     1.000000     0.000000     0.000000     0.333333     0.000000     0.000000
 
 Subroutine IBZKPT returns following result:
 ===========================================
 
 Found     27 irreducible k-points:
 
 Following reciprocal coordinates:
            Coordinates               Weight
  0.000000  0.000000  0.000000      1.000000
  0.200000  0.000000  0.000000      2.000000
  0.400000  0.000000  0.000000      2.000000
  0.000000  0.200000  0.000000      2.000000
  0.200000  0.200000  0.000000      4.000000
  0.400000  0.200000  0.000000      4.000000
  0.000000  0.400000  0.000000      2.000000
  0.200000  0.400000  0.000000      4.000000
  0.400000  0.400000  0.000000      4.000000
  0.000000  0.000000  0.250000      2.000000
  0.200000  0.000000  0.250000      4.000000
  0.400000  0.000000  0.250000      4.000000
  0.000000  0.200000  0.250000      4.000000
  0.200000  0.200000  0.250000      8.000000
  0.400000  0.200000  0.250000      8.000000
  0.000000  0.400000  0.250000      4.000000
  0.200000  0.400000  0.250000      8.000000
  0.400000  0.400000  0.250000      8.000000
  0.000000  0.000000  0.500000      1.000000
  0.200000  0.000000  0.500000      2.000000
  0.400000  0.000000  0.500000      2.000000
  0.000000  0.200000  0.500000      2.000000
  0.200000  0.200000  0.500000      4.000000
  0.400000  0.200000  0.500000      4.000000
  0.000000  0.400000  0.500000      2.000000
  0.200000  0.400000  0.500000      4.000000
  0.400000  0.400000  0.500000      4.000000
 
 Following cartesian coordinates:
            Coordinates               Weight
  0.000000  0.000000  0.000000      1.000000
  0.024242  0.000000  0.000000      2.000000
  0.048484  0.000000  0.000000      2.000000
  0.000000  0.024242  0.000000      2.000000
  0.024242  0.024242  0.000000      4.000000
  0.048484  0.024242  0.000000      4.000000
  0.000000  0.048484  0.000000      2.000000
  0.024242  0.048484  0.000000      4.000000
  0.048484  0.048484  0.000000      4.000000
  0.000000  0.000000  0.023970      2.000000
  0.024242  0.000000  0.023970      4.000000
  0.048484  0.000000  0.023970      4.000000
  0.000000  0.024242  0.023970      4.000000
  0.024242  0.024242  0.023970      8.000000
  0.048484  0.024242  0.023970      8.000000
  0.000000  0.048484  0.023970      4.000000
  0.024242  0.048484  0.023970      8.000000
  0.048484  0.048484  0.023970      8.000000
  0.000000  0.000000  0.047939      1.000000
  0.024242  0.000000  0.047939      2.000000
  0.048484  0.000000  0.047939      2.000000
  0.000000  0.024242  0.047939      2.000000
  0.024242  0.024242  0.047939      4.000000
  0.048484  0.024242  0.047939      4.000000
  0.000000  0.048484  0.047939      2.000000
  0.024242  0.048484  0.047939      4.000000
  0.048484  0.048484  0.047939      4.000000
 


--------------------------------------------------------------------------------------------------------




 Dimension of arrays:
   k-points           NKPTS =     27   k-points in BZ     NKDIM =     27   number of bands    NBANDS=    174
   number of dos      NEDOS =    301   number of ions     NIONS =     54
   non local maximal  LDIM  =      6   non local SUM 2l+1 LMDIM =     18
   total plane-waves  NPLWV = 204120
   max r-space proj   IRMAX =      1   max aug-charges    IRDMAX=  89713
   dimension x,y,z NGX =    54 NGY =   54 NGZ =   70
   dimension x,y,z NGXF=   108 NGYF=  108 NGZF=  140
   support grid    NGXF=   216 NGYF=  216 NGZF=  280
   ions per type =              27  27
   NGX,Y,Z   is equivalent  to a cutoff of  10.88, 10.88, 11.16 a.u.
   NGXF,Y,Z  is equivalent  to a cutoff of  21.76, 21.76, 22.32 a.u.

 SYSTEM =  AlMn_pv                                 
 POSCAR =  NewRef: 27, @ ['Mn', array([1.37502469, 

 Startparameter for this run:
   NWRITE =      2    write-flag & timer
   PREC   = accura    normal or accurate (medium, high low for compatibility)
   ISTART =      0    job   : 0-new  1-cont  2-samecut
   ICHARG =      2    charge: 1-file 2-atom 10-const
   ISPIN  =      2    spin polarized calculation?
   LNONCOLLINEAR =      F non collinear calculations
   LSORBIT =      F    spin-orbit coupling
   INIWAV =      1    electr: 0-lowe 1-rand  2-diag
   LASPH  =      F    aspherical Exc in radial PAW
   METAGGA=      F    non-selfconsistent MetaGGA calc.

 Electronic Relaxation 1
   ENCUT  =  404.8 eV  29.75 Ry    5.45 a.u.  13.53 13.53 17.11*2*pi/ulx,y,z
   ENINI  =  404.8     initial cutoff
   ENAUG  =  500.7 eV  augmentation charge cutoff
   NELM   =    100;   NELMIN=  4; NELMDL= -8     # of ELM steps 
   EDIFF  = 0.1E-06   stopping-criterion for ELM
   LREAL  =      F    real-space projection
   NLSPLINE    = F    spline interpolate recip. space projectors
   LCOMPAT=      F    compatible to vasp.4.4
   GGA_COMPAT  = T    GGA compatible to vasp.4.4-vasp.4.6
   LMAXPAW     = -100 max onsite density
   LMAXMIX     =    2 max onsite mixed and CHGCAR
   VOSKOWN=      0    Vosko Wilk Nusair interpolation
   ROPT   =    0.00000   0.00000
 Ionic relaxation
   EDIFFG = 0.1E-05   stopping-criterion for IOM
   NSW    =      0    number of steps for IOM
   NBLOCK =      1;   KBLOCK =      1    inner block; outer block 
   IBRION =     -1    ionic relax: 0-MD 1-quasi-New 2-CG
   NFREE  =      0    steps in history (QN), initial steepest desc. (CG)
   ISIF   =      2    stress and relaxation
   IWAVPR =     10    prediction:  0-non 1-charg 2-wave 3-comb
   ISYM   =      2    0-nonsym 1-usesym 2-fastsym
   LCORR  =      T    Harris-Foulkes like correction to forces

   POTIM  = 0.2000    time-step for ionic-motion
   TEIN   =    0.0    initial temperature
   TEBEG  =    0.0;   TEEND  =   0.0 temperature during run
   SMASS  =  -3.00    Nose mass-parameter (am)
   estimated Nose-frequenzy (Omega)   =  0.10E-29 period in steps =****** mass=  -0.156E-26a.u.
   SCALEE = 1.0000    scale energy and forces
   NPACO  =    256;   APACO  = 16.0  distance and # of slots for P.C.
   PSTRESS=    0.0 pullay stress

  Mass of Ions in am
   POMASS =  26.98 54.94
  Ionic Valenz
   ZVAL   =   3.00  7.00
  Atomic Wigner-Seitz radii
   RWIGS  =  -1.00 -1.00
  virtual crystal weights 
   VCA    =   1.00  1.00
   NELECT =     270.0000    total number of electrons
   NUPDOWN=      -1.0000    fix difference up-down

 DOS related values:
   EMIN   =  10.00;   EMAX   =-10.00  energy-range for DOS
   EFERMI =   0.00
   ISMEAR =     1;   SIGMA  =   0.20  broadening in eV -4-tet -1-fermi 0-gaus

 Electronic relaxation 2 (details)
   IALGO  =     58    algorithm
   LDIAG  =      T    sub-space diagonalisation (order eigenvalues)
   LSUBROT=      F    optimize rotation matrix (better conditioning)
   TURBO    =      0    0=normal 1=particle mesh
   IRESTART =      0    0=no restart 2=restart with 2 vectors
   NREBOOT  =      0    no. of reboots
   NMIN     =      0    reboot dimension
   EREF     =   0.00    reference energy to select bands
   IMIX   =      4    mixing-type and parameters
     AMIX     =   0.40;   BMIX     =  1.00
     AMIX_MAG =   1.60;   BMIX_MAG =  1.00
     AMIN     =   0.10
     WC   =   100.;   INIMIX=   1;  MIXPRE=   1;  MAXMIX= -45

 Intra band minimization:
   WEIMIN = 0.0000     energy-eigenvalue tresh-hold
   EBREAK =  0.14E-09  absolut break condition
   DEPER  =   0.30     relativ break condition  

   TIME   =   0.40     timestep for ELM

  volume/ion in A,a.u.               =      13.15        88.72
  Fermi-wavevector in a.u.,A,eV,Ry     =   1.186118  2.241439 19.141722  1.406877
  Thomas-Fermi vector in A             =   2.322298
 
 Write flags
   LWAVE        =      F    write WAVECAR
   LDOWNSAMPLE  =      F    k-point downsampling of WAVECAR
   LCHARG       =      F    write CHGCAR
   LVTOT        =      F    write LOCPOT, total local potential
   LVHAR        =      F    write LOCPOT, Hartree potential only
   LELF         =      F    write electronic localiz. function (ELF)
   LORBIT       =     10    0 simple, 1 ext, 2 COOP (PROOUT), +10 PAW based schemes


 Dipole corrections
   LMONO  =      F    monopole corrections only (constant potential shift)
   LDIPOL =      F    correct potential (dipole corrections)
   IDIPOL =      0    1-x, 2-y, 3-z, 4-all directions 
   EPSILON=  1.0000000 bulk dielectric constant

 Exchange correlation treatment:
   GGA     =    --    GGA type
   LEXCH   =     8    internal setting for exchange type
   VOSKOWN=      0    Vosko Wilk Nusair interpolation
   LHFCALC =     F    Hartree Fock is set to
   LHFONE  =     F    Hartree Fock one center treatment
   AEXX    =    0.0000 exact exchange contribution

 Linear response parameters
   LEPSILON=     F    determine dielectric tensor
   LRPA    =     F    only Hartree local field effects (RPA)
   LNABLA  =     F    use nabla operator in PAW spheres
   LVEL    =     F    velocity operator in full k-point grid
   LINTERFAST=   F  fast interpolation
   KINTER  =     0    interpolate to denser k-point grid
   CSHIFT  =0.1000    complex shift for real part using Kramers Kronig
   OMEGAMAX=  -1.0    maximum frequency
   DEG_THRESHOLD= 0.2000000E-02 threshold for treating states as degnerate
   RTIME   =   -0.100 relaxation time in fs
  (WPLASMAI=    0.000 imaginary part of plasma frequency in eV, 0.658/RTIME)
   DFIELD  = 0.0000000 0.0000000 0.0000000 field for delta impulse in time
 
 Orbital magnetization related:
   ORBITALMAG=     F  switch on orbital magnetization
   LCHIMAG   =     F  perturbation theory with respect to B field
   DQ        =  0.001000  dq finite difference perturbation B field
   LLRAUG    =     F  two centre corrections for induced B field



--------------------------------------------------------------------------------------------------------


 Static calculation
 charge density and potential will be updated during run
 spin polarized calculation
 Conjugate gradient for all bands (Freysoldt, et al. PRB 79, 241103 (2009))
 preconditioned conjugated gradient                                        
 perform sub-space diagonalisation
    before iterative eigenvector-optimisation
 modified Broyden-mixing scheme, WC =      100.0
 initial mixing is a Kerker type mixing with AMIX =  0.4000 and BMIX =      1.0000
 Hartree-type preconditioning will be used
 using additional bands           39
 reciprocal scheme for non local part
 use partial core corrections
 no Harris-corrections to forces 
 use gradient corrections 
 use of overlap-Matrix (Vanderbilt PP)
 Methfessel and Paxton  Order N= 1 SIGMA  =   0.20


--------------------------------------------------------------------------------------------------------


  energy-cutoff  :      404.80
  volume of cell :      709.91
      direct lattice vectors                 reciprocal lattice vectors
     8.250148166  0.000000000  0.000000000     0.121209944  0.000000000  0.000000000
     0.000000000  8.250148166  0.000000000     0.000000000  0.121209944  0.000000000
     0.000000000  0.000000000 10.429911392     0.000000000  0.000000000  0.095878092

  length of vectors
     8.250148166  8.250148166 10.429911392     0.121209944  0.121209944  0.095878092


 
 k-points in units of 2pi/SCALE and weight: automatic KPOINTS                       
   0.00000000  0.00000000  0.00000000       0.010
   0.02424199  0.00000000  0.00000000       0.020
   0.04848398  0.00000000  0.00000000       0.020
   0.00000000  0.02424199  0.00000000       0.020
   0.02424199  0.02424199  0.00000000       0.040
   0.04848398  0.02424199  0.00000000       0.040
   0.00000000  0.04848398  0.00000000       0.020
   0.02424199  0.04848398  0.00000000       0.040
   0.04848398  0.04848398  0.00000000       0.040
   0.00000000  0.00000000  0.02396952       0.020
   0.02424199  0.00000000  0.02396952       0.040
   0.04848398  0.00000000  0.02396952       0.040
   0.00000000  0.02424199  0.02396952       0.040
   0.02424199  0.02424199  0.02396952       0.080
   0.04848398  0.02424199  0.02396952       0.080
   0.00000000  0.04848398  0.02396952       0.040
   0.02424199  0.04848398  0.02396952       0.080
   0.04848398  0.04848398  0.02396952       0.080
   0.00000000  0.00000000  0.04793905       0.010
   0.02424199  0.00000000  0.04793905       0.020
   0.04848398  0.00000000  0.04793905       0.020
   0.00000000  0.02424199  0.04793905       0.020
   0.02424199  0.02424199  0.04793905       0.040
   0.04848398  0.02424199  0.04793905       0.040
   0.00000000  0.04848398  0.04793905       0.020
   0.02424199  0.04848398  0.04793905       0.040
   0.04848398  0.04848398  0.04793905       0.040
 
 k-points in reciprocal lattice and weights: automatic KPOINTS                       
   0.00000000  0.00000000  0.00000000       0.010
   0.20000000  0.00000000  0.00000000       0.020
   0.40000000  0.00000000  0.00000000       0.020
   0.00000000  0.20000000  0.00000000       0.020
   0.20000000  0.20000000  0.00000000       0.040
   0.40000000  0.20000000  0.00000000       0.040
   0.00000000  0.40000000  0.00000000       0.020
   0.20000000  0.40000000  0.00000000       0.040
   0.40000000  0.40000000  0.00000000       0.040
   0.00000000  0.00000000  0.25000000       0.020
   0.20000000  0.00000000  0.25000000       0.040
   0.40000000  0.00000000  0.25000000       0.040
   0.00000000  0.20000000  0.25000000       0.040
   0.20000000  0.20000000  0.25000000       0.080
   0.40000000  0.20000000  0.25000000       0.080
   0.00000000  0.40000000  0.25000000       0.040
   0.20000000  0.40000000  0.25000000       0.080
   0.40000000  0.40000000  0.25000000       0.080
   0.00000000  0.00000000  0.50000000       0.010
   0.20000000  0.00000000  0.50000000       0.020
   0.40000000  0.00000000  0.50000000       0.020
   0.00000000  0.20000000  0.50000000       0.020
   0.20000000  0.20000000  0.50000000       0.040
   0.40000000  0.20000000  0.50000000       0.040
   0.00000000  0.40000000  0.50000000       0.020
   0.20000000  0.40000000  0.50000000       0.040
   0.40000000  0.40000000  0.50000000       0.040
 
 position of ions in fractional coordinates (direct lattice) 
   0.00000000  0.00000000  0.00000000
   0.00000000  0.00000000  0.33333333
   0.00000000  0.00000000  0.66666667
   0.00000000  0.33333333  0.00000000
   0.00000000  0.33333333  0.33333333
   0.00000000  0.33333333  0.66666667
   0.00000000  0.66666667  0.00000000
   0.00000000  0.66666667  0.33333333
   0.00000000  0.66666667  0.66666667
   0.33333333  0.00000000  0.00000000
   0.33333333  0.00000000  0.33333333
   0.33333333  0.00000000  0.66666667
   0.33333333  0.33333333  0.00000000
   0.33333333  0.33333333  0.33333333
   0.33333333  0.33333333  0.66666667
   0.33333333  0.66666667  0.00000000
   0.33333333  0.66666667  0.33333333
   0.33333333  0.66666667  0.66666667
   0.66666667  0.00000000  0.00000000
   0.66666667  0.00000000  0.33333333
   0.66666667  0.00000000  0.66666667
   0.66666667  0.33333333  0.00000000
   0.66666667  0.33333333  0.33333333
   0.66666667  0.33333333  0.66666667
   0.66666667  0.66666667  0.00000000
   0.66666667  0.66666667  0.33333333
   0.66666667  0.66666667  0.66666667
   0.16666667  0.16666667  0.16666667
   0.16666667  0.16666667  0.50000000
   0.16666667  0.16666667  0.83333333
   0.16666667  0.50000000  0.16666667
   0.16666667  0.50000000  0.50000000
   0.16666667  0.50000000  0.83333333
   0.16666667  0.83333333  0.16666667
   0.16666667  0.83333333  0.50000000
   0.16666667  0.83333333  0.83333333
   0.50000000  0.16666667  0.16666667
   0.50000000  0.16666667  0.50000000
   0.50000000  0.16666667  0.83333333
   0.50000000  0.50000000  0.16666667
   0.50000000  0.50000000  0.50000000
   0.50000000  0.50000000  0.83333333
   0.50000000  0.83333333  0.16666667
   0.50000000  0.83333333  0.50000000
   0.50000000  0.83333333  0.83333333
   0.83333333  0.16666667  0.16666667
   0.83333333  0.16666667  0.50000000
   0.83333333  0.16666667  0.83333333
   0.83333333  0.50000000  0.16666667
   0.83333333  0.50000000  0.50000000
   0.83333333  0.50000000  0.83333333
   0.83333333  0.83333333  0.16666667
   0.83333333  0.83333333  0.50000000
   0.83333333  0.83333333  0.83333333
 
 position of ions in cartesian coordinates  (Angst):
   0.00000000  0.00000000  0.00000000
   0.00000000  0.00000000  3.47663713
   0.00000000  0.00000000  6.95327426
   0.00000000  2.75004939  0.00000000
   0.00000000  2.75004939  3.47663713
   0.00000000  2.75004939  6.95327426
   0.00000000  5.50009878  0.00000000
   0.00000000  5.50009878  3.47663713
   0.00000000  5.50009878  6.95327426
   2.75004939  0.00000000  0.00000000
   2.75004939  0.00000000  3.47663713
   2.75004939  0.00000000  6.95327426
   2.75004939  2.75004939  0.00000000
   2.75004939  2.75004939  3.47663713
   2.75004939  2.75004939  6.95327426
   2.75004939  5.50009878  0.00000000
   2.75004939  5.50009878  3.47663713
   2.75004939  5.50009878  6.95327426
   5.50009878  0.00000000  0.00000000
   5.50009878  0.00000000  3.47663713
   5.50009878  0.00000000  6.95327426
   5.50009878  2.75004939  0.00000000
   5.50009878  2.75004939  3.47663713
   5.50009878  2.75004939  6.95327426
   5.50009878  5.50009878  0.00000000
   5.50009878  5.50009878  3.47663713
   5.50009878  5.50009878  6.95327426
   1.37502469  1.37502469  1.73831857
   1.37502469  1.37502469  5.21495570
   1.37502469  1.37502469  8.69159283
   1.37502469  4.12507408  1.73831857
   1.37502469  4.12507408  5.21495570
   1.37502469  4.12507408  8.69159283
   1.37502469  6.87512347  1.73831857
   1.37502469  6.87512347  5.21495570
   1.37502469  6.87512347  8.69159283
   4.12507408  1.37502469  1.73831857
   4.12507408  1.37502469  5.21495570
   4.12507408  1.37502469  8.69159283
   4.12507408  4.12507408  1.73831857
   4.12507408  4.12507408  5.21495570
   4.12507408  4.12507408  8.69159283
   4.12507408  6.87512347  1.73831857
   4.12507408  6.87512347  5.21495570
   4.12507408  6.87512347  8.69159283
   6.87512347  1.37502469  1.73831857
   6.87512347  1.37502469  5.21495570
   6.87512347  1.37502469  8.69159283
   6.87512347  4.12507408  1.73831857
   6.87512347  4.12507408  5.21495570
   6.87512347  4.12507408  8.69159283
   6.87512347  6.87512347  1.73831857
   6.87512347  6.87512347  5.21495570
   6.87512347  6.87512347  8.69159283
 


--------------------------------------------------------------------------------------------------------


 k-point  1 :   0.0000 0.0000 0.0000  plane waves:   13099
 k-point  2 :   0.2000 0.0000 0.0000  plane waves:   13101
 k-point  3 :   0.4000 0.0000 0.0000  plane waves:   13111
 k-point  4 :   0.0000 0.2000 0.0000  plane waves:   13101
 k-point  5 :   0.2000 0.2000 0.0000  plane waves:   13137
 k-point  6 :   0.4000 0.2000 0.0000  plane waves:   13119
 k-point  7 :   0.0000 0.4000 0.0000  plane waves:   13111
 k-point  8 :   0.2000 0.4000 0.0000  plane waves:   13119
 k-point  9 :   0.4000 0.4000 0.0000  plane waves:   13129
 k-point 10 :   0.0000 0.0000 0.2500  plane waves:   13134
 k-point 11 :   0.2000 0.0000 0.2500  plane waves:   13149
 k-point 12 :   0.4000 0.0000 0.2500  plane waves:   13119
 k-point 13 :   0.0000 0.2000 0.2500  plane waves:   13149
 k-point 14 :   0.2000 0.2000 0.2500  plane waves:   13145
 k-point 15 :   0.4000 0.2000 0.2500  plane waves:   13134
 k-point 16 :   0.0000 0.4000 0.2500  plane waves:   13119
 k-point 17 :   0.2000 0.4000 0.2500  plane waves:   13134
 k-point 18 :   0.4000 0.4000 0.2500  plane waves:   13108
 k-point 19 :   0.0000 0.0000 0.5000  plane waves:   13186
 k-point 20 :   0.2000 0.0000 0.5000  plane waves:   13124
 k-point 21 :   0.4000 0.0000 0.5000  plane waves:   13152
 k-point 22 :   0.0000 0.2000 0.5000  plane waves:   13124
 k-point 23 :   0.2000 0.2000 0.5000  plane waves:   13136
 k-point 24 :   0.4000 0.2000 0.5000  plane waves:   13128
 k-point 25 :   0.0000 0.4000 0.5000  plane waves:   13152
 k-point 26 :   0.2000 0.4000 0.5000  plane waves:   13128
 k-point 27 :   0.4000 0.4000 0.5000  plane waves:   13112

 maximum and minimum number of plane-waves per node :      3304     3246

 maximum number of plane-waves:     13186
 maximum index in each direction: 
   IXMAX=   13   IYMAX=   13   IZMAX=   17
   IXMIN=  -13   IYMIN=  -13   IZMIN=  -17


 parallel 3D FFT for wavefunctions:
    minimum data exchange during FFTs selected (reduces bandwidth)
 parallel 3D FFT for charge:
    minimum data exchange during FFTs selected (reduces bandwidth)


 total amount of memory used by VASP MPI-rank0   896646. kBytes
=======================================================================

   base      :      30000. kBytes
   nonl-proj :      28494. kBytes
   fftplans  :      31580. kBytes
   grid      :      21385. kBytes
   one-center:        435. kBytes
   wavefun   :     784752. kBytes
 
     INWAV:  cpu time    0.0000: real time    0.0000
 Broyden mixing: mesh for mixing (old mesh)
   NGX = 27   NGY = 27   NGZ = 35
  (NGX  =108   NGY  =108   NGZ  =140)
  gives a total of  25515 points

 initial charge density was supplied:
 charge density of overlapping atoms calculated
 number of electron     270.0000000 magnetization      21.0000000
 keeping initial charge density in first step


--------------------------------------------------------------------------------------------------------


 Maximum index for augmentation-charges        10967 (set IRDMAX)


--------------------------------------------------------------------------------------------------------


 First call to EWALD:  gamma=   0.199
 Maximum number of real-space cells 3x 3x 2
 Maximum number of reciprocal cells 3x 3x 3

    FEWALD:  cpu time    0.0078: real time    0.0078


--------------------------------------- Iteration      1(   1)  ---------------------------------------


    POTLOK:  cpu time    0.3964: real time    0.3969
    SETDIJ:  cpu time    0.4934: real time    0.4950
    TRIAL :  cpu time   31.7427: real time   32.1054
    CORREC:  cpu time    0.0055: real time    0.0063
    --------------------------------------------
      LOOP:  cpu time   32.9048: real time   33.2779

 eigenvalue-minimisations  : 18792
 total energy-change (2. order) : 0.2036686E+04  (-0.8859799E+04)
 number of electron     270.0000000 magnetization      21.0000000
 augmentation part      270.0000000 magnetization      21.0000000

 Free energy of the ion-electron system (eV)
  ---------------------------------------------------
  alpha Z        PSCENC =       798.38614055
  Ewald energy   TEWEN  =    -12901.57693327
  -Hartree energ DENC   =     -2855.60785864
  -exchange      EXHF   =         0.00000000
  -V(xc)+E(xc)   XCENC  =      -996.21243440
  PAW double counting   =     12741.82587617   -11476.22345381
  entropy T*S    EENTRO =        -0.00367299
  eigenvalues    EBANDS =      4028.42457209
  atomic energy  EATOM  =     12697.67401269
  ---------------------------------------------------
  free energy    TOTEN  =      2036.68624837 eV

  energy without entropy =     2036.68992136  energy(sigma->0) =     2036.68747270


--------------------------------------------------------------------------------------------------------




--------------------------------------- Iteration      1(   2)  ---------------------------------------


    TRIAL :  cpu time   31.4632: real time   32.4440
    CORREC:  cpu time    0.0069: real time    0.0070
    --------------------------------------------
      LOOP:  cpu time   31.4711: real time   32.4540

 eigenvalue-minimisations  : 18792
 total energy-change (2. order) :-0.2131806E+04  (-0.2073646E+04)
 number of electron     270.0000000 magnetization      21.0000000
 augmentation part      270.0000000 magnetization      21.0000000

 Free energy of the ion-electron system (eV)
  ---------------------------------------------------
  alpha Z        PSCENC =       798.38614055
  Ewald energy   TEWEN  =    -12901.57693327
  -Hartree energ DENC   =     -2855.60785864
  -exchange      EXHF   =         0.00000000
  -V(xc)+E(xc)   XCENC  =      -996.21243440
  PAW double counting   =     12741.82587617   -11476.22345381
  entropy T*S    EENTRO =         0.00204654
  eigenvalues    EBANDS =      1896.61244660
  atomic energy  EATOM  =     12697.67401269
  ---------------------------------------------------
  free energy    TOTEN  =       -95.12015758 eV

  energy without entropy =      -95.12220412  energy(sigma->0) =      -95.12083976


--------------------------------------------------------------------------------------------------------




--------------------------------------- Iteration      1(   3)  ---------------------------------------


    TRIAL :  cpu time   44.6403: real time   45.0036
    CORREC:  cpu time    0.0078: real time    0.0087
    --------------------------------------------
      LOOP:  cpu time   44.6490: real time   45.0153

 eigenvalue-minimisations  : 28192
 total energy-change (2. order) :-0.2615103E+03  (-0.2304890E+03)
 number of electron     270.0000000 magnetization      21.0000000
 augmentation part      270.0000000 magnetization      21.0000000

 Free energy of the ion-electron system (eV)
  ---------------------------------------------------
  alpha Z        PSCENC =       798.38614055
  Ewald energy   TEWEN  =    -12901.57693327
  -Hartree energ DENC   =     -2855.60785864
  -exchange      EXHF   =         0.00000000
  -V(xc)+E(xc)   XCENC  =      -996.21243440
  PAW double counting   =     12741.82587617   -11476.22345381
  entropy T*S    EENTRO =         0.00968901
  eigenvalues    EBANDS =      1635.09450317
  atomic energy  EATOM  =     12697.67401269
  ---------------------------------------------------
  free energy    TOTEN  =      -356.63045854 eV

  energy without entropy =     -356.64014755  energy(sigma->0) =     -356.63368821


--------------------------------------------------------------------------------------------------------




--------------------------------------- Iteration      1(   4)  ---------------------------------------


    TRIAL :  cpu time   47.0032: real time   47.3658
    CORREC:  cpu time    0.0525: real time    0.0534
    --------------------------------------------
      LOOP:  cpu time   47.0576: real time   47.4224

 eigenvalue-minimisations  : 30600
 total energy-change (2. order) :-0.4287015E+02  (-0.3763239E+02)
 number of electron     270.0000000 magnetization      21.0000000
 augmentation part      270.0000000 magnetization      21.0000000

 Free energy of the ion-electron system (eV)
  ---------------------------------------------------
  alpha Z        PSCENC =       798.38614055
  Ewald energy   TEWEN  =    -12901.57693327
  -Hartree energ DENC   =     -2855.60785864
  -exchange      EXHF   =         0.00000000
  -V(xc)+E(xc)   XCENC  =      -996.21243440
  PAW double counting   =     12741.82587617   -11476.22345381
  entropy T*S    EENTRO =         0.02561346
  eigenvalues    EBANDS =      1592.20842597
  atomic energy  EATOM  =     12697.67401269
  ---------------------------------------------------
  free energy    TOTEN  =      -399.50061129 eV

  energy without entropy =     -399.52622475  energy(sigma->0) =     -399.50914911


--------------------------------------------------------------------------------------------------------




--------------------------------------- Iteration      1(   5)  ---------------------------------------


    TRIAL :  cpu time   47.4975: real time   48.5562
    CORREC:  cpu time    0.0084: real time    0.0094
    --------------------------------------------
      LOOP:  cpu time   47.5069: real time   48.5689

 eigenvalue-minimisations  : 31088
 total energy-change (2. order) :-0.4310720E+01  (-0.4113363E+01)
 number of electron     270.0000000 magnetization      21.0000000
 augmentation part      270.0000000 magnetization      21.0000000

 Free energy of the ion-electron system (eV)
  ---------------------------------------------------
  alpha Z        PSCENC =       798.38614055
  Ewald energy   TEWEN  =    -12901.57693327
  -Hartree energ DENC   =     -2855.60785864
  -exchange      EXHF   =         0.00000000
  -V(xc)+E(xc)   XCENC  =      -996.21243440
  PAW double counting   =     12741.82587617   -11476.22345381
  entropy T*S    EENTRO =         0.02601506
  eigenvalues    EBANDS =      1587.89730455
  atomic energy  EATOM  =     12697.67401269
  ---------------------------------------------------
  free energy    TOTEN  =      -403.81133111 eV

  energy without entropy =     -403.83734617  energy(sigma->0) =     -403.82000280


--------------------------------------------------------------------------------------------------------




--------------------------------------- Iteration      1(   6)  ---------------------------------------


    TRIAL :  cpu time   47.9091: real time   48.5202
    CORREC:  cpu time    0.0085: real time    0.0094
    --------------------------------------------
      LOOP:  cpu time   47.9189: real time   48.5328

 eigenvalue-minimisations  : 30952
 total energy-change (2. order) :-0.3461543E+00  (-0.3391686E+00)
 number of electron     270.0000000 magnetization      21.0000000
 augmentation part      270.0000000 magnetization      21.0000000

 Free energy of the ion-electron system (eV)
  ---------------------------------------------------
  alpha Z        PSCENC =       798.38614055
  Ewald energy   TEWEN  =    -12901.57693327
  -Hartree energ DENC   =     -2855.60785864
  -exchange      EXHF   =         0.00000000
  -V(xc)+E(xc)   XCENC  =      -996.21243440
  PAW double counting   =     12741.82587617   -11476.22345381
  entropy T*S    EENTRO =         0.02717627
  eigenvalues    EBANDS =      1587.54998906
  atomic energy  EATOM  =     12697.67401269
  ---------------------------------------------------
  free energy    TOTEN  =      -404.15748540 eV

  energy without entropy =     -404.18466167  energy(sigma->0) =     -404.16654416


--------------------------------------------------------------------------------------------------------




--------------------------------------- Iteration      1(   7)  ---------------------------------------


    TRIAL :  cpu time   47.1243: real time   48.1599
    CORREC:  cpu time    0.0081: real time    0.0082
    --------------------------------------------
      LOOP:  cpu time   47.1337: real time   48.1716

 eigenvalue-minimisations  : 31480
 total energy-change (2. order) :-0.3697924E-01  (-0.3663643E-01)
 number of electron     270.0000000 magnetization      21.0000000
 augmentation part      270.0000000 magnetization      21.0000000

 Free energy of the ion-electron system (eV)
  ---------------------------------------------------
  alpha Z        PSCENC =       798.38614055
  Ewald energy   TEWEN  =    -12901.57693327
  -Hartree energ DENC   =     -2855.60785864
  -exchange      EXHF   =         0.00000000
  -V(xc)+E(xc)   XCENC  =      -996.21243440
  PAW double counting   =     12741.82587617   -11476.22345381
  entropy T*S    EENTRO =         0.02752760
  eigenvalues    EBANDS =      1587.51265848
  atomic energy  EATOM  =     12697.67401269
  ---------------------------------------------------
  free energy    TOTEN  =      -404.19446464 eV

  energy without entropy =     -404.22199224  energy(sigma->0) =     -404.20364051


--------------------------------------------------------------------------------------------------------




--------------------------------------- Iteration      1(   8)  ---------------------------------------


    TRIAL :  cpu time   47.2338: real time   48.2606
    CORREC:  cpu time    0.0085: real time    0.0094
    CHARGE:  cpu time    1.5537: real time    1.5536
    --------------------------------------------
      LOOP:  cpu time   48.7972: real time   49.8268

 eigenvalue-minimisations  : 30472
 total energy-change (2. order) :-0.3010896E-02  (-0.2993915E-02)
 number of electron     269.9999995 magnetization      15.0980202
 augmentation part       64.1768656 magnetization       8.6980855

 Free energy of the ion-electron system (eV)
  ---------------------------------------------------
  alpha Z        PSCENC =       798.38614055
  Ewald energy   TEWEN  =    -12901.57693327
  -Hartree energ DENC   =     -2855.60785864
  -exchange      EXHF   =         0.00000000
  -V(xc)+E(xc)   XCENC  =      -996.21243440
  PAW double counting   =     12741.82587617   -11476.22345381
  entropy T*S    EENTRO =         0.02759480
  eigenvalues    EBANDS =      1587.50958039
  atomic energy  EATOM  =     12697.67401269
  ---------------------------------------------------
  free energy    TOTEN  =      -404.19747553 eV

  energy without entropy =     -404.22507033  energy(sigma->0) =     -404.20667380


--------------------------------------------------------------------------------------------------------




--------------------------------------- Iteration      1(   9)  ---------------------------------------


    POTLOK:  cpu time    0.3978: real time    0.3979
    SETDIJ:  cpu time    0.4674: real time    0.4674
    TRIAL :  cpu time   16.6479: real time   16.7833
    CORREC:  cpu time    5.1108: real time    5.1408
    CHARGE:  cpu time    1.5787: real time    1.5885
    --------------------------------------------
      LOOP:  cpu time   24.2042: real time   24.3800

 eigenvalue-minimisations  :     0
 total energy-change (2. order) : 0.2997473E+03  (-0.2199291E+03)
 number of electron     269.9999993 magnetization      15.7312264
 augmentation part       82.9285971 magnetization      10.3756764

 Free energy of the ion-electron system (eV)
  ---------------------------------------------------
  alpha Z        PSCENC =       798.38614055
  Ewald energy   TEWEN  =    -12901.57693327
  -Hartree energ DENC   =     -1271.25074607
  -exchange      EXHF   =         0.00000000
  -V(xc)+E(xc)   XCENC  =     -1041.61886848
  PAW double counting   =     19167.37679005   -17747.86528281
  entropy T*S    EENTRO =         0.03237312
  eigenvalues    EBANDS =       194.39708612
  atomic energy  EATOM  =     12697.67401269
  ---------------------------------------------------
  free energy    TOTEN  =      -104.45020641 eV

  energy without entropy =     -104.48257954  energy(sigma->0) =     -104.46099745


--------------------------------------------------------------------------------------------------------




--------------------------------------- Iteration      1(  10)  ---------------------------------------


    POTLOK:  cpu time    0.3927: real time    0.3928
    SETDIJ:  cpu time    0.4604: real time    0.4607
    TRIAL :  cpu time   16.0331: real time   16.1668
    CORREC:  cpu time    5.9563: real time    5.9754
    CHARGE:  cpu time    1.5359: real time    1.5361
    --------------------------------------------
      LOOP:  cpu time   24.3798: real time   24.5339

 eigenvalue-minimisations  :     0
 total energy-change (2. order) :-0.2150412E+03  (-0.1192530E+02)
 number of electron     269.9999993 magnetization      16.0978044
 augmentation part       86.9875530 magnetization      10.9082522

 Free energy of the ion-electron system (eV)
  ---------------------------------------------------
  alpha Z        PSCENC =       798.38614055
  Ewald energy   TEWEN  =    -12901.57693327
  -Hartree energ DENC   =     -2129.20720140
  -exchange      EXHF   =         0.00000000
  -V(xc)+E(xc)   XCENC  =     -1011.46015967
  PAW double counting   =     20769.85166356   -19536.74190760
  entropy T*S    EENTRO =         0.02804226
  eigenvalues    EBANDS =       993.55065069
  atomic energy  EATOM  =     12697.67401269
  ---------------------------------------------------
  free energy    TOTEN  =      -319.49136133 eV

  energy without entropy =     -319.51940360  energy(sigma->0) =     -319.50070875


--------------------------------------------------------------------------------------------------------




--------------------------------------- Iteration      1(  11)  ---------------------------------------


    POTLOK:  cpu time    0.3920: real time    0.3925
    SETDIJ:  cpu time    0.4693: real time    0.4700
    TRIAL :  cpu time   16.6630: real time   16.7674
    CORREC:  cpu time    5.1247: real time    5.2177
    CHARGE:  cpu time    1.5459: real time    2.1951
    --------------------------------------------
      LOOP:  cpu time   24.1962: real time   25.0448

 eigenvalue-minimisations  :     0
 total energy-change (2. order) :-0.1163182E+02  (-0.1089854E+02)
 number of electron     269.9999992 magnetization      16.3991179
 augmentation part       88.9573543 magnetization      11.2863726

 Free energy of the ion-electron system (eV)
  ---------------------------------------------------
  alpha Z        PSCENC =       798.38614055
  Ewald energy   TEWEN  =    -12901.57693327
  -Hartree energ DENC   =     -2377.79026922
  -exchange      EXHF   =         0.00000000
  -V(xc)+E(xc)   XCENC  =     -1002.56345185
  PAW double counting   =     21682.74574687   -20488.50239948
  entropy T*S    EENTRO =         0.02325815
  eigenvalues    EBANDS =      1260.47593153
  atomic energy  EATOM  =     12697.67401269
  ---------------------------------------------------
  free energy    TOTEN  =      -331.12317991 eV

  energy without entropy =     -331.14643806  energy(sigma->0) =     -331.13093263


--------------------------------------------------------------------------------------------------------




--------------------------------------- Iteration      1(  12)  ---------------------------------------


    POTLOK:  cpu time    0.3923: real time    0.3923
    SETDIJ:  cpu time    0.4805: real time    0.4804
    TRIAL :  cpu time   15.9858: real time   16.0468
    CORREC:  cpu time    5.1571: real time    5.2274
    CHARGE:  cpu time    1.5490: real time    1.5616
    --------------------------------------------
      LOOP:  cpu time   23.5723: real time   23.7165

 eigenvalue-minimisations  :     0
 total energy-change (2. order) :-0.1097259E+02  (-0.1026274E+02)
 number of electron     269.9999993 magnetization      16.4259856
 augmentation part       87.0425665 magnetization      11.3032971

 Free energy of the ion-electron system (eV)
  ---------------------------------------------------
  alpha Z        PSCENC =       798.38614055
  Ewald energy   TEWEN  =    -12901.57693327
  -Hartree energ DENC   =     -2556.73942177
  -exchange      EXHF   =         0.00000000
  -V(xc)+E(xc)   XCENC  =      -996.60496394
  PAW double counting   =     21781.84698210   -20592.20509311
  entropy T*S    EENTRO =         0.01054618
  eigenvalues    EBANDS =      1427.10024764
  atomic energy  EATOM  =     12697.67401269
  ---------------------------------------------------
  free energy    TOTEN  =      -342.09577096 eV

  energy without entropy =     -342.10631714  energy(sigma->0) =     -342.09928635


--------------------------------------------------------------------------------------------------------




--------------------------------------- Iteration      1(  13)  ---------------------------------------


    POTLOK:  cpu time    0.3929: real time    0.3930
    SETDIJ:  cpu time    0.4558: real time    0.4558
    TRIAL :  cpu time   16.3366: real time   16.4553
    CORREC:  cpu time    5.5718: real time    5.8780
    CHARGE:  cpu time    1.5548: real time    1.5555
    --------------------------------------------
      LOOP:  cpu time   24.3132: real time   24.7397

 eigenvalue-minimisations  :     0
 total energy-change (2. order) :-0.1032507E+02  (-0.1003269E+01)
 number of electron     269.9999993 magnetization      16.3975990
 augmentation part       86.3374272 magnetization      11.2746381

 Free energy of the ion-electron system (eV)
  ---------------------------------------------------
  alpha Z        PSCENC =       798.38614055
  Ewald energy   TEWEN  =    -12901.57693327
  -Hartree energ DENC   =     -2534.57638582
  -exchange      EXHF   =         0.00000000
  -V(xc)+E(xc)   XCENC  =      -998.19880209
  PAW double counting   =     21248.22450513   -20013.31391018
  entropy T*S    EENTRO =         0.00587806
  eigenvalues    EBANDS =      1350.94998313
  atomic energy  EATOM  =     12697.67401269
  ---------------------------------------------------
  free energy    TOTEN  =      -352.42084368 eV

  energy without entropy =     -352.42672174  energy(sigma->0) =     -352.42280303


--------------------------------------------------------------------------------------------------------




--------------------------------------- Iteration      1(  14)  ---------------------------------------


    POTLOK:  cpu time    0.3999: real time    0.4023
    SETDIJ:  cpu time    0.4546: real time    0.4546
    TRIAL :  cpu time   16.5494: real time   17.0425
    CORREC:  cpu time    5.1243: real time    5.1694
    CHARGE:  cpu time    1.5602: real time    1.5604
    --------------------------------------------
      LOOP:  cpu time   24.0924: real time   24.6344

 eigenvalue-minimisations  :     0
 total energy-change (2. order) :-0.9686970E+00  (-0.1111464E+01)
 number of electron     269.9999993 magnetization      16.4295886
 augmentation part       85.7943341 magnetization      11.1752317

 Free energy of the ion-electron system (eV)
  ---------------------------------------------------
  alpha Z        PSCENC =       798.38614055
  Ewald energy   TEWEN  =    -12901.57693327
  -Hartree energ DENC   =     -2498.74736030
  -exchange      EXHF   =         0.00000000
  -V(xc)+E(xc)   XCENC  =      -999.51180220
  PAW double counting   =     20950.30587945   -19704.29599493
  entropy T*S    EENTRO =         0.00220122
  eigenvalues    EBANDS =      1304.37063925
  atomic energy  EATOM  =     12697.67401269
  ---------------------------------------------------
  free energy    TOTEN  =      -353.38954069 eV

  energy without entropy =     -353.39174191  energy(sigma->0) =     -353.39027443


--------------------------------------------------------------------------------------------------------




--------------------------------------- Iteration      1(  15)  ---------------------------------------


    POTLOK:  cpu time    0.3920: real time    0.3919
    SETDIJ:  cpu time    0.4803: real time    0.4804
    TRIAL :  cpu time   16.0575: real time   16.2100
    CORREC:  cpu time    5.7242: real time    5.7469
    CHARGE:  cpu time    1.5443: real time    1.5447
    --------------------------------------------
      LOOP:  cpu time   24.2039: real time   24.3797

 eigenvalue-minimisations  :     0
 total energy-change (2. order) :-0.1110603E+01  (-0.8634621E+00)
 number of electron     269.9999992 magnetization      16.4503711
 augmentation part       86.6824055 magnetization      11.1909885

 Free energy of the ion-electron system (eV)
  ---------------------------------------------------
  alpha Z        PSCENC =       798.38614055
  Ewald energy   TEWEN  =    -12901.57693327
  -Hartree energ DENC   =     -2458.39906725
  -exchange      EXHF   =         0.00000000
  -V(xc)+E(xc)   XCENC  =     -1000.88555039
  PAW double counting   =     20239.37992259   -18982.41326176
  entropy T*S    EENTRO =        -0.00160621
  eigenvalues    EBANDS =      1253.33239167
  atomic energy  EATOM  =     12697.67401269
  ---------------------------------------------------
  free energy    TOTEN  =      -354.50014394 eV

  energy without entropy =     -354.49853773  energy(sigma->0) =     -354.49960854


--------------------------------------------------------------------------------------------------------




--------------------------------------- Iteration      1(  16)  ---------------------------------------


    POTLOK:  cpu time    0.3923: real time    0.3924
    SETDIJ:  cpu time    0.4628: real time    0.4628
    TRIAL :  cpu time   16.7208: real time   16.7751
    CORREC:  cpu time    5.6708: real time    5.7953
    CHARGE:  cpu time    1.5762: real time    1.5774
    --------------------------------------------
      LOOP:  cpu time   24.8243: real time   25.0053

 eigenvalue-minimisations  :     0
 total energy-change (2. order) :-0.8635054E+00  (-0.1960801E+00)
 number of electron     269.9999992 magnetization      16.4080236
 augmentation part       87.0387906 magnetization      11.2030367

 Free energy of the ion-electron system (eV)
  ---------------------------------------------------
  alpha Z        PSCENC =       798.38614055
  Ewald energy   TEWEN  =    -12901.57693327
  -Hartree energ DENC   =     -2490.05076196
  -exchange      EXHF   =         0.00000000
  -V(xc)+E(xc)   XCENC  =      -999.55870222
  PAW double counting   =     19731.16296776   -18480.50523479
  entropy T*S    EENTRO =        -0.00408831
  eigenvalues    EBANDS =      1289.10646805
  atomic energy  EATOM  =     12697.67401269
  ---------------------------------------------------
  free energy    TOTEN  =      -355.36364939 eV

  energy without entropy =     -355.35956108  energy(sigma->0) =     -355.36228662


--------------------------------------------------------------------------------------------------------




--------------------------------------- Iteration      1(  17)  ---------------------------------------


    POTLOK:  cpu time    0.3922: real time    0.3923
    SETDIJ:  cpu time    0.4870: real time    0.4871
    TRIAL :  cpu time   16.0249: real time   16.0813
    CORREC:  cpu time    5.1455: real time    5.2086
    CHARGE:  cpu time    1.5618: real time    1.6127
    --------------------------------------------
      LOOP:  cpu time   23.6488: real time   23.8202

 eigenvalue-minimisations  :     0
 total energy-change (2. order) :-0.1966037E+00  (-0.2155688E+00)
 number of electron     269.9999992 magnetization      16.3895203
 augmentation part       87.2938721 magnetization      11.2747155

 Free energy of the ion-electron system (eV)
  ---------------------------------------------------
  alpha Z        PSCENC =       798.38614055
  Ewald energy   TEWEN  =    -12901.57693327
  -Hartree energ DENC   =     -2505.07264166
  -exchange      EXHF   =         0.00000000
  -V(xc)+E(xc)   XCENC  =      -998.90083735
  PAW double counting   =     19641.32935581   -18394.07823010
  entropy T*S    EENTRO =        -0.00607981
  eigenvalues    EBANDS =      1306.68296855
  atomic energy  EATOM  =     12697.67401269
  ---------------------------------------------------
  free energy    TOTEN  =      -355.56025310 eV

  energy without entropy =     -355.55417329  energy(sigma->0) =     -355.55822650


--------------------------------------------------------------------------------------------------------




--------------------------------------- Iteration      1(  18)  ---------------------------------------


    POTLOK:  cpu time    0.3921: real time    0.3922
    SETDIJ:  cpu time    0.4603: real time    0.4603
    TRIAL :  cpu time   17.0908: real time   17.2051
    CORREC:  cpu time    5.1175: real time    5.1230
    CHARGE:  cpu time    1.5755: real time    1.5758
    --------------------------------------------
      LOOP:  cpu time   24.6379: real time   24.7587

 eigenvalue-minimisations  :     0
 total energy-change (2. order) :-0.2155381E+00  (-0.1846518E+00)
 number of electron     269.9999992 magnetization      16.3801179
 augmentation part       87.1858962 magnetization      11.3302127

 Free energy of the ion-electron system (eV)
  ---------------------------------------------------
  alpha Z        PSCENC =       798.38614055
  Ewald energy   TEWEN  =    -12901.57693327
  -Hartree energ DENC   =     -2515.04690592
  -exchange      EXHF   =         0.00000000
  -V(xc)+E(xc)   XCENC  =      -998.26362249
  PAW double counting   =     19564.40946012   -18319.85646303
  entropy T*S    EENTRO =        -0.00737304
  eigenvalues    EBANDS =      1318.50459998
  atomic energy  EATOM  =     12697.67401269
  ---------------------------------------------------
  free energy    TOTEN  =      -355.77579118 eV

  energy without entropy =     -355.76841814  energy(sigma->0) =     -355.77333350


--------------------------------------------------------------------------------------------------------




--------------------------------------- Iteration      1(  19)  ---------------------------------------


    POTLOK:  cpu time    0.3924: real time    0.3924
    SETDIJ:  cpu time    0.4602: real time    0.4602
    TRIAL :  cpu time   16.5481: real time   17.0587
    CORREC:  cpu time    5.1143: real time    5.1176
    CHARGE:  cpu time    1.5657: real time    1.5844
    --------------------------------------------
      LOOP:  cpu time   24.0823: real time   24.6152

 eigenvalue-minimisations  :     0
 total energy-change (2. order) :-0.1841946E+00  (-0.6228024E-01)
 number of electron     269.9999992 magnetization      16.3674016
 augmentation part       86.9398976 magnetization      11.3521298

 Free energy of the ion-electron system (eV)
  ---------------------------------------------------
  alpha Z        PSCENC =       798.38614055
  Ewald energy   TEWEN  =    -12901.57693327
  -Hartree energ DENC   =     -2507.28428984
  -exchange      EXHF   =         0.00000000
  -V(xc)+E(xc)   XCENC  =      -998.25409949
  PAW double counting   =     19505.13733409   -18259.48510810
  entropy T*S    EENTRO =        -0.00805566
  eigenvalues    EBANDS =      1309.45033068
  atomic energy  EATOM  =     12697.67401269
  ---------------------------------------------------
  free energy    TOTEN  =      -355.95998574 eV

  energy without entropy =     -355.95193008  energy(sigma->0) =     -355.95730052


--------------------------------------------------------------------------------------------------------




--------------------------------------- Iteration      1(  20)  ---------------------------------------


    POTLOK:  cpu time    0.3933: real time    0.3933
    SETDIJ:  cpu time    0.4617: real time    0.4618
    TRIAL :  cpu time   16.7244: real time   16.8720
    CORREC:  cpu time    5.0767: real time    5.0782
    CHARGE:  cpu time    1.5895: real time    1.6030
    --------------------------------------------
      LOOP:  cpu time   24.2526: real time   24.4166

 eigenvalue-minimisations  :     0
 total energy-change (2. order) :-0.6218652E-01  (-0.4716105E-01)
 number of electron     269.9999992 magnetization      16.3861734
 augmentation part       86.8019050 magnetization      11.3809988

 Free energy of the ion-electron system (eV)
  ---------------------------------------------------
  alpha Z        PSCENC =       798.38614055
  Ewald energy   TEWEN  =    -12901.57693327
  -Hartree energ DENC   =     -2494.88501441
  -exchange      EXHF   =         0.00000000
  -V(xc)+E(xc)   XCENC  =      -998.58093486
  PAW double counting   =     19481.05604679   -18232.89446766
  entropy T*S    EENTRO =        -0.00865072
  eigenvalues    EBANDS =      1294.80703358
  atomic energy  EATOM  =     12697.67401269
  ---------------------------------------------------
  free energy    TOTEN  =      -356.02217226 eV

  energy without entropy =     -356.01352154  energy(sigma->0) =     -356.01928869


--------------------------------------------------------------------------------------------------------




--------------------------------------- Iteration      1(  21)  ---------------------------------------


    POTLOK:  cpu time    0.3918: real time    0.3918
    SETDIJ:  cpu time    0.4504: real time    0.4606
    TRIAL :  cpu time   16.2143: real time   16.8239
    CORREC:  cpu time    5.7633: real time    5.7850
    CHARGE:  cpu time    1.5358: real time    1.5363
    --------------------------------------------
      LOOP:  cpu time   24.3598: real time   25.0019

 eigenvalue-minimisations  :     0
 total energy-change (2. order) :-0.4710912E-01  (-0.5965893E-01)
 number of electron     269.9999992 magnetization      16.4184432
 augmentation part       86.8256816 magnetization      11.4432471

 Free energy of the ion-electron system (eV)
  ---------------------------------------------------
  alpha Z        PSCENC =       798.38614055
  Ewald energy   TEWEN  =    -12901.57693327
  -Hartree energ DENC   =     -2489.33091133
  -exchange      EXHF   =         0.00000000
  -V(xc)+E(xc)   XCENC  =      -998.67672153
  PAW double counting   =     19476.00183248   -18226.66494020
  entropy T*S    EENTRO =        -0.00951862
  eigenvalues    EBANDS =      1288.12688994
  atomic energy  EATOM  =     12697.67401269
  ---------------------------------------------------
  free energy    TOTEN  =      -356.06928138 eV

  energy without entropy =     -356.05976276  energy(sigma->0) =     -356.06610851


--------------------------------------------------------------------------------------------------------




--------------------------------------- Iteration      1(  22)  ---------------------------------------


    POTLOK:  cpu time    0.3933: real time    0.3934
    SETDIJ:  cpu time    0.4736: real time    0.4735
    TRIAL :  cpu time   16.0780: real time   16.2212
    CORREC:  cpu time    5.0815: real time    5.1434
    CHARGE:  cpu time    1.5627: real time    1.5632
    --------------------------------------------
      LOOP:  cpu time   23.5913: real time   23.7976

 eigenvalue-minimisations  :     0
 total energy-change (2. order) :-0.5959243E-01  (-0.2525945E-01)
 number of electron     269.9999992 magnetization      16.4057918
 augmentation part       86.9224496 magnetization      11.4598284

 Free energy of the ion-electron system (eV)
  ---------------------------------------------------
  alpha Z        PSCENC =       798.38614055
  Ewald energy   TEWEN  =    -12901.57693327
  -Hartree energ DENC   =     -2493.62794769
  -exchange      EXHF   =         0.00000000
  -V(xc)+E(xc)   XCENC  =      -998.37833676
  PAW double counting   =     19495.45866834   -18246.99350181
  entropy T*S    EENTRO =        -0.00980512
  eigenvalues    EBANDS =      1292.93854276
  atomic energy  EATOM  =     12697.67401269
  ---------------------------------------------------
  free energy    TOTEN  =      -356.12887381 eV

  energy without entropy =     -356.11906870  energy(sigma->0) =     -356.12560544


--------------------------------------------------------------------------------------------------------




--------------------------------------- Iteration      1(  23)  ---------------------------------------


    POTLOK:  cpu time    0.3925: real time    0.3925
    SETDIJ:  cpu time    0.4718: real time    0.4718
    TRIAL :  cpu time   16.7734: real time   16.8422
    CORREC:  cpu time    5.1010: real time    5.1077
    CHARGE:  cpu time    1.5657: real time    1.5658
    --------------------------------------------
      LOOP:  cpu time   24.3073: real time   24.3830

 eigenvalue-minimisations  :     0
 total energy-change (2. order) :-0.2528510E-01  (-0.1134130E-01)
 number of electron     269.9999992 magnetization      16.4204130
 augmentation part       86.9731936 magnetization      11.4701098

 Free energy of the ion-electron system (eV)
  ---------------------------------------------------
  alpha Z        PSCENC =       798.38614055
  Ewald energy   TEWEN  =    -12901.57693327
  -Hartree energ DENC   =     -2500.07919647
  -exchange      EXHF   =         0.00000000
  -V(xc)+E(xc)   XCENC  =      -998.08596451
  PAW double counting   =     19511.99398407   -18264.85603714
  entropy T*S    EENTRO =        -0.00974508
  eigenvalues    EBANDS =      1300.39964029
  atomic energy  EATOM  =     12697.67401269
  ---------------------------------------------------
  free energy    TOTEN  =      -356.15415891 eV

  energy without entropy =     -356.14441383  energy(sigma->0) =     -356.15091055


--------------------------------------------------------------------------------------------------------




--------------------------------------- Iteration      1(  24)  ---------------------------------------


    POTLOK:  cpu time    0.3925: real time    0.3926
    SETDIJ:  cpu time    0.4593: real time    0.4593
    TRIAL :  cpu time   16.6750: real time   16.8917
    CORREC:  cpu time    5.1260: real time    5.1476
    CHARGE:  cpu time    1.5720: real time    1.5726
    --------------------------------------------
      LOOP:  cpu time   24.2270: real time   24.4676

 eigenvalue-minimisations  :     0
 total energy-change (2. order) :-0.1134831E-01  (-0.1320568E-01)
[...]
   45        0.019   0.017   2.370   2.406
   46       -0.025  -0.015  -2.417  -2.458
   47       -0.025  -0.023  -2.384  -2.432
   48        0.013   0.023   2.233   2.269
   49        0.021   0.020   2.370   2.411
   50       -0.011  -0.013  -2.261  -2.285
   51        0.018   0.017   2.356   2.392
   52        0.022   0.019   2.377   2.418
   53       -0.011  -0.014  -2.274  -2.298
   54        0.019   0.016   2.372   2.408
--------------------------------------------------
tot         -0.016  -0.100  16.520  16.404
 
    FORLOC:  cpu time    0.0579: real time    0.0579
    FORNL :  cpu time   23.9901: real time   24.1598
    STRESS:  cpu time   35.5747: real time   36.6338
    FORCOR:  cpu time    0.4559: real time    0.4559
    OFIELD:  cpu time    0.0022: real time    0.0022

  FORCE on cell =-STRESS in cart. coord.  units (eV):
  Direction    XX          YY          ZZ          XY          YZ          ZX
  --------------------------------------------------------------------------------------
  Alpha Z   798.38614   798.38614   798.38614
  Ewald   -4053.61603 -4053.61603 -4794.40593    -0.00000    -0.00000    -0.00000
  Hartree  1084.61332  1082.78924   333.10345    -0.00000    -0.00000    -0.00000
  E(xc)   -1141.77311 -1141.55455 -1140.06898     0.00000     0.00000    -0.00000
  Local     367.70125   370.84644  1903.92799     0.00000     0.00000    -0.00000
  n-local  -168.66908  -168.48225  -174.87072     0.08260    -0.23082    -0.28606
  augment   785.00454   784.15043   768.22808     0.00000     0.00001     0.00001
  Kinetic  2335.56432  2333.71376  2309.14487    -1.72354    -1.22154    -1.31574
  Fock        0.00000     0.00000     0.00000     0.00000     0.00000     0.00000
  -------------------------------------------------------------------------------------
  Total       7.21135     6.23318     3.44490     0.00000     0.00000     0.00000
  in kB      16.27507    14.06748     7.77470     0.00000     0.00000     0.00000
  external pressure =       12.71 kB  Pullay stress =        0.00 kB


 VOLUME and BASIS-vectors are now :
 -----------------------------------------------------------------------------
  energy-cutoff  :      404.80
  volume of cell :      709.91
      direct lattice vectors                 reciprocal lattice vectors
     8.250148166  0.000000000  0.000000000     0.121209944  0.000000000  0.000000000
     0.000000000  8.250148166  0.000000000     0.000000000  0.121209944  0.000000000
     0.000000000  0.000000000 10.429911392     0.000000000  0.000000000  0.095878092

  length of vectors
     8.250148166  8.250148166 10.429911392     0.121209944  0.121209944  0.095878092


 FORCES acting on ions:
    Electron-Ion                     Ewald-Force                    Non-Local-Force
 -----------------------------------------------------------------------------------------------
   0.234E-01 -.470E-01 -.324E-01   -.239E-08 -.239E-08 -.210E-08   0.366E-01 -.383E-01 -.163E-01
   -.925E-02 -.647E-01 0.503E-01   -.239E-08 -.239E-08 0.171E-08   0.143E-01 0.117E+00 -.374E-01
   -.160E+00 -.152E+00 0.278E-01   -.239E-08 -.239E-08 0.861E-08   0.935E-01 0.106E+00 0.212E-01
   0.234E-01 0.470E-01 -.324E-01   -.239E-08 -.802E-09 -.210E-08   0.366E-01 0.383E-01 -.163E-01
   -.925E-02 0.647E-01 0.503E-01   -.239E-08 -.802E-09 0.171E-08   0.143E-01 -.117E+00 -.374E-01
   -.160E+00 0.152E+00 0.278E-01   -.239E-08 -.802E-09 0.861E-08   0.935E-01 -.106E+00 0.212E-01
   -.311E-01 -.328E-08 -.195E-01   -.239E-08 0.631E-08 -.210E-08   0.923E-02 0.000E+00 0.611E-01
   -.474E-02 -.328E-08 0.574E-01   -.239E-08 0.631E-08 0.171E-08   0.110E-01 0.000E+00 -.624E-01
   0.173E-01 -.328E-08 -.118E+00   -.239E-08 0.631E-08 0.861E-08   -.843E-02 -.407E-19 0.689E-01
   -.234E-01 -.470E-01 -.324E-01   -.802E-09 -.239E-08 -.210E-08   -.366E-01 -.383E-01 -.163E-01
   0.925E-02 -.647E-01 0.503E-01   -.802E-09 -.239E-08 0.171E-08   -.143E-01 0.117E+00 -.374E-01
   0.160E+00 -.152E+00 0.278E-01   -.803E-09 -.239E-08 0.861E-08   -.935E-01 0.106E+00 0.212E-01
   -.234E-01 0.470E-01 -.324E-01   -.802E-09 -.802E-09 -.210E-08   -.366E-01 0.383E-01 -.163E-01
   0.925E-02 0.647E-01 0.503E-01   -.802E-09 -.802E-09 0.171E-08   -.143E-01 -.117E+00 -.374E-01
   0.160E+00 0.152E+00 0.278E-01   -.803E-09 -.802E-09 0.861E-08   -.935E-01 -.106E+00 0.212E-01
   0.311E-01 -.328E-08 -.195E-01   -.802E-09 0.631E-08 -.210E-08   -.923E-02 0.000E+00 0.611E-01
   0.474E-02 -.328E-08 0.574E-01   -.802E-09 0.631E-08 0.171E-08   -.110E-01 0.000E+00 -.624E-01
   -.173E-01 -.328E-08 -.118E+00   -.803E-09 0.631E-08 0.861E-08   0.843E-02 0.000E+00 0.689E-01
   -.328E-08 0.468E-01 -.147E-01   0.631E-08 -.239E-08 -.210E-08   0.000E+00 -.485E-01 -.576E-01
   -.326E-08 -.678E-01 0.522E-01   0.631E-08 -.239E-08 0.171E-08   0.000E+00 0.169E+00 0.186E-01
   -.328E-08 0.453E-02 0.233E-01   0.631E-08 -.239E-08 0.861E-08   0.000E+00 0.936E-02 -.125E-01
   -.328E-08 -.468E-01 -.147E-01   0.631E-08 -.802E-09 -.210E-08   0.000E+00 0.485E-01 -.576E-01
   -.326E-08 0.678E-01 0.522E-01   0.631E-08 -.802E-09 0.171E-08   0.000E+00 -.169E+00 0.186E-01
   -.328E-08 -.453E-02 0.233E-01   0.631E-08 -.802E-09 0.861E-08   0.000E+00 -.936E-02 -.125E-01
   -.329E-08 -.327E-08 0.180E-01   0.631E-08 0.631E-08 -.210E-08   0.000E+00 0.000E+00 0.231E-01
   -.330E-08 -.328E-08 0.474E-01   0.631E-08 0.631E-08 0.171E-08   0.000E+00 0.000E+00 0.139E-01
   -.330E-08 -.329E-08 -.189E+00   0.631E-08 0.631E-08 0.861E-08   0.000E+00 0.000E+00 0.547E-01
   0.469E-08 0.488E-08 0.202E+00   -.169E-07 -.169E-07 -.180E-07   0.000E+00 0.000E+00 -.244E+00
   0.476E-08 0.473E-08 -.181E+00   -.169E-07 -.169E-07 -.170E-08   0.000E+00 0.000E+00 0.212E+00
   0.479E-08 0.478E-08 -.143E+00   -.169E-07 -.169E-07 0.115E-07   0.000E+00 0.000E+00 0.168E+00
   0.487E-08 -.128E+00 -.166E-01   -.169E-07 0.802E-09 -.180E-07   -.867E-18 0.156E+00 0.540E-01
   0.489E-08 0.239E+00 -.102E+00   -.169E-07 0.802E-09 -.170E-08   0.217E-18 -.125E+00 0.130E+00
   0.485E-08 0.165E-01 0.684E-01   -.169E-07 0.802E-09 0.115E-07   -.434E-18 0.496E-01 -.121E+00
   0.487E-08 0.128E+00 -.166E-01   -.169E-07 0.130E-07 -.180E-07   0.867E-18 -.156E+00 0.540E-01
   0.489E-08 -.239E+00 -.102E+00   -.169E-07 0.130E-07 -.170E-08   0.000E+00 0.125E+00 0.130E+00
   0.485E-08 -.165E-01 0.684E-01   -.169E-07 0.130E-07 0.115E-07   0.867E-18 -.496E-01 -.121E+00
   0.485E+00 0.478E-08 0.380E+00   0.802E-09 -.169E-07 -.180E-07   -.184E+00 0.000E+00 -.443E+00
   0.342E+00 0.487E-08 -.261E+00   0.802E-09 -.169E-07 -.170E-08   -.211E+00 0.173E-17 0.399E+00
   0.154E+00 0.488E-08 -.925E-01   0.802E-09 -.169E-07 0.115E-07   -.767E-01 0.000E+00 0.714E-01
   -.421E-01 0.188E+00 -.418E-01   0.802E-09 0.802E-09 -.180E-07   0.313E-01 -.170E-01 0.614E-01
   -.717E-01 -.595E-01 0.880E-01   0.802E-09 0.802E-09 -.170E-08   0.100E+00 0.114E+00 -.815E-01
   -.460E-02 -.739E-01 0.371E-01   0.802E-09 0.802E-09 0.115E-07   -.222E-01 0.609E-01 -.107E+00
   -.421E-01 -.188E+00 -.418E-01   0.802E-09 0.130E-07 -.180E-07   0.313E-01 0.170E-01 0.614E-01
   -.717E-01 0.595E-01 0.880E-01   0.802E-09 0.130E-07 -.170E-08   0.100E+00 -.114E+00 -.815E-01
   -.460E-02 0.739E-01 0.371E-01   0.802E-09 0.130E-07 0.115E-07   -.222E-01 -.609E-01 -.107E+00
   -.485E+00 0.478E-08 0.380E+00   0.130E-07 -.169E-07 -.180E-07   0.184E+00 0.000E+00 -.443E+00
   -.342E+00 0.487E-08 -.261E+00   0.130E-07 -.169E-07 -.170E-08   0.211E+00 -.173E-17 0.399E+00
   -.154E+00 0.488E-08 -.925E-01   0.130E-07 -.169E-07 0.115E-07   0.767E-01 0.000E+00 0.714E-01
   0.421E-01 0.188E+00 -.418E-01   0.130E-07 0.802E-09 -.180E-07   -.313E-01 -.170E-01 0.614E-01
   0.717E-01 -.595E-01 0.880E-01   0.130E-07 0.802E-09 -.170E-08   -.100E+00 0.114E+00 -.815E-01
   0.460E-02 -.739E-01 0.371E-01   0.130E-07 0.802E-09 0.115E-07   0.222E-01 0.609E-01 -.107E+00
   0.421E-01 -.188E+00 -.418E-01   0.130E-07 0.130E-07 -.180E-07   -.313E-01 0.170E-01 0.614E-01
   0.717E-01 0.595E-01 0.880E-01   0.130E-07 0.130E-07 -.170E-08   -.100E+00 -.114E+00 -.815E-01
   0.460E-02 0.739E-01 0.371E-01   0.130E-07 0.130E-07 0.115E-07   0.222E-01 -.609E-01 -.107E+00
 -----------------------------------------------------------------------------------------------
   -.405E-07 -.405E-07 0.197E+00   -.614E-13 -.142E-13 0.128E-13   -.520E-16 -.278E-16 -.197E+00
 
 
 POSITION                                       TOTAL-FORCE (eV/Angst)
 -----------------------------------------------------------------------------------
      0.00000      0.00000      0.00000         0.056182     -0.081955     -0.046036
      0.00000      0.00000      3.47664         0.003662      0.042695      0.016021
      0.00000      0.00000      6.95327        -0.074975     -0.054729      0.046257
      0.00000      2.75005      0.00000         0.056182      0.081955     -0.046036
      0.00000      2.75005      3.47664         0.003662     -0.042695      0.016021
      0.00000      2.75005      6.95327        -0.074975      0.054729      0.046257
      0.00000      5.50010      0.00000        -0.022693      0.000000      0.036571
      0.00000      5.50010      3.47664         0.005450      0.000000      0.000389
      0.00000      5.50010      6.95327         0.009966      0.000000     -0.055762
      2.75005      0.00000      0.00000        -0.056182     -0.081955     -0.046036
      2.75005      0.00000      3.47664        -0.003662      0.042695      0.016021
      2.75005      0.00000      6.95327         0.074975     -0.054729      0.046257
      2.75005      2.75005      0.00000        -0.056182      0.081955     -0.046036
      2.75005      2.75005      3.47664        -0.003662     -0.042695      0.016021
      2.75005      2.75005      6.95327         0.074975      0.054729      0.046257
      2.75005      5.50010      0.00000         0.022693      0.000000      0.036571
      2.75005      5.50010      3.47664        -0.005450      0.000000      0.000389
      2.75005      5.50010      6.95327        -0.009966      0.000000     -0.055762
      5.50010      0.00000      0.00000         0.000000      0.003037     -0.066202
      5.50010      0.00000      3.47664         0.000000      0.087426      0.068416
      5.50010      0.00000      6.95327         0.000000      0.013657      0.012423
      5.50010      2.75005      0.00000         0.000000     -0.003037     -0.066202
      5.50010      2.75005      3.47664         0.000000     -0.087426      0.068416
      5.50010      2.75005      6.95327         0.000000     -0.013657      0.012423
      5.50010      5.50010      0.00000         0.000000      0.000000      0.039644
      5.50010      5.50010      3.47664         0.000000      0.000000      0.059754
      5.50010      5.50010      6.95327         0.000000      0.000000     -0.140345
      1.37502      1.37502      1.73832         0.000000      0.000000     -0.043340
      1.37502      1.37502      5.21496         0.000000      0.000000      0.032414
      1.37502      1.37502      8.69159         0.000000      0.000000      0.024289
      1.37502      4.12507      1.73832         0.000000      0.027141      0.029369
      1.37502      4.12507      5.21496         0.000000      0.110579      0.025356
      1.37502      4.12507      8.69159         0.000000      0.066200     -0.044037
      1.37502      6.87512      1.73832         0.000000     -0.027141      0.029369
      1.37502      6.87512      5.21496         0.000000     -0.110579      0.025356
      1.37502      6.87512      8.69159         0.000000     -0.066200     -0.044037
      4.12507      1.37502      1.73832         0.306892      0.000000     -0.055899
      4.12507      1.37502      5.21496         0.133680      0.000000      0.133006
      4.12507      1.37502      8.69159         0.078491      0.000000     -0.021251
      4.12507      4.12507      1.73832        -0.012186      0.172988      0.014475
      4.12507      4.12507      5.21496         0.027160      0.053018      0.007649
      4.12507      4.12507      8.69159        -0.026840     -0.011493     -0.062659
      4.12507      6.87512      1.73832        -0.012186     -0.172988      0.014475
      4.12507      6.87512      5.21496         0.027160     -0.053018      0.007649
      4.12507      6.87512      8.69159        -0.026840      0.011493     -0.062659
      6.87512      1.37502      1.73832        -0.306892      0.000000     -0.055899
      6.87512      1.37502      5.21496        -0.133680      0.000000      0.133006
      6.87512      1.37502      8.69159        -0.078491      0.000000     -0.021251
      6.87512      4.12507      1.73832         0.012186      0.172988      0.014475
      6.87512      4.12507      5.21496        -0.027160      0.053018      0.007649
      6.87512      4.12507      8.69159         0.026840     -0.011493     -0.062659
      6.87512      6.87512      1.73832         0.012186     -0.172988      0.014475
      6.87512      6.87512      5.21496        -0.027160     -0.053018      0.007649
      6.87512      6.87512      8.69159         0.026840      0.011493     -0.062659
 -----------------------------------------------------------------------------------
    total drift:                               -0.000000     -0.000000     -0.000006


--------------------------------------------------------------------------------------------------------



  FREE ENERGIE OF THE ION-ELECTRON SYSTEM (eV)
  ---------------------------------------------------
  free  energy   TOTEN  =      -356.21929998 eV

  energy  without entropy=     -356.21160164  energy(sigma->0) =     -356.21673386
 


--------------------------------------------------------------------------------------------------------


    POTLOK:  cpu time    0.8221: real time    0.8568


--------------------------------------------------------------------------------------------------------


     LOOP+:  cpu time 1786.5639: real time 1815.6519
    4ORBIT:  cpu time    0.0000: real time    0.0000
 


 total charge     
 
# of ion       s       p       d       tot
------------------------------------------
    1        0.405   0.429   0.000   0.834
    2        0.405   0.429   0.000   0.834
    3        0.406   0.428   0.000   0.833
    4        0.405   0.429   0.000   0.834
    5        0.405   0.430   0.000   0.835
    6        0.406   0.428   0.000   0.834
    7        0.404   0.428   0.000   0.831
    8        0.405   0.425   0.000   0.830
    9        0.405   0.427   0.000   0.832
   10        0.405   0.429   0.000   0.834
   11        0.405   0.431   0.000   0.835
   12        0.406   0.428   0.000   0.833
   13        0.405   0.429   0.000   0.834
   14        0.405   0.429   0.000   0.834
   15        0.406   0.428   0.000   0.834
   16        0.404   0.428   0.000   0.832
   17        0.405   0.425   0.000   0.830
   18        0.405   0.427   0.000   0.832
   19        0.405   0.429   0.000   0.834
   20        0.405   0.428   0.000   0.833
   21        0.405   0.426   0.000   0.831
   22        0.405   0.429   0.000   0.834
   23        0.405   0.428   0.000   0.833
   24        0.405   0.427   0.000   0.832
   25        0.405   0.427   0.000   0.832
   26        0.405   0.426   0.000   0.831
   27        0.405   0.427   0.000   0.832
   28        0.333   0.359   5.124   5.816
   29        0.339   0.357   5.116   5.813
   30        0.334   0.346   5.146   5.826
   31        0.332   0.353   5.132   5.817
   32        0.336   0.354   5.129   5.819
   33        0.334   0.353   5.136   5.823
   34        0.331   0.353   5.140   5.825
   35        0.336   0.354   5.129   5.819
   36        0.334   0.353   5.128   5.815
   37        0.334   0.355   5.135   5.824
   38        0.335   0.355   5.125   5.815
   39        0.331   0.354   5.129   5.815
   40        0.333   0.354   5.123   5.810
   41        0.333   0.353   5.143   5.829
   42        0.334   0.349   5.140   5.823
   43        0.334   0.354   5.137   5.825
   44        0.333   0.353   5.124   5.811
   45        0.334   0.350   5.137   5.821
   46        0.334   0.355   5.122   5.812
   47        0.335   0.354   5.131   5.820
   48        0.331   0.354   5.136   5.821
   49        0.334   0.354   5.138   5.826
   50        0.333   0.353   5.137   5.823
   51        0.333   0.349   5.146   5.829
   52        0.334   0.354   5.126   5.814
   53        0.333   0.353   5.132   5.818
   54        0.333   0.350   5.131   5.814
--------------------------------------------------
tot         19.947  21.091 138.573 179.611
 


 magnetization (x)
 
# of ion       s       p       d       tot
------------------------------------------
    1       -0.016  -0.031   0.000  -0.047
    2        0.001   0.002   0.000   0.002
    3       -0.004  -0.008   0.000  -0.012
    4       -0.016  -0.031   0.000  -0.047
    5        0.001   0.003   0.000   0.003
    6       -0.004  -0.007   0.000  -0.012
    7       -0.022  -0.036   0.000  -0.058
    8       -0.001   0.000   0.000  -0.001
    9       -0.001  -0.002   0.000  -0.003
   10       -0.016  -0.030   0.000  -0.046
   11        0.001   0.002   0.000   0.002
   12       -0.004  -0.008   0.000  -0.012
   13       -0.016  -0.030   0.000  -0.047
   14        0.000   0.002   0.000   0.003
   15       -0.004  -0.008   0.000  -0.012
   16       -0.022  -0.036   0.000  -0.058
   17       -0.001  -0.000   0.000  -0.001
   18       -0.001  -0.002   0.000  -0.003
   19       -0.012  -0.020   0.000  -0.032
   20        0.009   0.017   0.000   0.026
   21       -0.001   0.000   0.000  -0.000
   22       -0.012  -0.021   0.000  -0.033
   23        0.009   0.018   0.000   0.026
   24       -0.001   0.001   0.000  -0.000
   25       -0.020  -0.035   0.000  -0.055
   26        0.002   0.005   0.000   0.007
   27        0.001  -0.001   0.000  -0.001
   28        0.033   0.030   2.329   2.392
   29        0.034   0.024   2.428   2.486
   30        0.023   0.009   2.359   2.391
   31        0.009   0.012   2.314   2.335
   32       -0.022  -0.021  -2.333  -2.376
   33        0.015   0.026   2.346   2.387
   34        0.009   0.012   2.313   2.334
   35       -0.023  -0.021  -2.335  -2.378
   36        0.015   0.026   2.351   2.392
   37       -0.025  -0.015  -2.400  -2.440
   38       -0.025  -0.023  -2.399  -2.447
   39        0.013   0.023   2.240   2.276
   40        0.022   0.019   2.374   2.415
   41       -0.011  -0.014  -2.262  -2.287
   42        0.019   0.017   2.359   2.394
   43        0.021   0.020   2.376   2.417
   44       -0.012  -0.013  -2.282  -2.306
   45        0.019   0.017   2.370   2.406
   46       -0.025  -0.015  -2.417  -2.458
   47       -0.025  -0.023  -2.384  -2.432
   48        0.013   0.023   2.233   2.269
   49        0.021   0.020   2.370   2.411
   50       -0.011  -0.013  -2.261  -2.285
   51        0.018   0.017   2.356   2.392
   52        0.022   0.019   2.377   2.418
   53       -0.011  -0.014  -2.274  -2.298
   54        0.019   0.016   2.372   2.408
--------------------------------------------------
tot         -0.016  -0.100  16.520  16.404
 

 total amount of memory used by VASP MPI-rank0   896646. kBytes
=======================================================================

   base      :      30000. kBytes
   nonl-proj :      28494. kBytes
   fftplans  :      31580. kBytes
   grid      :      21385. kBytes
   one-center:        435. kBytes
   wavefun   :     784752. kBytes
 
  
  
 General timing and accounting informations for this job:
 ========================================================
  
                  Total CPU time used (sec):     1819.296
                            User time (sec):     1793.646
                          System time (sec):       25.649
                         Elapsed time (sec):     1851.744
  
                   Maximum memory used (kb):     1069592.
                   Average memory used (kb):           0.
  
                          Minor page faults:       615518
                          Major page faults:           17
                 Voluntary context switches:         3256
