 vasp.5.4.4.18Apr17-6-g9f103f2a35 (build Dec 20 2018 12:05:58) complex          
  
 executed on             LinuxIFC date 2019.06.21  00:35:06
 running on   32 total cores
 distrk:  each k-point on    8 cores,    4 groups
 distr:  one band on NCORES_PER_BAND=   4 cores,    2 groups


--------------------------------------------------------------------------------------------------------


 INCAR:
 POTCAR:    PAW_PBE Al 04Jan2001                  
 POTCAR:    PAW_PBE Mn 06Sep2000                  

 ----------------------------------------------------------------------------- 
|                                                                             |
|           W    W    AA    RRRRR   N    N  II  N    N   GGGG   !!!           |
|           W    W   A  A   R    R  NN   N  II  NN   N  G    G  !!!           |
|           W    W  A    A  R    R  N N  N  II  N N  N  G       !!!           |
|           W WW W  AAAAAA  RRRRR   N  N N  II  N  N N  G  GGG   !            |
|           WW  WW  A    A  R   R   N   NN  II  N   NN  G    G                |
|           W    W  A    A  R    R  N    N  II  N    N   GGGG   !!!           |
|                                                                             |
|      You have enabled k-point parallelism (KPAR>1).                         |
|      This developmental code was originally  written by Paul Kent at ORNL,  |
|      and carefully double checked in Vienna.                                |
|      GW as well as linear response parallelism added by Martijn Marsman     |
|      and Georg Kresse.                                                      |
|      Carefully verify results versus KPAR=1.                                |
|      Report problems to Paul Kent and Vienna.                               |
|                                                                             |
 ----------------------------------------------------------------------------- 

 POTCAR:    PAW_PBE Al 04Jan2001                  
   VRHFIN =Al: s2p1                                                             
   LEXCH  = PE                                                                  
   EATOM  =    53.5387 eV,    3.9350 Ry                                         
                                                                                
   TITEL  = PAW_PBE Al 04Jan2001                                                
   LULTRA =        F    use ultrasoft PP ?                                      
   IUNSCR =        1    unscreen: 0-lin 1-nonlin 2-no                           
   RPACOR =    1.500    partial core radius                                     
   POMASS =   26.981; ZVAL   =    3.000    mass and valenz                      
   RCORE  =    1.900    outmost cutoff radius                                   
   RWIGS  =    2.650; RWIGS  =    1.402    wigner-seitz radius (au A)           
   ENMAX  =  240.300; ENMIN  =  180.225 eV                                      
   ICORE  =        2    local potential                                         
   LCOR   =        T    correct aug charges                                     
   LPAW   =        T    paw PP                                                  
   EAUG   =  291.052                                                            
   DEXC   =    0.000                                                            
   RMAX   =    1.939    core radius for proj-oper                               
   RAUG   =    1.300    factor for augmentation sphere                          
   RDEP   =    1.966    radius for radial grids                                 
   RDEPT  =    1.856    core radius for aug-charge                              
                                                                                
   Atomic configuration                                                         
    6 entries                                                                   
     n  l   j            E        occ.                                          
     1  0  0.50     -1511.1048   2.0000                                         
     2  0  0.50      -108.1629   2.0000                                         
     2  1  1.50       -69.6402   6.0000                                         
     3  0  0.50        -7.7528   2.0000                                         
     3  1  1.50        -2.7121   1.0000                                         
     3  2  2.50        -2.7212   0.0000                                         
   Description                                                                  
     l       E           TYP  RCUT    TYP  RCUT                                 
     0     -7.7528455     23  1.900                                             
     0     -3.3096929     23  1.900                                             
     1     -2.7120682     23  1.900                                             
     1     13.6058260     23  1.900                                             
     2     -2.7211652      7  1.900                                             
  local pseudopotential read in
  partial core-charges read in
  partial kinetic energy density read in
  atomic valenz-charges read in
  non local Contribution for L=           0  read in
    real space projection operators read in
  non local Contribution for L=           0  read in
    real space projection operators read in
  non local Contribution for L=           1  read in
    real space projection operators read in
  non local Contribution for L=           1  read in
    real space projection operators read in
    PAW grid and wavefunctions read in
 
   number of l-projection  operators is LMAX  =           4
   number of lm-projection operators is LMMAX =           8
 
 POTCAR:    PAW_PBE Mn 06Sep2000                  
   VRHFIN =Mn: d6 s1                                                            
   LEXCH  = PE                                                                  
   EATOM  =   416.7541 eV,   30.6306 Ry                                         
                                                                                
   TITEL  = PAW_PBE Mn 06Sep2000                                                
   LULTRA =        F    use ultrasoft PP ?                                      
   IUNSCR =        1    unscreen: 0-lin 1-nonlin 2-no                           
   RPACOR =    2.000    partial core radius                                     
   POMASS =   54.938; ZVAL   =    7.000    mass and valenz                      
   RCORE  =    2.300    outmost cutoff radius                                   
   RWIGS  =    2.500; RWIGS  =    1.323    wigner-seitz radius (au A)           
   ENMAX  =  269.864; ENMIN  =  202.398 eV                                      
   RCLOC  =    1.725    cutoff for local pot                                    
   LCOR   =        T    correct aug charges                                     
   LPAW   =        T    paw PP                                                  
   EAUG   =  500.711                                                            
   DEXC   =    0.000                                                            
   RMAX   =    2.343    core radius for proj-oper                               
   RAUG   =    1.300    factor for augmentation sphere                          
   RDEP   =    2.338    radius for radial grids                                 
   RDEPT  =    1.911    core radius for aug-charge                              
                                                                                
   Atomic configuration                                                         
    9 entries                                                                   
     n  l   j            E        occ.                                          
     1  0  0.50     -6424.8288   2.0000                                         
     2  0  0.50      -739.1154   2.0000                                         
     2  1  1.50      -625.3949   6.0000                                         
     3  0  0.50       -81.6100   2.0000                                         
     3  1  1.50       -50.4667   6.0000                                         
     3  2  2.50        -3.3745   6.0000                                         
     4  0  0.50        -4.1331   1.0000                                         
     4  1  0.50        -4.0817   0.0000                                         
     4  3  2.50        -1.3606   0.0000                                         
   Description                                                                  
     l       E           TYP  RCUT    TYP  RCUT                                 
     2     -3.3744664     23  2.300                                             
     2     -4.7350490     23  2.300                                             
     0     -4.1331408     23  2.300                                             
     0      7.6656614     23  2.300                                             
     1     -2.7211652     23  2.300                                             
     1     20.4087390     23  2.300                                             
  local pseudopotential read in
  partial core-charges read in
  partial kinetic energy density read in
  atomic valenz-charges read in
  non local Contribution for L=           2  read in
    real space projection operators read in
  non local Contribution for L=           2  read in
    real space projection operators read in
  non local Contribution for L=           0  read in
    real space projection operators read in
  non local Contribution for L=           0  read in
    real space projection operators read in
  non local Contribution for L=           1  read in
    real space projection operators read in
  non local Contribution for L=           1  read in
    real space projection operators read in
    PAW grid and wavefunctions read in
 
   number of l-projection  operators is LMAX  =           6
   number of lm-projection operators is LMMAX =          18
 

 ----------------------------------------------------------------------------- 
|                                                                             |
|  ADVICE TO THIS USER RUNNING 'VASP/VAMP'   (HEAR YOUR MASTER'S VOICE ...):  |
|                                                                             |
|      You have a (more or less) 'large supercell' and for larger cells       |
|      it might be more efficient to use real space projection opertators     |
|      So try LREAL= Auto  in the INCAR   file.                               |
|      Mind:          For very  accurate calculation you might also keep the  |
|      reciprocal projection scheme          (i.e. LREAL=.FALSE.)             |
|                                                                             |
 ----------------------------------------------------------------------------- 

  PAW_PBE Al 04Jan2001                  :
 energy of atom  1       EATOM=  -53.5387
 kinetic energy error for atom=    0.0005 (will be added to EATOM!!)
  PAW_PBE Mn 06Sep2000                  :
 energy of atom  2       EATOM= -416.7541
 kinetic energy error for atom=    0.0080 (will be added to EATOM!!)
 
 
 POSCAR: NewRef: 27, @ ['Mn', array([1.37502469, 
  positions in cartesian coordinates
  velocities in cartesian coordinates
  No initial velocities read in
 exchange correlation table for  LEXCH =        8
   RHO(1)=    0.500       N(1)  =     2000
   RHO(2)=  100.500       N(2)  =     4000
 


--------------------------------------------------------------------------------------------------------


 ion  position               nearest neighbor table
   1  0.000  0.000  0.000-  28 2.61  30 2.61  34 2.61  36 2.61  46 2.61  48 2.61  52 2.61  54 2.61
                             4 2.75  10 2.75   7 2.75  19 2.75
   2  0.000  0.000  0.333-  28 2.61  34 2.61  46 2.61  52 2.61  29 2.61  47 2.61  35 2.61  53 2.61
                             5 2.75  11 2.75   8 2.75  20 2.75
   3  0.000  0.000  0.667-  29 2.61  35 2.61  47 2.61  53 2.61  30 2.61  48 2.61  36 2.61  54 2.61
                             6 2.75  12 2.75   9 2.75  21 2.75
   4  0.000  0.333  0.000-  28 2.61  30 2.61  46 2.61  48 2.61  31 2.61  33 2.61  49 2.61  51 2.61
                            13 2.75   1 2.75   7 2.75  22 2.75
   5  0.000  0.333  0.333-  28 2.61  46 2.61  31 2.61  49 2.61  47 2.61  29 2.61  32 2.61  50 2.61
                            14 2.75   2 2.75   8 2.75  23 2.75
   6  0.000  0.333  0.667-  29 2.61  47 2.61  32 2.61  50 2.61  48 2.61  30 2.61  33 2.61  51 2.61
                            15 2.75   3 2.75   9 2.75  24 2.75
   7  0.000  0.667  0.000-  31 2.61  33 2.61  49 2.61  51 2.61  34 2.61  36 2.61  52 2.61  54 2.61
                             4 2.75  16 2.75   1 2.75  25 2.75
   8  0.000  0.667  0.333-  31 2.61  49 2.61  34 2.61  52 2.61  50 2.61  32 2.61  35 2.61  53 2.61
                             5 2.75  17 2.75   2 2.75  26 2.75
   9  0.000  0.667  0.667-  32 2.61  50 2.61  35 2.61  53 2.61  51 2.61  33 2.61  36 2.61  54 2.61
                             6 2.75  18 2.75   3 2.75  27 2.75
  10  0.333  0.000  0.000-  28 2.61  30 2.61  34 2.61  36 2.61  37 2.61  39 2.61  43 2.61  45 2.61
                            19 2.75   1 2.75  13 2.75  16 2.75
  11  0.333  0.000  0.333-  28 2.61  34 2.61  37 2.61  43 2.61  29 2.61  35 2.61  38 2.61  44 2.61
                            20 2.75   2 2.75  14 2.75  17 2.75
  12  0.333  0.000  0.667-  29 2.61  35 2.61  38 2.61  44 2.61  30 2.61  36 2.61  39 2.61  45 2.61
                            21 2.75   3 2.75  15 2.75  18 2.75
  13  0.333  0.333  0.000-  28 2.61  30 2.61  31 2.61  33 2.61  37 2.61  39 2.61  40 2.61  42 2.61
                             4 2.75  10 2.75  16 2.75  22 2.75
  14  0.333  0.333  0.333-  28 2.61  31 2.61  37 2.61  29 2.61  40 2.61  38 2.61  32 2.61  41 2.61
                             5 2.75  11 2.75  17 2.75  23 2.75
  15  0.333  0.333  0.667-  29 2.61  32 2.61  38 2.61  30 2.61  41 2.61  39 2.61  33 2.61  42 2.61
                             6 2.75  12 2.75  18 2.75  24 2.75
  16  0.333  0.667  0.000-  31 2.61  33 2.61  34 2.61  36 2.61  40 2.61  42 2.61  43 2.61  45 2.61
                            25 2.75   7 2.75  13 2.75  10 2.75
  17  0.333  0.667  0.333-  31 2.61  34 2.61  40 2.61  32 2.61  43 2.61  41 2.61  35 2.61  44 2.61
                            26 2.75   8 2.75  14 2.75  11 2.75
  18  0.333  0.667  0.667-  32 2.61  35 2.61  41 2.61  33 2.61  44 2.61  42 2.61  36 2.61  45 2.61
                            27 2.75   9 2.75  15 2.75  12 2.75
  19  0.667  0.000  0.000-  37 2.61  39 2.61  43 2.61  45 2.61  46 2.61  48 2.61  52 2.61  54 2.61
                            10 2.75  22 2.75   1 2.75  25 2.75
  20  0.667  0.000  0.333-  37 2.61  43 2.61  46 2.61  52 2.61  38 2.61  44 2.61  47 2.61  53 2.61
                            11 2.75  23 2.75   2 2.75  26 2.75
  21  0.667  0.000  0.667-  38 2.61  44 2.61  47 2.61  53 2.61  39 2.61  45 2.61  48 2.61  54 2.61
                            12 2.75  24 2.75   3 2.75  27 2.75
  22  0.667  0.333  0.000-  37 2.61  39 2.61  40 2.61  42 2.61  46 2.61  48 2.61  49 2.61  51 2.61
                            25 2.75  13 2.75  19 2.75   4 2.75
  23  0.667  0.333  0.333-  37 2.61  40 2.61  46 2.61  38 2.61  49 2.61  47 2.61  41 2.61  50 2.61
                            26 2.75  14 2.75  20 2.75   5 2.75
  24  0.667  0.333  0.667-  38 2.61  41 2.61  47 2.61  39 2.61  50 2.61  48 2.61  42 2.61  51 2.61
                            27 2.75  15 2.75  21 2.75   6 2.75
  25  0.667  0.667  0.000-  40 2.61  42 2.61  43 2.61  45 2.61  49 2.61  51 2.61  52 2.61  54 2.61
                            16 2.75  22 2.75  19 2.75   7 2.75
  26  0.667  0.667  0.333-  40 2.61  43 2.61  49 2.61  41 2.61  52 2.61  50 2.61  44 2.61  53 2.61
                            17 2.75  23 2.75  20 2.75   8 2.75
  27  0.667  0.667  0.667-  41 2.61  44 2.61  50 2.61  42 2.61  53 2.61  51 2.61  45 2.61  54 2.61
                            18 2.75  24 2.75  21 2.75   9 2.75
  28  0.167  0.167  0.167-  14 2.61  11 2.61   5 2.61  13 2.61   2 2.61  10 2.61   4 2.61   1 2.61
                            31 2.75  37 2.75  34 2.75  46 2.75
  29  0.167  0.167  0.500-  15 2.61  12 2.61   6 2.61  14 2.61   3 2.61  11 2.61   5 2.61   2 2.61
                            32 2.75  38 2.75  35 2.75  47 2.75
  30  0.167  0.167  0.833-  13 2.61  15 2.61  10 2.61  12 2.61   4 2.61   6 2.61   1 2.61   3 2.61
                            33 2.75  39 2.75  36 2.75  48 2.75
  31  0.167  0.500  0.167-  17 2.61  14 2.61   8 2.61  16 2.61   5 2.61  13 2.61   7 2.61   4 2.61
                            28 2.75  34 2.75  40 2.75  49 2.75
  32  0.167  0.500  0.500-  18 2.61  15 2.61   9 2.61  17 2.61   6 2.61  14 2.61   8 2.61   5 2.61
                            29 2.75  35 2.75  41 2.75  50 2.75
  33  0.167  0.500  0.833-  16 2.61  18 2.61  13 2.61  15 2.61   7 2.61   9 2.61   4 2.61   6 2.61
                            30 2.75  36 2.75  42 2.75  51 2.75
  34  0.167  0.833  0.167-  11 2.61  17 2.61   2 2.61   8 2.61  16 2.61  10 2.61   7 2.61   1 2.61
                            31 2.75  43 2.75  28 2.75  52 2.75
  35  0.167  0.833  0.500-  12 2.61  18 2.61   3 2.61   9 2.61  17 2.61  11 2.61   8 2.61   2 2.61
                            32 2.75  44 2.75  29 2.75  53 2.75
  36  0.167  0.833  0.833-  10 2.61  12 2.61  16 2.61  18 2.61   1 2.61   3 2.61   7 2.61   9 2.61
                            33 2.75  45 2.75  30 2.75  54 2.75
  37  0.500  0.167  0.167-  23 2.61  20 2.61  14 2.61  22 2.61  11 2.61  19 2.61  13 2.61  10 2.61
                            28 2.75  40 2.75  46 2.75  43 2.75
  38  0.500  0.167  0.500-  24 2.61  21 2.61  15 2.61  23 2.61  12 2.61  20 2.61  14 2.61  11 2.61
                            29 2.75  41 2.75  47 2.75  44 2.75
  39  0.500  0.167  0.833-  22 2.61  24 2.61  19 2.61  21 2.61  13 2.61  15 2.61  10 2.61  12 2.61
                            30 2.75  42 2.75  48 2.75  45 2.75
  40  0.500  0.500  0.167-  26 2.61  23 2.61  17 2.61  25 2.61  14 2.61  22 2.61  16 2.61  13 2.61
                            31 2.75  37 2.75  43 2.75  49 2.75
  41  0.500  0.500  0.500-  27 2.61  24 2.61  18 2.61  26 2.61  15 2.61  23 2.61  17 2.61  14 2.61
                            32 2.75  38 2.75  44 2.75  50 2.75
  42  0.500  0.500  0.833-  25 2.61  27 2.61  22 2.61  24 2.61  16 2.61  18 2.61  13 2.61  15 2.61
                            33 2.75  39 2.75  45 2.75  51 2.75
  43  0.500  0.833  0.167-  20 2.61  26 2.61  11 2.61  17 2.61  25 2.61  19 2.61  16 2.61  10 2.61
                            34 2.75  40 2.75  52 2.75  37 2.75
  44  0.500  0.833  0.500-  21 2.61  27 2.61  12 2.61  18 2.61  26 2.61  20 2.61  17 2.61  11 2.61
                            35 2.75  41 2.75  53 2.75  38 2.75
  45  0.500  0.833  0.833-  19 2.61  21 2.61  25 2.61  27 2.61  10 2.61  12 2.61  16 2.61  18 2.61
                            36 2.75  42 2.75  54 2.75  39 2.75
  46  0.833  0.167  0.167-   5 2.61  23 2.61  20 2.61   2 2.61  22 2.61   4 2.61  19 2.61   1 2.61
                            37 2.75  49 2.75  28 2.75  52 2.75
  47  0.833  0.167  0.500-   6 2.61  24 2.61  21 2.61   3 2.61  23 2.61   5 2.61  20 2.61   2 2.61
                            38 2.75  50 2.75  29 2.75  53 2.75
  48  0.833  0.167  0.833-   4 2.61   6 2.61  22 2.61  24 2.61  19 2.61  21 2.61   1 2.61   3 2.61
                            39 2.75  51 2.75  30 2.75  54 2.75
  49  0.833  0.500  0.167-   8 2.61  26 2.61  23 2.61   5 2.61  25 2.61   7 2.61  22 2.61   4 2.61
                            40 2.75  46 2.75  52 2.75  31 2.75
  50  0.833  0.500  0.500-   9 2.61  27 2.61  24 2.61   6 2.61  26 2.61   8 2.61  23 2.61   5 2.61
                            41 2.75  47 2.75  53 2.75  32 2.75
  51  0.833  0.500  0.833-   7 2.61   9 2.61  25 2.61  27 2.61  22 2.61  24 2.61   4 2.61   6 2.61
                            42 2.75  48 2.75  54 2.75  33 2.75
  52  0.833  0.833  0.167-   2 2.61   8 2.61  20 2.61  26 2.61  19 2.61   7 2.61  25 2.61   1 2.61
                            43 2.75  49 2.75  46 2.75  34 2.75
  53  0.833  0.833  0.500-   3 2.61   9 2.61  21 2.61  27 2.61  20 2.61   8 2.61  26 2.61   2 2.61
                            44 2.75  50 2.75  47 2.75  35 2.75
  54  0.833  0.833  0.833-   1 2.61   3 2.61   7 2.61   9 2.61  19 2.61  21 2.61  25 2.61  27 2.61
                            45 2.75  51 2.75  48 2.75  36 2.75
 
  LATTYP: Found a simple tetragonal cell.
 ALAT       =     8.2501481662
 C/A-ratio  =     1.2642089792
  
  Lattice vectors:
  
 A1 = (   8.2501481662,   0.0000000000,   0.0000000000)
 A2 = (   0.0000000000,   8.2501481662,   0.0000000000)
 A3 = (   0.0000000000,   0.0000000000,  10.4299113916)


Analysis of symmetry for initial positions (statically):
=====================================================================
 Subroutine PRICEL returns following result:
 
  LATTYP: Found a simple tetragonal cell.
 ALAT       =     2.7500493888
 C/A-ratio  =     1.2642089792
  
  Lattice vectors:
  
 A1 = (   2.7500493888,   0.0000000000,   0.0000000000)
 A2 = (   0.0000000000,   2.7500493888,   0.0000000000)
 A3 = (   0.0000000000,   0.0000000000,   3.4766371306)
 
  27 primitive cells build up your supercell.
 

 Routine SETGRP: Setting up the symmetry group for a 
 simple tetragonal supercell.


 Subroutine GETGRP returns: Found 16 space group operations
 (whereof 16 operations were pure point group operations)
 out of a pool of 16 trial point group operations.


The static configuration has the point symmetry D_4h.


Analysis of symmetry for dynamics (positions and initial velocities):
=====================================================================
 Subroutine PRICEL returns following result:
 
  LATTYP: Found a simple tetragonal cell.
 ALAT       =     2.7500493888
 C/A-ratio  =     1.2642089792
  
  Lattice vectors:
  
 A1 = (   2.7500493888,   0.0000000000,   0.0000000000)
 A2 = (   0.0000000000,   2.7500493888,   0.0000000000)
 A3 = (   0.0000000000,   0.0000000000,   3.4766371306)
 
  27 primitive cells build up your supercell.
 

 Routine SETGRP: Setting up the symmetry group for a 
 simple tetragonal supercell.


 Subroutine GETGRP returns: Found 16 space group operations
 (whereof 16 operations were pure point group operations)
 out of a pool of 16 trial point group operations.


The dynamic configuration has the point symmetry D_4h.


Analysis of structural, dynamic, and magnetic symmetry:
=====================================================================
 Subroutine PRICEL returns:
 Original cell was already a primitive cell.
 

 Routine SETGRP: Setting up the symmetry group for a 
 simple tetragonal supercell.


 Subroutine GETGRP returns: Found  4 space group operations
 (whereof  1 operations were pure point group operations)
 out of a pool of 16 trial point group operations.


The magnetic configuration has the point symmetry C_1 .
 The point group associated with its full space group is C_2v.


 Subroutine INISYM returns: Found  4 space group operations
 (whereof  1 operations are pure point group operations),
 and found     1 'primitive' translations

 
 
 KPOINTS: automatic KPOINTS                       

Automatic generation of k-mesh.
 generate k-points for:    5    5    4
Space group operators:
 irot       det(A)        alpha          n_x          n_y          n_z        tau_x        tau_y        tau_z
    1     1.000000     0.000001     1.000000     0.000000     0.000000     0.000000     0.000000     0.000000
    2    -1.000000   180.000000     0.000000     0.000000     1.000000     0.000000     0.000000     0.666667
    3     1.000000   180.000000     0.707107     0.707107     0.000000     0.666667     0.333333     0.666667
    4    -1.000000   180.000000     0.707107    -0.707107     0.000000     0.666667     0.333333     0.000000
 
 Subroutine IBZKPT returns following result:
 ===========================================
 
 Found     27 irreducible k-points:
 
 Following reciprocal coordinates:
            Coordinates               Weight
  0.000000  0.000000  0.000000      1.000000
  0.200000  0.000000  0.000000      4.000000
  0.400000  0.000000  0.000000      4.000000
  0.200000  0.200000  0.000000      2.000000
  0.400000  0.200000  0.000000      4.000000
 -0.400000  0.200000  0.000000      4.000000
 -0.200000  0.200000  0.000000      2.000000
  0.400000  0.400000  0.000000      2.000000
 -0.400000  0.400000  0.000000      2.000000
  0.000000  0.000000  0.250000      2.000000
  0.200000  0.000000  0.250000      8.000000
  0.400000  0.000000  0.250000      8.000000
  0.200000  0.200000  0.250000      4.000000
  0.400000  0.200000  0.250000      8.000000
 -0.400000  0.200000  0.250000      8.000000
 -0.200000  0.200000  0.250000      4.000000
  0.400000  0.400000  0.250000      4.000000
 -0.400000  0.400000  0.250000      4.000000
  0.000000  0.000000  0.500000      1.000000
  0.200000  0.000000  0.500000      4.000000
  0.400000  0.000000  0.500000      4.000000
  0.200000  0.200000  0.500000      2.000000
  0.400000  0.200000  0.500000      4.000000
 -0.400000  0.200000  0.500000      4.000000
 -0.200000  0.200000  0.500000      2.000000
  0.400000  0.400000  0.500000      2.000000
 -0.400000  0.400000  0.500000      2.000000
 
 Following cartesian coordinates:
            Coordinates               Weight
  0.000000  0.000000  0.000000      1.000000
  0.024242  0.000000  0.000000      4.000000
  0.048484  0.000000  0.000000      4.000000
  0.024242  0.024242  0.000000      2.000000
  0.048484  0.024242  0.000000      4.000000
 -0.048484  0.024242  0.000000      4.000000
 -0.024242  0.024242  0.000000      2.000000
  0.048484  0.048484  0.000000      2.000000
 -0.048484  0.048484  0.000000      2.000000
  0.000000  0.000000  0.023970      2.000000
  0.024242  0.000000  0.023970      8.000000
  0.048484  0.000000  0.023970      8.000000
  0.024242  0.024242  0.023970      4.000000
  0.048484  0.024242  0.023970      8.000000
 -0.048484  0.024242  0.023970      8.000000
 -0.024242  0.024242  0.023970      4.000000
  0.048484  0.048484  0.023970      4.000000
 -0.048484  0.048484  0.023970      4.000000
  0.000000  0.000000  0.047939      1.000000
  0.024242  0.000000  0.047939      4.000000
  0.048484  0.000000  0.047939      4.000000
  0.024242  0.024242  0.047939      2.000000
  0.048484  0.024242  0.047939      4.000000
 -0.048484  0.024242  0.047939      4.000000
 -0.024242  0.024242  0.047939      2.000000
  0.048484  0.048484  0.047939      2.000000
 -0.048484  0.048484  0.047939      2.000000
 


--------------------------------------------------------------------------------------------------------




 Dimension of arrays:
   k-points           NKPTS =     27   k-points in BZ     NKDIM =     27   number of bands    NBANDS=    186
   number of dos      NEDOS =    301   number of ions     NIONS =     54
   non local maximal  LDIM  =      6   non local SUM 2l+1 LMDIM =     18
   total plane-waves  NPLWV = 204120
   max r-space proj   IRMAX =      1   max aug-charges    IRDMAX=  89713
   dimension x,y,z NGX =    54 NGY =   54 NGZ =   70
   dimension x,y,z NGXF=   108 NGYF=  108 NGZF=  140
   support grid    NGXF=   216 NGYF=  216 NGZF=  280
   ions per type =              27  27
   NGX,Y,Z   is equivalent  to a cutoff of  10.88, 10.88, 11.16 a.u.
   NGXF,Y,Z  is equivalent  to a cutoff of  21.76, 21.76, 22.32 a.u.

 SYSTEM =  AlMn_pv                                 
 POSCAR =  NewRef: 27, @ ['Mn', array([1.37502469, 

 Startparameter for this run:
   NWRITE =      2    write-flag & timer
   PREC   = accura    normal or accurate (medium, high low for compatibility)
   ISTART =      0    job   : 0-new  1-cont  2-samecut
   ICHARG =      2    charge: 1-file 2-atom 10-const
   ISPIN  =      2    spin polarized calculation?
   LNONCOLLINEAR =      F non collinear calculations
   LSORBIT =      F    spin-orbit coupling
   INIWAV =      1    electr: 0-lowe 1-rand  2-diag
   LASPH  =      F    aspherical Exc in radial PAW
   METAGGA=      F    non-selfconsistent MetaGGA calc.

 Electronic Relaxation 1
   ENCUT  =  404.8 eV  29.75 Ry    5.45 a.u.  13.53 13.53 17.11*2*pi/ulx,y,z
   ENINI  =  404.8     initial cutoff
   ENAUG  =  500.7 eV  augmentation charge cutoff
   NELM   =    100;   NELMIN=  4; NELMDL= -8     # of ELM steps 
   EDIFF  = 0.1E-06   stopping-criterion for ELM
   LREAL  =      F    real-space projection
   NLSPLINE    = F    spline interpolate recip. space projectors
   LCOMPAT=      F    compatible to vasp.4.4
   GGA_COMPAT  = T    GGA compatible to vasp.4.4-vasp.4.6
   LMAXPAW     = -100 max onsite density
   LMAXMIX     =    2 max onsite mixed and CHGCAR
   VOSKOWN=      0    Vosko Wilk Nusair interpolation
   ROPT   =    0.00000   0.00000
 Ionic relaxation
   EDIFFG = 0.1E-05   stopping-criterion for IOM
   NSW    =      0    number of steps for IOM
   NBLOCK =      1;   KBLOCK =      1    inner block; outer block 
   IBRION =     -1    ionic relax: 0-MD 1-quasi-New 2-CG
   NFREE  =      0    steps in history (QN), initial steepest desc. (CG)
   ISIF   =      2    stress and relaxation
   IWAVPR =     10    prediction:  0-non 1-charg 2-wave 3-comb
   ISYM   =      2    0-nonsym 1-usesym 2-fastsym
   LCORR  =      T    Harris-Foulkes like correction to forces

   POTIM  = 0.2000    time-step for ionic-motion
   TEIN   =    0.0    initial temperature
   TEBEG  =    0.0;   TEEND  =   0.0 temperature during run
   SMASS  =  -3.00    Nose mass-parameter (am)
   estimated Nose-frequenzy (Omega)   =  0.10E-29 period in steps =****** mass=  -0.156E-26a.u.
   SCALEE = 1.0000    scale energy and forces
   NPACO  =    256;   APACO  = 16.0  distance and # of slots for P.C.
   PSTRESS=    0.0 pullay stress

  Mass of Ions in am
   POMASS =  26.98 54.94
  Ionic Valenz
   ZVAL   =   3.00  7.00
  Atomic Wigner-Seitz radii
   RWIGS  =  -1.00 -1.00
  virtual crystal weights 
   VCA    =   1.00  1.00
   NELECT =     270.0000    total number of electrons
   NUPDOWN=      -1.0000    fix difference up-down

 DOS related values:
   EMIN   =  10.00;   EMAX   =-10.00  energy-range for DOS
   EFERMI =   0.00
   ISMEAR =     1;   SIGMA  =   0.20  broadening in eV -4-tet -1-fermi 0-gaus

 Electronic relaxation 2 (details)
   IALGO  =     58    algorithm
   LDIAG  =      T    sub-space diagonalisation (order eigenvalues)
   LSUBROT=      F    optimize rotation matrix (better conditioning)
   TURBO    =      0    0=normal 1=particle mesh
   IRESTART =      0    0=no restart 2=restart with 2 vectors
   NREBOOT  =      0    no. of reboots
   NMIN     =      0    reboot dimension
   EREF     =   0.00    reference energy to select bands
   IMIX   =      4    mixing-type and parameters
     AMIX     =   0.40;   BMIX     =  1.00
     AMIX_MAG =   1.60;   BMIX_MAG =  1.00
     AMIN     =   0.10
     WC   =   100.;   INIMIX=   1;  MIXPRE=   1;  MAXMIX= -45

 Intra band minimization:
   WEIMIN = 0.0000     energy-eigenvalue tresh-hold
   EBREAK =  0.13E-09  absolut break condition
   DEPER  =   0.30     relativ break condition  

   TIME   =   0.40     timestep for ELM

  volume/ion in A,a.u.               =      13.15        88.72
  Fermi-wavevector in a.u.,A,eV,Ry     =   1.186118  2.241439 19.141722  1.406877
  Thomas-Fermi vector in A             =   2.322298
 
 Write flags
   LWAVE        =      F    write WAVECAR
   LDOWNSAMPLE  =      F    k-point downsampling of WAVECAR
   LCHARG       =      F    write CHGCAR
   LVTOT        =      F    write LOCPOT, total local potential
   LVHAR        =      F    write LOCPOT, Hartree potential only
   LELF         =      F    write electronic localiz. function (ELF)
   LORBIT       =     10    0 simple, 1 ext, 2 COOP (PROOUT), +10 PAW based schemes


 Dipole corrections
   LMONO  =      F    monopole corrections only (constant potential shift)
   LDIPOL =      F    correct potential (dipole corrections)
   IDIPOL =      0    1-x, 2-y, 3-z, 4-all directions 
   EPSILON=  1.0000000 bulk dielectric constant

 Exchange correlation treatment:
   GGA     =    --    GGA type
   LEXCH   =     8    internal setting for exchange type
   VOSKOWN=      0    Vosko Wilk Nusair interpolation
   LHFCALC =     F    Hartree Fock is set to
   LHFONE  =     F    Hartree Fock one center treatment
   AEXX    =    0.0000 exact exchange contribution

 Linear response parameters
   LEPSILON=     F    determine dielectric tensor
   LRPA    =     F    only Hartree local field effects (RPA)
   LNABLA  =     F    use nabla operator in PAW spheres
   LVEL    =     F    velocity operator in full k-point grid
   LINTERFAST=   F  fast interpolation
   KINTER  =     0    interpolate to denser k-point grid
   CSHIFT  =0.1000    complex shift for real part using Kramers Kronig
   OMEGAMAX=  -1.0    maximum frequency
   DEG_THRESHOLD= 0.2000000E-02 threshold for treating states as degnerate
   RTIME   =   -0.100 relaxation time in fs
  (WPLASMAI=    0.000 imaginary part of plasma frequency in eV, 0.658/RTIME)
   DFIELD  = 0.0000000 0.0000000 0.0000000 field for delta impulse in time
 
 Orbital magnetization related:
   ORBITALMAG=     F  switch on orbital magnetization
   LCHIMAG   =     F  perturbation theory with respect to B field
   DQ        =  0.001000  dq finite difference perturbation B field
   LLRAUG    =     F  two centre corrections for induced B field



--------------------------------------------------------------------------------------------------------


 Static calculation
 charge density and potential will be updated during run
 spin polarized calculation
 Conjugate gradient for all bands (Freysoldt, et al. PRB 79, 241103 (2009))
 preconditioned conjugated gradient                                        
 perform sub-space diagonalisation
    before iterative eigenvector-optimisation
 modified Broyden-mixing scheme, WC =      100.0
 initial mixing is a Kerker type mixing with AMIX =  0.4000 and BMIX =      1.0000
 Hartree-type preconditioning will be used
 using additional bands           51
 reciprocal scheme for non local part
 use partial core corrections
 no Harris-corrections to forces 
 use gradient corrections 
 use of overlap-Matrix (Vanderbilt PP)
 Methfessel and Paxton  Order N= 1 SIGMA  =   0.20


--------------------------------------------------------------------------------------------------------


  energy-cutoff  :      404.80
  volume of cell :      709.91
      direct lattice vectors                 reciprocal lattice vectors
     8.250148166  0.000000000  0.000000000     0.121209944  0.000000000  0.000000000
     0.000000000  8.250148166  0.000000000     0.000000000  0.121209944  0.000000000
     0.000000000  0.000000000 10.429911392     0.000000000  0.000000000  0.095878092

  length of vectors
     8.250148166  8.250148166 10.429911392     0.121209944  0.121209944  0.095878092


 
 k-points in units of 2pi/SCALE and weight: automatic KPOINTS                       
   0.00000000  0.00000000  0.00000000       0.010
   0.02424199  0.00000000  0.00000000       0.040
   0.04848398  0.00000000  0.00000000       0.040
   0.02424199  0.02424199  0.00000000       0.020
   0.04848398  0.02424199  0.00000000       0.040
  -0.04848398  0.02424199  0.00000000       0.040
  -0.02424199  0.02424199  0.00000000       0.020
   0.04848398  0.04848398  0.00000000       0.020
  -0.04848398  0.04848398  0.00000000       0.020
   0.00000000  0.00000000  0.02396952       0.020
   0.02424199  0.00000000  0.02396952       0.080
   0.04848398  0.00000000  0.02396952       0.080
   0.02424199  0.02424199  0.02396952       0.040
   0.04848398  0.02424199  0.02396952       0.080
  -0.04848398  0.02424199  0.02396952       0.080
  -0.02424199  0.02424199  0.02396952       0.040
   0.04848398  0.04848398  0.02396952       0.040
  -0.04848398  0.04848398  0.02396952       0.040
   0.00000000  0.00000000  0.04793905       0.010
   0.02424199  0.00000000  0.04793905       0.040
   0.04848398  0.00000000  0.04793905       0.040
   0.02424199  0.02424199  0.04793905       0.020
   0.04848398  0.02424199  0.04793905       0.040
  -0.04848398  0.02424199  0.04793905       0.040
  -0.02424199  0.02424199  0.04793905       0.020
   0.04848398  0.04848398  0.04793905       0.020
  -0.04848398  0.04848398  0.04793905       0.020
 
 k-points in reciprocal lattice and weights: automatic KPOINTS                       
   0.00000000  0.00000000  0.00000000       0.010
   0.20000000  0.00000000  0.00000000       0.040
   0.40000000  0.00000000  0.00000000       0.040
   0.20000000  0.20000000  0.00000000       0.020
   0.40000000  0.20000000  0.00000000       0.040
  -0.40000000  0.20000000  0.00000000       0.040
  -0.20000000  0.20000000  0.00000000       0.020
   0.40000000  0.40000000  0.00000000       0.020
  -0.40000000  0.40000000  0.00000000       0.020
   0.00000000  0.00000000  0.25000000       0.020
   0.20000000  0.00000000  0.25000000       0.080
   0.40000000  0.00000000  0.25000000       0.080
   0.20000000  0.20000000  0.25000000       0.040
   0.40000000  0.20000000  0.25000000       0.080
  -0.40000000  0.20000000  0.25000000       0.080
  -0.20000000  0.20000000  0.25000000       0.040
   0.40000000  0.40000000  0.25000000       0.040
  -0.40000000  0.40000000  0.25000000       0.040
   0.00000000  0.00000000  0.50000000       0.010
   0.20000000  0.00000000  0.50000000       0.040
   0.40000000  0.00000000  0.50000000       0.040
   0.20000000  0.20000000  0.50000000       0.020
   0.40000000  0.20000000  0.50000000       0.040
  -0.40000000  0.20000000  0.50000000       0.040
  -0.20000000  0.20000000  0.50000000       0.020
   0.40000000  0.40000000  0.50000000       0.020
  -0.40000000  0.40000000  0.50000000       0.020
 
 position of ions in fractional coordinates (direct lattice) 
   0.00000000  0.00000000  0.00000000
   0.00000000  0.00000000  0.33333333
   0.00000000  0.00000000  0.66666667
   0.00000000  0.33333333  0.00000000
   0.00000000  0.33333333  0.33333333
   0.00000000  0.33333333  0.66666667
   0.00000000  0.66666667  0.00000000
   0.00000000  0.66666667  0.33333333
   0.00000000  0.66666667  0.66666667
   0.33333333  0.00000000  0.00000000
   0.33333333  0.00000000  0.33333333
   0.33333333  0.00000000  0.66666667
   0.33333333  0.33333333  0.00000000
   0.33333333  0.33333333  0.33333333
   0.33333333  0.33333333  0.66666667
   0.33333333  0.66666667  0.00000000
   0.33333333  0.66666667  0.33333333
   0.33333333  0.66666667  0.66666667
   0.66666667  0.00000000  0.00000000
   0.66666667  0.00000000  0.33333333
   0.66666667  0.00000000  0.66666667
   0.66666667  0.33333333  0.00000000
   0.66666667  0.33333333  0.33333333
   0.66666667  0.33333333  0.66666667
   0.66666667  0.66666667  0.00000000
   0.66666667  0.66666667  0.33333333
   0.66666667  0.66666667  0.66666667
   0.16666667  0.16666667  0.16666667
   0.16666667  0.16666667  0.50000000
   0.16666667  0.16666667  0.83333333
   0.16666667  0.50000000  0.16666667
   0.16666667  0.50000000  0.50000000
   0.16666667  0.50000000  0.83333333
   0.16666667  0.83333333  0.16666667
   0.16666667  0.83333333  0.50000000
   0.16666667  0.83333333  0.83333333
   0.50000000  0.16666667  0.16666667
   0.50000000  0.16666667  0.50000000
   0.50000000  0.16666667  0.83333333
   0.50000000  0.50000000  0.16666667
   0.50000000  0.50000000  0.50000000
   0.50000000  0.50000000  0.83333333
   0.50000000  0.83333333  0.16666667
   0.50000000  0.83333333  0.50000000
   0.50000000  0.83333333  0.83333333
   0.83333333  0.16666667  0.16666667
   0.83333333  0.16666667  0.50000000
   0.83333333  0.16666667  0.83333333
   0.83333333  0.50000000  0.16666667
   0.83333333  0.50000000  0.50000000
   0.83333333  0.50000000  0.83333333
   0.83333333  0.83333333  0.16666667
   0.83333333  0.83333333  0.50000000
   0.83333333  0.83333333  0.83333333
 
 position of ions in cartesian coordinates  (Angst):
   0.00000000  0.00000000  0.00000000
   0.00000000  0.00000000  3.47663713
   0.00000000  0.00000000  6.95327426
   0.00000000  2.75004939  0.00000000
   0.00000000  2.75004939  3.47663713
   0.00000000  2.75004939  6.95327426
   0.00000000  5.50009878  0.00000000
   0.00000000  5.50009878  3.47663713
   0.00000000  5.50009878  6.95327426
   2.75004939  0.00000000  0.00000000
   2.75004939  0.00000000  3.47663713
   2.75004939  0.00000000  6.95327426
   2.75004939  2.75004939  0.00000000
   2.75004939  2.75004939  3.47663713
   2.75004939  2.75004939  6.95327426
   2.75004939  5.50009878  0.00000000
   2.75004939  5.50009878  3.47663713
   2.75004939  5.50009878  6.95327426
   5.50009878  0.00000000  0.00000000
   5.50009878  0.00000000  3.47663713
   5.50009878  0.00000000  6.95327426
   5.50009878  2.75004939  0.00000000
   5.50009878  2.75004939  3.47663713
   5.50009878  2.75004939  6.95327426
   5.50009878  5.50009878  0.00000000
   5.50009878  5.50009878  3.47663713
   5.50009878  5.50009878  6.95327426
   1.37502469  1.37502469  1.73831857
   1.37502469  1.37502469  5.21495570
   1.37502469  1.37502469  8.69159283
   1.37502469  4.12507408  1.73831857
   1.37502469  4.12507408  5.21495570
   1.37502469  4.12507408  8.69159283
   1.37502469  6.87512347  1.73831857
   1.37502469  6.87512347  5.21495570
   1.37502469  6.87512347  8.69159283
   4.12507408  1.37502469  1.73831857
   4.12507408  1.37502469  5.21495570
   4.12507408  1.37502469  8.69159283
   4.12507408  4.12507408  1.73831857
   4.12507408  4.12507408  5.21495570
   4.12507408  4.12507408  8.69159283
   4.12507408  6.87512347  1.73831857
   4.12507408  6.87512347  5.21495570
   4.12507408  6.87512347  8.69159283
   6.87512347  1.37502469  1.73831857
   6.87512347  1.37502469  5.21495570
   6.87512347  1.37502469  8.69159283
   6.87512347  4.12507408  1.73831857
   6.87512347  4.12507408  5.21495570
   6.87512347  4.12507408  8.69159283
   6.87512347  6.87512347  1.73831857
   6.87512347  6.87512347  5.21495570
   6.87512347  6.87512347  8.69159283
 


--------------------------------------------------------------------------------------------------------


 k-point  1 :   0.0000 0.0000 0.0000  plane waves:   13099
 k-point  2 :   0.2000 0.0000 0.0000  plane waves:   13101
 k-point  3 :   0.4000 0.0000 0.0000  plane waves:   13111
 k-point  4 :   0.2000 0.2000 0.0000  plane waves:   13137
 k-point  5 :   0.4000 0.2000 0.0000  plane waves:   13119
 k-point  6 :  -0.4000 0.2000 0.0000  plane waves:   13119
 k-point  7 :  -0.2000 0.2000 0.0000  plane waves:   13137
 k-point  8 :   0.4000 0.4000 0.0000  plane waves:   13129
 k-point  9 :  -0.4000 0.4000 0.0000  plane waves:   13129
 k-point 10 :   0.0000 0.0000 0.2500  plane waves:   13134
 k-point 11 :   0.2000 0.0000 0.2500  plane waves:   13149
 k-point 12 :   0.4000 0.0000 0.2500  plane waves:   13119
 k-point 13 :   0.2000 0.2000 0.2500  plane waves:   13145
 k-point 14 :   0.4000 0.2000 0.2500  plane waves:   13134
 k-point 15 :  -0.4000 0.2000 0.2500  plane waves:   13134
 k-point 16 :  -0.2000 0.2000 0.2500  plane waves:   13145
 k-point 17 :   0.4000 0.4000 0.2500  plane waves:   13108
 k-point 18 :  -0.4000 0.4000 0.2500  plane waves:   13108
 k-point 19 :   0.0000 0.0000 0.5000  plane waves:   13186
 k-point 20 :   0.2000 0.0000 0.5000  plane waves:   13124
 k-point 21 :   0.4000 0.0000 0.5000  plane waves:   13152
 k-point 22 :   0.2000 0.2000 0.5000  plane waves:   13136
 k-point 23 :   0.4000 0.2000 0.5000  plane waves:   13128
 k-point 24 :  -0.4000 0.2000 0.5000  plane waves:   13128
 k-point 25 :  -0.2000 0.2000 0.5000  plane waves:   13136
 k-point 26 :   0.4000 0.4000 0.5000  plane waves:   13112
 k-point 27 :  -0.4000 0.4000 0.5000  plane waves:   13112

 maximum and minimum number of plane-waves per node :      3304     3246

 maximum number of plane-waves:     13186
 maximum index in each direction: 
   IXMAX=   13   IYMAX=   13   IZMAX=   17
   IXMIN=  -13   IYMIN=  -13   IZMIN=  -17


 parallel 3D FFT for wavefunctions:
    minimum data exchange during FFTs selected (reduces bandwidth)
 parallel 3D FFT for charge:
    minimum data exchange during FFTs selected (reduces bandwidth)


 total amount of memory used by VASP MPI-rank0   950766. kBytes
=======================================================================

   base      :      30000. kBytes
   nonl-proj :      28494. kBytes
   fftplans  :      31580. kBytes
   grid      :      21385. kBytes
   one-center:        435. kBytes
   wavefun   :     838872. kBytes
 
     INWAV:  cpu time    0.0001: real time    0.0004
 Broyden mixing: mesh for mixing (old mesh)
   NGX = 27   NGY = 27   NGZ = 35
  (NGX  =108   NGY  =108   NGZ  =140)
  gives a total of  25515 points

 initial charge density was supplied:
 charge density of overlapping atoms calculated
 number of electron     270.0000000 magnetization      45.0000000
 keeping initial charge density in first step


--------------------------------------------------------------------------------------------------------


 Maximum index for augmentation-charges        10967 (set IRDMAX)


--------------------------------------------------------------------------------------------------------


 First call to EWALD:  gamma=   0.199
 Maximum number of real-space cells 3x 3x 2
 Maximum number of reciprocal cells 3x 3x 3

    FEWALD:  cpu time    0.0024: real time    0.0024


--------------------------------------- Iteration      1(   1)  ---------------------------------------


    POTLOK:  cpu time    0.3980: real time    0.3980
    SETDIJ:  cpu time    0.4634: real time    0.4636
    TRIAL :  cpu time   33.2075: real time   34.0179
    CORREC:  cpu time    0.0526: real time    0.0528
    --------------------------------------------
      LOOP:  cpu time   34.3522: real time   35.2321

 eigenvalue-minimisations  : 20088
 total energy-change (2. order) : 0.2015125E+04  (-0.9026707E+04)
 number of electron     270.0000000 magnetization      45.0000000
 augmentation part      270.0000000 magnetization      45.0000000

 Free energy of the ion-electron system (eV)
  ---------------------------------------------------
  alpha Z        PSCENC =       798.38614055
  Ewald energy   TEWEN  =    -12901.57693327
  -Hartree energ DENC   =     -2855.60785864
  -exchange      EXHF   =         0.00000000
  -V(xc)+E(xc)   XCENC  =      -996.04783701
  PAW double counting   =     12741.82587617   -11476.22345381
  entropy T*S    EENTRO =         0.00295456
  eigenvalues    EBANDS =      4006.69191864
  atomic energy  EATOM  =     12697.67401269
  ---------------------------------------------------
  free energy    TOTEN  =      2015.12481987 eV

  energy without entropy =     2015.12186531  energy(sigma->0) =     2015.12383502


--------------------------------------------------------------------------------------------------------




--------------------------------------- Iteration      1(   2)  ---------------------------------------


    TRIAL :  cpu time   32.9084: real time   34.5177
    CORREC:  cpu time    0.0073: real time    0.0081
    --------------------------------------------
      LOOP:  cpu time   32.9184: real time   34.5291

 eigenvalue-minimisations  : 20088
 total energy-change (2. order) :-0.2137190E+04  (-0.2059157E+04)
 number of electron     270.0000000 magnetization      45.0000000
 augmentation part      270.0000000 magnetization      45.0000000

 Free energy of the ion-electron system (eV)
  ---------------------------------------------------
  alpha Z        PSCENC =       798.38614055
  Ewald energy   TEWEN  =    -12901.57693327
  -Hartree energ DENC   =     -2855.60785864
  -exchange      EXHF   =         0.00000000
  -V(xc)+E(xc)   XCENC  =      -996.04783701
  PAW double counting   =     12741.82587617   -11476.22345381
  entropy T*S    EENTRO =        -0.00058305
  eigenvalues    EBANDS =      1869.50588606
  atomic energy  EATOM  =     12697.67401269
  ---------------------------------------------------
  free energy    TOTEN  =      -122.06475033 eV

  energy without entropy =     -122.06416728  energy(sigma->0) =     -122.06455598


--------------------------------------------------------------------------------------------------------




--------------------------------------- Iteration      1(   3)  ---------------------------------------


    TRIAL :  cpu time   44.8711: real time   46.7742
    CORREC:  cpu time    0.0082: real time    0.0091
    --------------------------------------------
      LOOP:  cpu time   44.8806: real time   46.7866

 eigenvalue-minimisations  : 29952
 total energy-change (2. order) :-0.2432510E+03  (-0.2079913E+03)
 number of electron     270.0000000 magnetization      45.0000000
 augmentation part      270.0000000 magnetization      45.0000000

 Free energy of the ion-electron system (eV)
  ---------------------------------------------------
  alpha Z        PSCENC =       798.38614055
  Ewald energy   TEWEN  =    -12901.57693327
  -Hartree energ DENC   =     -2855.60785864
  -exchange      EXHF   =         0.00000000
  -V(xc)+E(xc)   XCENC  =      -996.04783701
  PAW double counting   =     12741.82587617   -11476.22345381
  entropy T*S    EENTRO =         0.01577375
  eigenvalues    EBANDS =      1626.23851364
  atomic energy  EATOM  =     12697.67401269
  ---------------------------------------------------
  free energy    TOTEN  =      -365.31576595 eV

  energy without entropy =     -365.33153969  energy(sigma->0) =     -365.32102386


--------------------------------------------------------------------------------------------------------




--------------------------------------- Iteration      1(   4)  ---------------------------------------


    TRIAL :  cpu time   48.3449: real time   50.0433
    CORREC:  cpu time    0.0084: real time    0.0093
    --------------------------------------------
      LOOP:  cpu time   48.3543: real time   50.0561

 eigenvalue-minimisations  : 32472
 total energy-change (2. order) :-0.3547800E+02  (-0.3074076E+02)
 number of electron     270.0000000 magnetization      45.0000000
 augmentation part      270.0000000 magnetization      45.0000000

 Free energy of the ion-electron system (eV)
  ---------------------------------------------------
  alpha Z        PSCENC =       798.38614055
  Ewald energy   TEWEN  =    -12901.57693327
  -Hartree energ DENC   =     -2855.60785864
  -exchange      EXHF   =         0.00000000
  -V(xc)+E(xc)   XCENC  =      -996.04783701
  PAW double counting   =     12741.82587617   -11476.22345381
  entropy T*S    EENTRO =         0.01803133
  eigenvalues    EBANDS =      1590.75825543
  atomic energy  EATOM  =     12697.67401269
  ---------------------------------------------------
  free energy    TOTEN  =      -400.79376657 eV

  energy without entropy =     -400.81179790  energy(sigma->0) =     -400.79977702


--------------------------------------------------------------------------------------------------------




--------------------------------------- Iteration      1(   5)  ---------------------------------------


    TRIAL :  cpu time   48.3966: real time   49.5840
    CORREC:  cpu time    0.0087: real time    0.0095
    --------------------------------------------
      LOOP:  cpu time   48.4069: real time   49.5973

 eigenvalue-minimisations  : 32424
 total energy-change (2. order) :-0.2861458E+01  (-0.2739867E+01)
 number of electron     270.0000000 magnetization      45.0000000
 augmentation part      270.0000000 magnetization      45.0000000

 Free energy of the ion-electron system (eV)
  ---------------------------------------------------
  alpha Z        PSCENC =       798.38614055
  Ewald energy   TEWEN  =    -12901.57693327
  -Hartree energ DENC   =     -2855.60785864
  -exchange      EXHF   =         0.00000000
  -V(xc)+E(xc)   XCENC  =      -996.04783701
  PAW double counting   =     12741.82587617   -11476.22345381
  entropy T*S    EENTRO =         0.01734162
  eigenvalues    EBANDS =      1587.89748722
  atomic energy  EATOM  =     12697.67401269
  ---------------------------------------------------
  free energy    TOTEN  =      -403.65522450 eV

  energy without entropy =     -403.67256612  energy(sigma->0) =     -403.66100504


--------------------------------------------------------------------------------------------------------




--------------------------------------- Iteration      1(   6)  ---------------------------------------


    TRIAL :  cpu time   48.1359: real time   50.1207
    CORREC:  cpu time    0.0084: real time    0.0092
    --------------------------------------------
      LOOP:  cpu time   48.1455: real time   50.1335

 eigenvalue-minimisations  : 32432
 total energy-change (2. order) :-0.2146049E+00  (-0.2114778E+00)
 number of electron     270.0000000 magnetization      45.0000000
 augmentation part      270.0000000 magnetization      45.0000000

 Free energy of the ion-electron system (eV)
  ---------------------------------------------------
  alpha Z        PSCENC =       798.38614055
  Ewald energy   TEWEN  =    -12901.57693327
  -Hartree energ DENC   =     -2855.60785864
  -exchange      EXHF   =         0.00000000
  -V(xc)+E(xc)   XCENC  =      -996.04783701
  PAW double counting   =     12741.82587617   -11476.22345381
  entropy T*S    EENTRO =         0.01806077
  eigenvalues    EBANDS =      1587.68216315
  atomic energy  EATOM  =     12697.67401269
  ---------------------------------------------------
  free energy    TOTEN  =      -403.86982942 eV

  energy without entropy =     -403.88789019  energy(sigma->0) =     -403.87584968


--------------------------------------------------------------------------------------------------------




--------------------------------------- Iteration      1(   7)  ---------------------------------------


    TRIAL :  cpu time   48.6273: real time   50.5040
    CORREC:  cpu time    0.0086: real time    0.0095
    --------------------------------------------
      LOOP:  cpu time   48.6372: real time   50.5169

 eigenvalue-minimisations  : 32880
 total energy-change (2. order) :-0.2158908E-01  (-0.2144019E-01)
 number of electron     270.0000000 magnetization      45.0000000
 augmentation part      270.0000000 magnetization      45.0000000

 Free energy of the ion-electron system (eV)
  ---------------------------------------------------
  alpha Z        PSCENC =       798.38614055
  Ewald energy   TEWEN  =    -12901.57693327
  -Hartree energ DENC   =     -2855.60785864
  -exchange      EXHF   =         0.00000000
  -V(xc)+E(xc)   XCENC  =      -996.04783701
  PAW double counting   =     12741.82587617   -11476.22345381
  entropy T*S    EENTRO =         0.01813992
  eigenvalues    EBANDS =      1587.66049492
  atomic energy  EATOM  =     12697.67401269
  ---------------------------------------------------
  free energy    TOTEN  =      -403.89141850 eV

  energy without entropy =     -403.90955842  energy(sigma->0) =     -403.89746514


--------------------------------------------------------------------------------------------------------




--------------------------------------- Iteration      1(   8)  ---------------------------------------


    TRIAL :  cpu time   47.6178: real time   49.5580
    CORREC:  cpu time    0.0087: real time    0.0096
    CHARGE:  cpu time    1.5868: real time    1.6105
    --------------------------------------------
      LOOP:  cpu time   49.2149: real time   51.1821

 eigenvalue-minimisations  : 32048
 total energy-change (2. order) :-0.2055710E-02  (-0.2048515E-02)
 number of electron     269.9999995 magnetization      32.4379164
 augmentation part       64.2333332 magnetization      18.6847911

 Free energy of the ion-electron system (eV)
  ---------------------------------------------------
  alpha Z        PSCENC =       798.38614055
  Ewald energy   TEWEN  =    -12901.57693327
  -Hartree energ DENC   =     -2855.60785864
  -exchange      EXHF   =         0.00000000
  -V(xc)+E(xc)   XCENC  =      -996.04783701
  PAW double counting   =     12741.82587617   -11476.22345381
  entropy T*S    EENTRO =         0.01814058
  eigenvalues    EBANDS =      1587.65843854
  atomic energy  EATOM  =     12697.67401269
  ---------------------------------------------------
  free energy    TOTEN  =      -403.89347421 eV

  energy without entropy =     -403.91161479  energy(sigma->0) =     -403.89952107


--------------------------------------------------------------------------------------------------------




--------------------------------------- Iteration      1(   9)  ---------------------------------------


    POTLOK:  cpu time    0.3975: real time    0.3983
    SETDIJ:  cpu time    0.4679: real time    0.4854
    TRIAL :  cpu time   16.8943: real time   17.3016
    CORREC:  cpu time    5.3045: real time    5.4047
    CHARGE:  cpu time    1.6408: real time    1.6409
    --------------------------------------------
      LOOP:  cpu time   24.7109: real time   25.2373

 eigenvalue-minimisations  :     0
 total energy-change (2. order) : 0.2988542E+03  (-0.2161751E+03)
 number of electron     269.9999993 magnetization      34.3335261
 augmentation part       82.7869147 magnetization      22.6051492

 Free energy of the ion-electron system (eV)
  ---------------------------------------------------
  alpha Z        PSCENC =       798.38614055
  Ewald energy   TEWEN  =    -12901.57693327
  -Hartree energ DENC   =     -1274.20917048
  -exchange      EXHF   =         0.00000000
  -V(xc)+E(xc)   XCENC  =     -1041.83514502
  PAW double counting   =     19173.02270390   -17753.58965802
  entropy T*S    EENTRO =        -0.00142314
  eigenvalues    EBANDS =       197.07067769
  atomic energy  EATOM  =     12697.67401269
  ---------------------------------------------------
  free energy    TOTEN  =      -105.03923138 eV

  energy without entropy =     -105.03780824  energy(sigma->0) =     -105.03875700


--------------------------------------------------------------------------------------------------------




--------------------------------------- Iteration      1(  10)  ---------------------------------------


    POTLOK:  cpu time    0.3910: real time    0.4224
    SETDIJ:  cpu time    0.6932: real time    0.6934
    TRIAL :  cpu time   16.7745: real time   17.9704
    CORREC:  cpu time    5.3384: real time    5.4757
    CHARGE:  cpu time    1.5927: real time    1.6177
    --------------------------------------------
      LOOP:  cpu time   24.7977: real time   26.1878

 eigenvalue-minimisations  :     0
 total energy-change (2. order) :-0.2141261E+03  (-0.1220630E+02)
 number of electron     269.9999993 magnetization      35.0248336
 augmentation part       86.6927663 magnetization      23.7368107

 Free energy of the ion-electron system (eV)
  ---------------------------------------------------
  alpha Z        PSCENC =       798.38614055
  Ewald energy   TEWEN  =    -12901.57693327
  -Hartree energ DENC   =     -2123.31998475
  -exchange      EXHF   =         0.00000000
  -V(xc)+E(xc)   XCENC  =     -1011.96821294
  PAW double counting   =     20770.97361162   -19536.56920617
  entropy T*S    EENTRO =        -0.00275622
  eigenvalues    EBANDS =       987.23666317
  atomic energy  EATOM  =     12697.67401269
  ---------------------------------------------------
  free energy    TOTEN  =      -319.16533223 eV

  energy without entropy =     -319.16257600  energy(sigma->0) =     -319.16441349


--------------------------------------------------------------------------------------------------------




--------------------------------------- Iteration      1(  11)  ---------------------------------------


    POTLOK:  cpu time    0.3867: real time    0.4078
    SETDIJ:  cpu time    0.4292: real time    0.4691
    TRIAL :  cpu time   16.9401: real time   17.2792
    CORREC:  cpu time    5.3040: real time    5.5076
    CHARGE:  cpu time    1.5503: real time    1.6200
    --------------------------------------------
      LOOP:  cpu time   24.6130: real time   25.2865

 eigenvalue-minimisations  :     0
 total energy-change (2. order) :-0.1158943E+02  (-0.9979640E+01)
 number of electron     269.9999992 magnetization      35.6848322
 augmentation part       88.9702160 magnetization      24.4964907

 Free energy of the ion-electron system (eV)
  ---------------------------------------------------
  alpha Z        PSCENC =       798.38614055
  Ewald energy   TEWEN  =    -12901.57693327
  -Hartree energ DENC   =     -2362.52602554
  -exchange      EXHF   =         0.00000000
  -V(xc)+E(xc)   XCENC  =     -1003.28345018
  PAW double counting   =     21640.32633769   -20443.39828540
  entropy T*S    EENTRO =         0.00182863
  eigenvalues    EBANDS =      1243.64619444
  atomic energy  EATOM  =     12697.67401269
  ---------------------------------------------------
  free energy    TOTEN  =      -330.75476525 eV

  energy without entropy =     -330.75659388  energy(sigma->0) =     -330.75537479


--------------------------------------------------------------------------------------------------------




--------------------------------------- Iteration      1(  12)  ---------------------------------------


    POTLOK:  cpu time    0.3917: real time    0.3922
    SETDIJ:  cpu time    0.4603: real time    0.4603
    TRIAL :  cpu time   17.4982: real time   18.4510
    CORREC:  cpu time    5.2891: real time    5.4630
    CHARGE:  cpu time    1.5298: real time    1.6695
    --------------------------------------------
      LOOP:  cpu time   25.1705: real time   26.4380

 eigenvalue-minimisations  :     0
 total energy-change (2. order) :-0.1009037E+02  (-0.1187995E+02)
 number of electron     269.9999992 magnetization      35.8882818
 augmentation part       87.0222588 magnetization      24.6783026

 Free energy of the ion-electron system (eV)
  ---------------------------------------------------
  alpha Z        PSCENC =       798.38614055
  Ewald energy   TEWEN  =    -12901.57693327
  -Hartree energ DENC   =     -2547.53625995
  -exchange      EXHF   =         0.00000000
  -V(xc)+E(xc)   XCENC  =      -997.03621586
  PAW double counting   =     21836.63968988   -20650.28317748
  entropy T*S    EENTRO =        -0.00580822
  eigenvalues    EBANDS =      1422.88577876
  atomic energy  EATOM  =     12697.67401269
  ---------------------------------------------------
  free energy    TOTEN  =      -340.84513605 eV

  energy without entropy =     -340.83932784  energy(sigma->0) =     -340.84319998


--------------------------------------------------------------------------------------------------------




--------------------------------------- Iteration      1(  13)  ---------------------------------------


    POTLOK:  cpu time    0.3940: real time    0.3940
    SETDIJ:  cpu time    0.4579: real time    0.4578
    TRIAL :  cpu time   16.9113: real time   17.2939
    CORREC:  cpu time    5.3669: real time    5.4859
    CHARGE:  cpu time    1.5808: real time    1.6051
    --------------------------------------------
      LOOP:  cpu time   24.7122: real time   25.2393

 eigenvalue-minimisations  :     0
 total energy-change (2. order) :-0.1176560E+02  (-0.1069195E+01)
 number of electron     269.9999992 magnetization      35.8303474
 augmentation part       86.4595429 magnetization      24.5976183

 Free energy of the ion-electron system (eV)
  ---------------------------------------------------
  alpha Z        PSCENC =       798.38614055
  Ewald energy   TEWEN  =    -12901.57693327
  -Hartree energ DENC   =     -2536.26404327
  -exchange      EXHF   =         0.00000000
  -V(xc)+E(xc)   XCENC  =      -998.53752002
  PAW double counting   =     21163.27182454   -19927.39148821
  entropy T*S    EENTRO =        -0.01151661
  eigenvalues    EBANDS =      1351.83307847
  atomic energy  EATOM  =     12697.67401269
  ---------------------------------------------------
  free energy    TOTEN  =      -352.61073673 eV

  energy without entropy =     -352.59922012  energy(sigma->0) =     -352.60689786


--------------------------------------------------------------------------------------------------------




--------------------------------------- Iteration      1(  14)  ---------------------------------------


    POTLOK:  cpu time    0.3913: real time    0.3916
    SETDIJ:  cpu time    0.4771: real time    0.4778
    TRIAL :  cpu time   17.5357: real time   17.9455
    CORREC:  cpu time    5.2844: real time    5.3937
    CHARGE:  cpu time    1.5812: real time    1.6216
    --------------------------------------------
      LOOP:  cpu time   25.2877: real time   25.8483

 eigenvalue-minimisations  :     0
 total energy-change (2. order) :-0.1040733E+01  (-0.9694645E+00)
 number of electron     269.9999992 magnetization      35.9098289
 augmentation part       86.0113168 magnetization      24.4516121

 Free energy of the ion-electron system (eV)
  ---------------------------------------------------
  alpha Z        PSCENC =       798.38614055
  Ewald energy   TEWEN  =    -12901.57693327
  -Hartree energ DENC   =     -2509.42520501
  -exchange      EXHF   =         0.00000000
  -V(xc)+E(xc)   XCENC  =      -999.56307160
  PAW double counting   =     20939.87826649   -19694.58893976
  entropy T*S    EENTRO =        -0.00888430
  eigenvalues    EBANDS =      1315.57577691
  atomic energy  EATOM  =     12697.67401269
  ---------------------------------------------------
  free energy    TOTEN  =      -353.65146961 eV

  energy without entropy =     -353.64258531  energy(sigma->0) =     -353.64850818


--------------------------------------------------------------------------------------------------------




--------------------------------------- Iteration      1(  15)  ---------------------------------------


    POTLOK:  cpu time    0.3888: real time    0.4073
    SETDIJ:  cpu time    0.4717: real time    1.1829
    TRIAL :  cpu time   16.9222: real time   17.1997
    CORREC:  cpu time    5.3837: real time    5.4009
    CHARGE:  cpu time    1.5955: real time    1.5958
    --------------------------------------------
      LOOP:  cpu time   24.7679: real time   25.7928

 eigenvalue-minimisations  :     0
 total energy-change (2. order) :-0.9653469E+00  (-0.9330339E+00)
 number of electron     269.9999992 magnetization      35.8619598
 augmentation part       86.3592203 magnetization      24.3718877

 Free energy of the ion-electron system (eV)
  ---------------------------------------------------
  alpha Z        PSCENC =       798.38614055
  Ewald energy   TEWEN  =    -12901.57693327
  -Hartree energ DENC   =     -2476.04230508
  -exchange      EXHF   =         0.00000000
  -V(xc)+E(xc)   XCENC  =     -1000.69395157
  PAW double counting   =     20366.00135653   -19111.65943690
  entropy T*S    EENTRO =        -0.00810830
  eigenvalues    EBANDS =      1273.30318482
  atomic energy  EATOM  =     12697.67401269
  ---------------------------------------------------
  free energy    TOTEN  =      -354.61681654 eV

  energy without entropy =     -354.60870824  energy(sigma->0) =     -354.61411377


--------------------------------------------------------------------------------------------------------




--------------------------------------- Iteration      1(  16)  ---------------------------------------


    POTLOK:  cpu time    0.3928: real time    0.3928
    SETDIJ:  cpu time    0.4804: real time    0.4918
    TRIAL :  cpu time   16.9662: real time   17.1437
    CORREC:  cpu time    5.4048: real time    5.4181
    CHARGE:  cpu time    1.6020: real time    1.6021
    --------------------------------------------
      LOOP:  cpu time   24.8598: real time   25.0626

 eigenvalue-minimisations  :     0
 total energy-change (2. order) :-0.9303000E+00  (-0.3196552E+00)
 number of electron     269.9999992 magnetization      35.8932963
 augmentation part       86.9140517 magnetization      24.4760374

 Free energy of the ion-electron system (eV)
  ---------------------------------------------------
  alpha Z        PSCENC =       798.38614055
  Ewald energy   TEWEN  =    -12901.57693327
  -Hartree energ DENC   =     -2478.02952832
  -exchange      EXHF   =         0.00000000
  -V(xc)+E(xc)   XCENC  =     -1000.41874070
  PAW double counting   =     19803.33577493   -18549.07608947
  entropy T*S    EENTRO =        -0.00791751
  eigenvalues    EBANDS =      1274.16635537
  atomic energy  EATOM  =     12697.67401269
  ---------------------------------------------------
  free energy    TOTEN  =      -355.54711653 eV

  energy without entropy =     -355.53919902  energy(sigma->0) =     -355.54447736


--------------------------------------------------------------------------------------------------------




--------------------------------------- Iteration      1(  17)  ---------------------------------------


    POTLOK:  cpu time    0.3927: real time    0.3928
    SETDIJ:  cpu time    0.4562: real time    0.4564
    TRIAL :  cpu time   16.9024: real time   17.8341
    CORREC:  cpu time    5.3840: real time    5.4110
    CHARGE:  cpu time    1.5891: real time    1.6412
    --------------------------------------------
      LOOP:  cpu time   24.7281: real time   25.7409

 eigenvalue-minimisations  :     0
 total energy-change (2. order) :-0.3193000E+00  (-0.1661857E+00)
 number of electron     269.9999992 magnetization      35.9078643
 augmentation part       87.2571638 magnetization      24.5869997

 Free energy of the ion-electron system (eV)
  ---------------------------------------------------
  alpha Z        PSCENC =       798.38614055
  Ewald energy   TEWEN  =    -12901.57693327
  -Hartree energ DENC   =     -2500.54248004
  -exchange      EXHF   =         0.00000000
  -V(xc)+E(xc)   XCENC  =      -999.42039108
  PAW double counting   =     19651.53616882   -18402.45110169
  entropy T*S    EENTRO =        -0.00660408
  eigenvalues    EBANDS =      1300.53608501
  atomic energy  EATOM  =     12697.67401269
  ---------------------------------------------------
  free energy    TOTEN  =      -355.86641652 eV

  energy without entropy =     -355.85981244  energy(sigma->0) =     -355.86421516


--------------------------------------------------------------------------------------------------------




--------------------------------------- Iteration      1(  18)  ---------------------------------------


    POTLOK:  cpu time    0.3918: real time    0.3918
    SETDIJ:  cpu time    0.4534: real time    0.4704
    TRIAL :  cpu time   17.0354: real time   17.0958
    CORREC:  cpu time    5.3364: real time    5.4671
    CHARGE:  cpu time    1.6018: real time    1.6021
    --------------------------------------------
      LOOP:  cpu time   24.8259: real time   25.0352

 eigenvalue-minimisations  :     0
 total energy-change (2. order) :-0.1663533E+00  (-0.1710767E+00)
 number of electron     269.9999992 magnetization      35.8317678
 augmentation part       87.2679266 magnetization      24.7137398

 Free energy of the ion-electron system (eV)
  ---------------------------------------------------
  alpha Z        PSCENC =       798.38614055
  Ewald energy   TEWEN  =    -12901.57693327
  -Hartree energ DENC   =     -2515.46761211
  -exchange      EXHF   =         0.00000000
  -V(xc)+E(xc)   XCENC  =      -998.69389779
  PAW double counting   =     19595.23840094   -18349.67757760
  entropy T*S    EENTRO =        -0.00824747
  eigenvalues    EBANDS =      1318.09130084
  atomic energy  EATOM  =     12697.67401269
  ---------------------------------------------------
  free energy    TOTEN  =      -356.03276983 eV

  energy without entropy =     -356.02452235  energy(sigma->0) =     -356.03002067


--------------------------------------------------------------------------------------------------------




--------------------------------------- Iteration      1(  19)  ---------------------------------------


    POTLOK:  cpu time    0.3917: real time    0.3988
    SETDIJ:  cpu time    0.4721: real time    0.4720
    TRIAL :  cpu time   17.8212: real time   17.8486
    CORREC:  cpu time    5.3606: real time    6.0968
    CHARGE:  cpu time    1.5654: real time    1.6662
    --------------------------------------------
      LOOP:  cpu time   25.6187: real time   26.4912

 eigenvalue-minimisations  :     0
 total energy-change (2. order) :-0.1707605E+00  (-0.1169643E+00)
 number of electron     269.9999992 magnetization      35.8933003
 augmentation part       87.0643486 magnetization      24.8514528

 Free energy of the ion-electron system (eV)
  ---------------------------------------------------
  alpha Z        PSCENC =       798.38614055
  Ewald energy   TEWEN  =    -12901.57693327
  -Hartree energ DENC   =     -2513.74832332
  -exchange      EXHF   =         0.00000000
  -V(xc)+E(xc)   XCENC  =      -998.46637350
  PAW double counting   =     19541.85183548   -18296.42367232
  entropy T*S    EENTRO =        -0.00623248
  eigenvalues    EBANDS =      1316.10803080
  atomic energy  EATOM  =     12697.67401269
  ---------------------------------------------------
  free energy    TOTEN  =      -356.20353037 eV

  energy without entropy =     -356.19729789  energy(sigma->0) =     -356.20145288


--------------------------------------------------------------------------------------------------------




--------------------------------------- Iteration      1(  20)  ---------------------------------------


    POTLOK:  cpu time    0.3887: real time    0.3953
    SETDIJ:  cpu time    0.4865: real time    0.4874
    TRIAL :  cpu time   16.9331: real time   17.0579
    CORREC:  cpu time    5.3969: real time    5.4450
    CHARGE:  cpu time    1.6151: real time    1.6294
    --------------------------------------------
      LOOP:  cpu time   24.8216: real time   25.0174

 eigenvalue-minimisations  :     0
 total energy-change (2. order) :-0.1162516E+00  (-0.3995631E-01)
 number of electron     269.9999992 magnetization      35.9128127
 augmentation part       86.9216797 magnetization      24.9029186

 Free energy of the ion-electron system (eV)
  ---------------------------------------------------
  alpha Z        PSCENC =       798.38614055
  Ewald energy   TEWEN  =    -12901.57693327
  -Hartree energ DENC   =     -2502.36567097
  -exchange      EXHF   =         0.00000000
  -V(xc)+E(xc)   XCENC  =      -998.62549692
  PAW double counting   =     19508.16337628   -18260.58848315
  entropy T*S    EENTRO =        -0.00515762
  eigenvalues    EBANDS =      1302.61950535
  atomic energy  EATOM  =     12697.67401269
  ---------------------------------------------------
  free energy    TOTEN  =      -356.31978192 eV

  energy without entropy =     -356.31462430  energy(sigma->0) =     -356.31806271


--------------------------------------------------------------------------------------------------------




--------------------------------------- Iteration      1(  21)  ---------------------------------------


    POTLOK:  cpu time    0.3912: real time    0.3912
    SETDIJ:  cpu time    0.4908: real time    0.4908
    TRIAL :  cpu time   17.0499: real time   17.1755
    CORREC:  cpu time    6.1363: real time    6.1492
    CHARGE:  cpu time    1.5896: real time    1.5897
    --------------------------------------------
      LOOP:  cpu time   25.6622: real time   25.8016

 eigenvalue-minimisations  :     0
 total energy-change (2. order) :-0.3993046E-01  (-0.4458960E-01)
 number of electron     269.9999992 magnetization      35.9109320
 augmentation part       86.8350453 magnetization      24.9728872

 Free energy of the ion-electron system (eV)
  ---------------------------------------------------
  alpha Z        PSCENC =       798.38614055
  Ewald energy   TEWEN  =    -12901.57693327
  -Hartree energ DENC   =     -2496.07321943
  -exchange      EXHF   =         0.00000000
  -V(xc)+E(xc)   XCENC  =      -998.74163999
  PAW double counting   =     19499.69007056   -18250.77290608
  entropy T*S    EENTRO =        -0.00586219
  eigenvalues    EBANDS =      1295.05992021
  atomic energy  EATOM  =     12697.67401269
  ---------------------------------------------------
  free energy    TOTEN  =      -356.35971238 eV

  energy without entropy =     -356.35385019  energy(sigma->0) =     -356.35775831


--------------------------------------------------------------------------------------------------------




--------------------------------------- Iteration      1(  22)  ---------------------------------------


    POTLOK:  cpu time    0.3913: real time    0.3914
    SETDIJ:  cpu time    0.4645: real time    0.4644
    TRIAL :  cpu time   16.8591: real time   17.8710
    CORREC:  cpu time    5.3791: real time    5.3873
    CHARGE:  cpu time    1.5870: real time    1.6019
    --------------------------------------------
      LOOP:  cpu time   24.6942: real time   25.7292

 eigenvalue-minimisations  :     0
 total energy-change (2. order) :-0.4446908E-01  (-0.3084901E-01)
 number of electron     269.9999992 magnetization      35.9639295
 augmentation part       86.9143398 magnetization      25.0521568

 Free energy of the ion-electron system (eV)
  ---------------------------------------------------
  alpha Z        PSCENC =       798.38614055
  Ewald energy   TEWEN  =    -12901.57693327
  -Hartree energ DENC   =     -2493.61024072
  -exchange      EXHF   =         0.00000000
  -V(xc)+E(xc)   XCENC  =      -998.68983515
  PAW double counting   =     19502.37498851   -18252.94127987
  entropy T*S    EENTRO =        -0.00468376
  eigenvalues    EBANDS =      1291.98482800
  atomic energy  EATOM  =     12697.67401269
  ---------------------------------------------------
  free energy    TOTEN  =      -356.40418146 eV

  energy without entropy =     -356.39949770  energy(sigma->0) =     -356.40262020


--------------------------------------------------------------------------------------------------------




--------------------------------------- Iteration      1(  23)  ---------------------------------------


    POTLOK:  cpu time    0.3915: real time    0.3915
    SETDIJ:  cpu time    0.4759: real time    0.4759
    TRIAL :  cpu time   17.0030: real time   17.1856
    CORREC:  cpu time    5.4099: real time    5.4212
    CHARGE:  cpu time    1.5874: real time    1.5874
    --------------------------------------------
      LOOP:  cpu time   24.8747: real time   25.0696

 eigenvalue-minimisations  :     0
 total energy-change (2. order) :-0.3081731E-01  (-0.1366245E-01)
 number of electron     269.9999992 magnetization      35.9699119
 augmentation part       86.9972155 magnetization      25.0796998

 Free energy of the ion-electron system (eV)
  ---------------------------------------------------
  alpha Z        PSCENC =       798.38614055
  Ewald energy   TEWEN  =    -12901.57693327
  -Hartree energ DENC   =     -2499.59415452
  -exchange      EXHF   =         0.00000000
  -V(xc)+E(xc)   XCENC  =      -998.36279583
  PAW double counting   =     19517.82363732   -18269.62026447
  entropy T*S    EENTRO =        -0.00452953
  eigenvalues    EBANDS =      1298.84004252
  atomic energy  EATOM  =     12697.67401269
  ---------------------------------------------------
  free energy    TOTEN  =      -356.43499876 eV

  energy without entropy =     -356.43046923  energy(sigma->0) =     -356.43348892


--------------------------------------------------------------------------------------------------------




--------------------------------------- Iteration      1(  24)  ---------------------------------------


    POTLOK:  cpu time    0.3940: real time    0.3940
    SETDIJ:  cpu time    0.5153: real time    0.5156
    TRIAL :  cpu time   16.8881: real time   17.8147
    CORREC:  cpu time    5.4124: real time    5.4378
    CHARGE:  cpu time    1.5673: real time    1.6344
    --------------------------------------------
      LOOP:  cpu time   24.7929: real time   25.8126

 eigenvalue-minimisations  :     0
 total energy-change (2. order) :-0.1366983E-01  (-0.7757588E-02)
[...]
   45       -0.026  -0.022  -2.420  -2.469
   46        0.019   0.015   2.375   2.409
   47        0.019   0.015   2.377   2.411
   48       -0.005  -0.000  -2.235  -2.240
   49        0.018   0.025   2.388   2.431
   50        0.018   0.026   2.388   2.432
   51       -0.023  -0.022  -2.129  -2.175
   52        0.018   0.021   2.367   2.405
   53        0.018   0.020   2.363   2.401
   54       -0.017  -0.013  -2.346  -2.376
--------------------------------------------------
tot         -0.021  -0.211  35.854  35.622
 
    FORLOC:  cpu time    0.0582: real time    0.0582
    FORNL :  cpu time   25.2449: real time   26.1101
    STRESS:  cpu time   35.6244: real time   35.8436
    FORCOR:  cpu time    0.4425: real time    0.4426
    OFIELD:  cpu time    0.0020: real time    0.0020

  FORCE on cell =-STRESS in cart. coord.  units (eV):
  Direction    XX          YY          ZZ          XY          YZ          ZX
  --------------------------------------------------------------------------------------
  Alpha Z   798.38614   798.38614   798.38614
  Ewald   -4053.61603 -4053.61603 -4794.40593    -0.00000    -0.00000    -0.00000
  Hartree  1083.66388  1083.66388   335.07514     0.15573    -0.00000    -0.00000
  E(xc)   -1141.45105 -1141.45105 -1140.19114    -0.05550     0.00000     0.00000
  Local     371.29093   371.29093  1900.70853    -0.51710     0.00000     0.00000
  n-local  -173.24962  -169.28894  -177.34600     0.08298    -0.14865    -0.00427
  augment   783.78095   783.78095   768.92191     0.13037     0.00001     0.00001
  Kinetic  2328.65976  2340.26702  2312.60395     0.38670    -1.17002    -0.62938
  Fock        0.00000     0.00000     0.00000     0.00000     0.00000     0.00000
  -------------------------------------------------------------------------------------
  Total       5.24893     5.24893     3.75260     0.17998     0.00000     0.00000
  in kB      11.84615    11.84615     8.46913     0.40618     0.00000     0.00000
  external pressure =       10.72 kB  Pullay stress =        0.00 kB


 VOLUME and BASIS-vectors are now :
 -----------------------------------------------------------------------------
  energy-cutoff  :      404.80
  volume of cell :      709.91
      direct lattice vectors                 reciprocal lattice vectors
     8.250148166  0.000000000  0.000000000     0.121209944  0.000000000  0.000000000
     0.000000000  8.250148166  0.000000000     0.000000000  0.121209944  0.000000000
     0.000000000  0.000000000 10.429911392     0.000000000  0.000000000  0.095878092

  length of vectors
     8.250148166  8.250148166 10.429911392     0.121209944  0.121209944  0.095878092


 FORCES acting on ions:
    Electron-Ion                     Ewald-Force                    Non-Local-Force
 -----------------------------------------------------------------------------------------------
   -.901E-01 0.154E+00 -.557E-01   -.239E-08 -.239E-08 -.210E-08   0.925E-01 -.745E-01 0.129E-01
   -.110E-01 0.392E-02 0.482E-06   -.239E-08 -.239E-08 0.171E-08   0.688E-02 0.121E-01 0.000E+00
   -.901E-01 0.154E+00 0.557E-01   -.239E-08 -.239E-08 0.861E-08   0.925E-01 -.745E-01 -.129E-01
   -.126E+00 -.126E+00 -.588E-01   -.239E-08 -.802E-09 -.210E-08   0.926E-01 0.926E-01 0.338E-01
   0.467E-02 0.467E-02 0.482E-06   -.239E-08 -.802E-09 0.171E-08   -.494E-02 -.494E-02 0.000E+00
   -.126E+00 -.126E+00 0.588E-01   -.239E-08 -.802E-09 0.861E-08   0.926E-01 0.926E-01 -.338E-01
   -.110E+00 -.389E-01 -.699E-01   -.239E-08 0.631E-08 -.210E-08   0.168E+00 0.856E-03 0.828E-01
   -.146E-01 -.105E-01 0.484E-06   -.239E-08 0.631E-08 0.171E-08   -.277E-01 -.527E-02 0.000E+00
   -.110E+00 -.389E-01 0.699E-01   -.239E-08 0.631E-08 0.861E-08   0.168E+00 0.856E-03 -.828E-01
   0.878E-01 0.139E+00 -.449E-01   -.802E-09 -.239E-08 -.210E-08   -.853E-01 -.721E-01 0.575E-01
   0.948E-02 0.224E-01 0.483E-06   -.802E-09 -.239E-08 0.171E-08   -.125E-02 -.190E-02 0.000E+00
   0.878E-01 0.139E+00 0.449E-01   -.803E-09 -.239E-08 0.861E-08   -.853E-01 -.721E-01 -.575E-01
   -.389E-01 -.110E+00 -.699E-01   -.802E-09 -.802E-09 -.210E-08   0.856E-03 0.168E+00 0.828E-01
   -.105E-01 -.146E-01 0.484E-06   -.802E-09 -.802E-09 0.171E-08   -.527E-02 -.277E-01 0.000E+00
   -.389E-01 -.110E+00 0.699E-01   -.803E-09 -.802E-09 0.861E-08   0.856E-03 0.168E+00 -.828E-01
   -.232E-01 -.232E-01 -.344E-02   -.802E-09 0.631E-08 -.210E-08   -.988E-01 -.988E-01 0.413E-01
   0.217E-03 0.217E-03 0.486E-06   -.802E-09 0.631E-08 0.171E-08   0.253E-01 0.253E-01 0.000E+00
   -.232E-01 -.232E-01 0.344E-02   -.803E-09 0.631E-08 0.861E-08   -.988E-01 -.988E-01 -.413E-01
   -.924E-02 -.924E-02 -.993E-01   0.631E-08 -.239E-08 -.210E-08   -.797E-02 -.797E-02 0.104E-01
   -.726E-03 -.726E-03 0.480E-06   0.631E-08 -.239E-08 0.171E-08   -.691E-02 -.691E-02 0.000E+00
   -.924E-02 -.924E-02 0.993E-01   0.631E-08 -.239E-08 0.861E-08   -.797E-02 -.797E-02 -.104E-01
   0.154E+00 -.901E-01 -.557E-01   0.631E-08 -.802E-09 -.210E-08   -.745E-01 0.925E-01 0.129E-01
   0.392E-02 -.110E-01 0.482E-06   0.631E-08 -.802E-09 0.171E-08   0.121E-01 0.688E-02 0.000E+00
   0.154E+00 -.901E-01 0.557E-01   0.631E-08 -.802E-09 0.861E-08   -.745E-01 0.925E-01 -.129E-01
   0.139E+00 0.878E-01 -.449E-01   0.631E-08 0.631E-08 -.210E-08   -.721E-01 -.853E-01 0.575E-01
   0.224E-01 0.948E-02 0.483E-06   0.631E-08 0.631E-08 0.171E-08   -.190E-02 -.125E-02 0.000E+00
   0.139E+00 0.878E-01 0.449E-01   0.631E-08 0.631E-08 0.861E-08   -.721E-01 -.853E-01 -.575E-01
   0.313E-01 0.426E-01 0.923E-01   -.169E-07 -.169E-07 -.180E-07   -.158E-01 -.316E-01 -.143E+00
   0.313E-01 0.426E-01 -.923E-01   -.169E-07 -.169E-07 -.170E-08   -.158E-01 -.316E-01 0.143E+00
   -.108E+00 0.635E-01 -.250E-05   -.169E-07 -.169E-07 0.115E-07   0.984E-01 -.724E-01 0.000E+00
   -.204E-01 -.204E-01 -.337E+00   -.169E-07 0.802E-09 -.180E-07   0.956E-02 0.956E-02 0.416E+00
   -.204E-01 -.204E-01 0.337E+00   -.169E-07 0.802E-09 -.170E-08   0.956E-02 0.956E-02 -.416E+00
   0.460E+00 0.460E+00 -.271E-05   -.169E-07 0.802E-09 0.115E-07   -.230E+00 -.230E+00 0.000E+00
   0.108E-01 -.223E-01 -.191E+00   -.169E-07 0.130E-07 -.180E-07   0.324E-02 0.124E-01 0.162E+00
   0.108E-01 -.223E-01 0.191E+00   -.169E-07 0.130E-07 -.170E-08   0.324E-02 0.124E-01 -.162E+00
   -.294E-01 -.578E+00 -.267E-05   -.169E-07 0.130E-07 0.115E-07   0.632E-01 0.228E+00 0.000E+00
   -.698E-01 -.506E-01 -.191E-01   0.802E-09 -.169E-07 -.180E-07   0.282E-01 0.369E-01 -.591E-02
   -.698E-01 -.506E-01 0.191E-01   0.802E-09 -.169E-07 -.170E-08   0.282E-01 0.369E-01 0.591E-02
   0.151E-01 -.386E+00 -.252E-05   0.802E-09 -.169E-07 0.115E-07   0.676E-02 0.269E+00 0.000E+00
   -.223E-01 0.108E-01 -.191E+00   0.802E-09 0.802E-09 -.180E-07   0.124E-01 0.324E-02 0.162E+00
   -.223E-01 0.108E-01 0.191E+00   0.802E-09 0.802E-09 -.170E-08   0.124E-01 0.324E-02 -.162E+00
   -.578E+00 -.294E-01 -.267E-05   0.802E-09 0.802E-09 0.115E-07   0.228E+00 0.632E-01 0.000E+00
   0.420E-01 0.420E-01 0.276E-01   0.802E-09 0.130E-07 -.180E-07   -.270E-01 -.270E-01 -.125E-01
   0.420E-01 0.420E-01 -.276E-01   0.802E-09 0.130E-07 -.170E-08   -.270E-01 -.270E-01 0.125E-01
   0.506E+00 0.506E+00 -.258E-05   0.802E-09 0.130E-07 0.115E-07   -.287E+00 -.287E+00 0.000E+00
   0.355E-01 0.355E-01 0.205E-01   0.130E-07 -.169E-07 -.180E-07   -.101E-01 -.101E-01 -.859E-01
   0.355E-01 0.355E-01 -.205E-01   0.130E-07 -.169E-07 -.170E-08   -.101E-01 -.101E-01 0.859E-01
   0.104E+00 0.104E+00 -.245E-05   0.130E-07 -.169E-07 0.115E-07   -.130E+00 -.130E+00 0.000E+00
   0.426E-01 0.313E-01 0.923E-01   0.130E-07 0.802E-09 -.180E-07   -.316E-01 -.158E-01 -.143E+00
   0.426E-01 0.313E-01 -.923E-01   0.130E-07 0.802E-09 -.170E-08   -.316E-01 -.158E-01 0.143E+00
   0.635E-01 -.108E+00 -.250E-05   0.130E-07 0.802E-09 0.115E-07   -.724E-01 0.984E-01 0.000E+00
   -.506E-01 -.698E-01 -.191E-01   0.130E-07 0.130E-07 -.180E-07   0.369E-01 0.282E-01 -.591E-02
   -.506E-01 -.698E-01 0.191E-01   0.130E-07 0.130E-07 -.170E-08   0.369E-01 0.282E-01 0.591E-02
   -.386E+00 0.151E-01 -.252E-05   0.130E-07 0.130E-07 0.115E-07   0.269E+00 0.676E-02 0.000E+00
 -----------------------------------------------------------------------------------------------
   0.160E-01 0.160E-01 -.209E-04   -.614E-13 -.142E-13 0.128E-13   -.160E-01 -.160E-01 0.000E+00
 
 
 POSITION                                       TOTAL-FORCE (eV/Angst)
 -----------------------------------------------------------------------------------
      0.00000      0.00000      0.00000        -0.005302      0.085766     -0.045616
      0.00000      0.00000      3.47664        -0.004777      0.015384     -0.000000
      0.00000      0.00000      6.95327        -0.005302      0.085766      0.045616
      0.00000      2.75005      0.00000        -0.041518     -0.041518     -0.029172
      0.00000      2.75005      3.47664         0.000259      0.000259     -0.000000
      0.00000      2.75005      6.95327        -0.041518     -0.041518      0.029172
      0.00000      5.50010      0.00000         0.044069     -0.038261      0.004494
      0.00000      5.50010      3.47664        -0.040733     -0.015725     -0.000000
      0.00000      5.50010      6.95327         0.044069     -0.038261     -0.004494
      2.75005      0.00000      0.00000         0.009762      0.073435      0.006174
      2.75005      0.00000      3.47664         0.008664      0.021074     -0.000000
      2.75005      0.00000      6.95327         0.009762      0.073435     -0.006174
      2.75005      2.75005      0.00000        -0.038261      0.044069      0.004494
      2.75005      2.75005      3.47664        -0.015725     -0.040733     -0.000000
      2.75005      2.75005      6.95327        -0.038261      0.044069     -0.004494
      2.75005      5.50010      0.00000        -0.113655     -0.113655      0.033012
      2.75005      5.50010      3.47664         0.023758      0.023758     -0.000000
      2.75005      5.50010      6.95327        -0.113655     -0.113655     -0.033012
      5.50010      0.00000      0.00000        -0.016853     -0.016853     -0.090727
      5.50010      0.00000      3.47664        -0.007444     -0.007444     -0.000000
      5.50010      0.00000      6.95327        -0.016853     -0.016853      0.090727
      5.50010      2.75005      0.00000         0.085766     -0.005302     -0.045616
      5.50010      2.75005      3.47664         0.015384     -0.004777     -0.000000
      5.50010      2.75005      6.95327         0.085766     -0.005302      0.045616
      5.50010      5.50010      0.00000         0.073435      0.009762      0.006174
      5.50010      5.50010      3.47664         0.021074      0.008664     -0.000000
      5.50010      5.50010      6.95327         0.073435      0.009762     -0.006174
      1.37502      1.37502      1.73832         0.015481      0.010548     -0.038589
      1.37502      1.37502      5.21496         0.015481      0.010548      0.038589
      1.37502      1.37502      8.69159        -0.011878     -0.007496     -0.000000
      1.37502      4.12507      1.73832        -0.010316     -0.010316      0.073587
      1.37502      4.12507      5.21496        -0.010316     -0.010316     -0.073587
      1.37502      4.12507      8.69159         0.241521      0.241521     -0.000000
      1.37502      6.87512      1.73832         0.014652     -0.010134     -0.027443
      1.37502      6.87512      5.21496         0.014652     -0.010134      0.027443
      1.37502      6.87512      8.69159         0.034598     -0.365360     -0.000000
      4.12507      1.37502      1.73832        -0.042103     -0.014893     -0.019233
      4.12507      1.37502      5.21496        -0.042103     -0.014893      0.019233
      4.12507      1.37502      8.69159         0.024576     -0.119810     -0.000000
      4.12507      4.12507      1.73832        -0.010134      0.014652     -0.027443
      4.12507      4.12507      5.21496        -0.010134      0.014652      0.027443
      4.12507      4.12507      8.69159        -0.365360      0.034598     -0.000000
      4.12507      6.87512      1.73832         0.015833      0.015833      0.022411
      4.12507      6.87512      5.21496         0.015833      0.015833     -0.022411
      4.12507      6.87512      8.69159         0.225038      0.225038     -0.000000
      6.87512      1.37502      1.73832         0.025801      0.025801     -0.057972
      6.87512      1.37502      5.21496         0.025801      0.025801      0.057972
      6.87512      1.37502      8.69159        -0.026274     -0.026274     -0.000000
      6.87512      4.12507      1.73832         0.010548      0.015481     -0.038589
      6.87512      4.12507      5.21496         0.010548      0.015481      0.038589
      6.87512      4.12507      8.69159        -0.007496     -0.011878     -0.000000
      6.87512      6.87512      1.73832        -0.014893     -0.042103     -0.019233
      6.87512      6.87512      5.21496        -0.014893     -0.042103      0.019233
      6.87512      6.87512      8.69159        -0.119810      0.024576     -0.000000
 -----------------------------------------------------------------------------------
    total drift:                                0.000014      0.000014     -0.000021


--------------------------------------------------------------------------------------------------------



  FREE ENERGIE OF THE ION-ELECTRON SYSTEM (eV)
  ---------------------------------------------------
  free  energy   TOTEN  =      -356.48281494 eV

  energy  without entropy=     -356.48517556  energy(sigma->0) =     -356.48360181
 


--------------------------------------------------------------------------------------------------------


    POTLOK:  cpu time    1.7619: real time    1.7618


--------------------------------------------------------------------------------------------------------


     LOOP+:  cpu time 1790.1576: real time 1835.7578
    4ORBIT:  cpu time    0.0000: real time    0.0000
 


 total charge     
 
# of ion       s       p       d       tot
------------------------------------------
    1        0.405   0.428   0.000   0.833
    2        0.404   0.430   0.000   0.834
    3        0.405   0.428   0.000   0.833
    4        0.405   0.428   0.000   0.832
    5        0.404   0.429   0.000   0.833
    6        0.405   0.428   0.000   0.833
    7        0.405   0.428   0.000   0.833
    8        0.404   0.429   0.000   0.833
    9        0.405   0.428   0.000   0.833
   10        0.405   0.428   0.000   0.833
   11        0.403   0.430   0.000   0.833
   12        0.405   0.428   0.000   0.832
   13        0.405   0.428   0.000   0.832
   14        0.404   0.429   0.000   0.833
   15        0.405   0.428   0.000   0.833
   16        0.405   0.427   0.000   0.832
   17        0.406   0.428   0.000   0.834
   18        0.405   0.427   0.000   0.832
   19        0.405   0.425   0.000   0.830
   20        0.404   0.430   0.000   0.833
   21        0.405   0.425   0.000   0.830
   22        0.405   0.428   0.000   0.833
   23        0.404   0.429   0.000   0.834
   24        0.405   0.428   0.000   0.833
   25        0.405   0.428   0.000   0.833
   26        0.404   0.429   0.000   0.833
   27        0.405   0.428   0.000   0.832
   28        0.333   0.352   5.147   5.832
   29        0.334   0.352   5.146   5.832
   30        0.332   0.353   5.122   5.808
   31        0.333   0.351   5.137   5.820
   32        0.333   0.351   5.142   5.826
   33        0.336   0.353   5.127   5.816
   34        0.333   0.348   5.150   5.831
   35        0.333   0.347   5.148   5.828
   36        0.336   0.357   5.162   5.856
   37        0.333   0.351   5.140   5.824
   38        0.333   0.351   5.141   5.825
   39        0.334   0.356   5.111   5.801
   40        0.333   0.348   5.142   5.822
   41        0.333   0.348   5.137   5.817
   42        0.337   0.353   5.089   5.779
   43        0.332   0.354   5.134   5.820
   44        0.332   0.353   5.132   5.817
   45        0.336   0.352   5.130   5.818
   46        0.333   0.349   5.141   5.822
   47        0.333   0.349   5.143   5.824
   48        0.331   0.355   5.135   5.821
   49        0.332   0.352   5.120   5.804
   50        0.332   0.353   5.121   5.806
   51        0.330   0.352   5.168   5.850
   52        0.333   0.352   5.132   5.816
   53        0.332   0.352   5.134   5.818
   54        0.334   0.352   5.150   5.837
--------------------------------------------------
tot         19.922  21.051 138.679 179.653
 


 magnetization (x)
 
# of ion       s       p       d       tot
------------------------------------------
    1       -0.004  -0.007   0.000  -0.012
    2       -0.022  -0.039   0.000  -0.061
    3       -0.004  -0.007   0.000  -0.012
    4       -0.006  -0.008   0.000  -0.014
    5       -0.022  -0.036   0.000  -0.058
    6       -0.006  -0.008   0.000  -0.013
    7       -0.010  -0.017   0.000  -0.027
    8       -0.022  -0.038   0.000  -0.059
    9       -0.010  -0.017   0.000  -0.027
   10       -0.006  -0.011   0.000  -0.017
   11       -0.023  -0.036   0.000  -0.058
   12       -0.006  -0.011   0.000  -0.017
   13       -0.010  -0.017   0.000  -0.027
   14       -0.021  -0.038   0.000  -0.059
   15       -0.010  -0.017   0.000  -0.027
   16       -0.014  -0.026   0.000  -0.040
   17       -0.021  -0.041   0.000  -0.062
   18       -0.014  -0.026   0.000  -0.040
   19       -0.001  -0.001   0.000  -0.002
   20       -0.022  -0.037   0.000  -0.059
   21       -0.001  -0.001   0.000  -0.002
   22       -0.004  -0.007   0.000  -0.011
   23       -0.022  -0.039   0.000  -0.060
   24       -0.004  -0.007   0.000  -0.011
   25       -0.006  -0.010   0.000  -0.015
   26       -0.022  -0.036   0.000  -0.058
   27       -0.006  -0.009   0.000  -0.015
   28        0.018   0.024   2.370   2.412
   29        0.018   0.024   2.370   2.412
   30       -0.021  -0.020  -2.047  -2.087
   31        0.018   0.021   2.305   2.344
   32        0.018   0.022   2.303   2.343
   33        0.019   0.013   2.433   2.465
   34        0.020   0.015   2.330   2.365
   35        0.020   0.015   2.326   2.361
   36        0.027   0.026   2.312   2.365
   37        0.018   0.020   2.360   2.397
   38        0.018   0.020   2.363   2.401
   39       -0.015  -0.012  -2.353  -2.379
   40        0.020   0.016   2.337   2.373
   41        0.020   0.016   2.340   2.376
   42        0.026   0.024   2.259   2.310
   43        0.016   0.024   2.361   2.401
   44        0.017   0.023   2.357   2.398
   45       -0.026  -0.022  -2.420  -2.469
   46        0.019   0.015   2.375   2.409
   47        0.019   0.015   2.377   2.411
   48       -0.005  -0.000  -2.235  -2.240
   49        0.018   0.025   2.388   2.431
   50        0.018   0.026   2.388   2.432
   51       -0.023  -0.022  -2.129  -2.175
   52        0.018   0.021   2.367   2.405
   53        0.018   0.020   2.363   2.401
   54       -0.017  -0.013  -2.346  -2.376
--------------------------------------------------
tot         -0.021  -0.211  35.854  35.622
 

 total amount of memory used by VASP MPI-rank0   950766. kBytes
=======================================================================

   base      :      30000. kBytes
   nonl-proj :      28494. kBytes
   fftplans  :      31580. kBytes
   grid      :      21385. kBytes
   one-center:        435. kBytes
   wavefun   :     838872. kBytes
 
  
  
 General timing and accounting informations for this job:
 ========================================================
  
                  Total CPU time used (sec):     1824.241
                            User time (sec):     1797.834
                          System time (sec):       26.407
                         Elapsed time (sec):     1874.145
  
                   Maximum memory used (kb):     1124220.
                   Average memory used (kb):           0.
  
                          Minor page faults:       501297
                          Major page faults:           19
                 Voluntary context switches:         2792
