 vasp.5.4.4.18Apr17-6-g9f103f2a35 (build Dec 20 2018 12:05:58) complex          
  
 executed on             LinuxIFC date 2019.06.20  17:25:46
 running on   32 total cores
 distrk:  each k-point on    8 cores,    4 groups
 distr:  one band on NCORES_PER_BAND=   4 cores,    2 groups


--------------------------------------------------------------------------------------------------------


 INCAR:
 POTCAR:    PAW_PBE Al 04Jan2001                  
 POTCAR:    PAW_PBE Mn 06Sep2000                  

 ----------------------------------------------------------------------------- 
|                                                                             |
|           W    W    AA    RRRRR   N    N  II  N    N   GGGG   !!!           |
|           W    W   A  A   R    R  NN   N  II  NN   N  G    G  !!!           |
|           W    W  A    A  R    R  N N  N  II  N N  N  G       !!!           |
|           W WW W  AAAAAA  RRRRR   N  N N  II  N  N N  G  GGG   !            |
|           WW  WW  A    A  R   R   N   NN  II  N   NN  G    G                |
|           W    W  A    A  R    R  N    N  II  N    N   GGGG   !!!           |
|                                                                             |
|      You have enabled k-point parallelism (KPAR>1).                         |
|      This developmental code was originally  written by Paul Kent at ORNL,  |
|      and carefully double checked in Vienna.                                |
|      GW as well as linear response parallelism added by Martijn Marsman     |
|      and Georg Kresse.                                                      |
|      Carefully verify results versus KPAR=1.                                |
|      Report problems to Paul Kent and Vienna.                               |
|                                                                             |
 ----------------------------------------------------------------------------- 

 POTCAR:    PAW_PBE Al 04Jan2001                  
   VRHFIN =Al: s2p1                                                             
   LEXCH  = PE                                                                  
   EATOM  =    53.5387 eV,    3.9350 Ry                                         
                                                                                
   TITEL  = PAW_PBE Al 04Jan2001                                                
   LULTRA =        F    use ultrasoft PP ?                                      
   IUNSCR =        1    unscreen: 0-lin 1-nonlin 2-no                           
   RPACOR =    1.500    partial core radius                                     
   POMASS =   26.981; ZVAL   =    3.000    mass and valenz                      
   RCORE  =    1.900    outmost cutoff radius                                   
   RWIGS  =    2.650; RWIGS  =    1.402    wigner-seitz radius (au A)           
   ENMAX  =  240.300; ENMIN  =  180.225 eV                                      
   ICORE  =        2    local potential                                         
   LCOR   =        T    correct aug charges                                     
   LPAW   =        T    paw PP                                                  
   EAUG   =  291.052                                                            
   DEXC   =    0.000                                                            
   RMAX   =    1.939    core radius for proj-oper                               
   RAUG   =    1.300    factor for augmentation sphere                          
   RDEP   =    1.966    radius for radial grids                                 
   RDEPT  =    1.856    core radius for aug-charge                              
                                                                                
   Atomic configuration                                                         
    6 entries                                                                   
     n  l   j            E        occ.                                          
     1  0  0.50     -1511.1048   2.0000                                         
     2  0  0.50      -108.1629   2.0000                                         
     2  1  1.50       -69.6402   6.0000                                         
     3  0  0.50        -7.7528   2.0000                                         
     3  1  1.50        -2.7121   1.0000                                         
     3  2  2.50        -2.7212   0.0000                                         
   Description                                                                  
     l       E           TYP  RCUT    TYP  RCUT                                 
     0     -7.7528455     23  1.900                                             
     0     -3.3096929     23  1.900                                             
     1     -2.7120682     23  1.900                                             
     1     13.6058260     23  1.900                                             
     2     -2.7211652      7  1.900                                             
  local pseudopotential read in
  partial core-charges read in
  partial kinetic energy density read in
  atomic valenz-charges read in
  non local Contribution for L=           0  read in
    real space projection operators read in
  non local Contribution for L=           0  read in
    real space projection operators read in
  non local Contribution for L=           1  read in
    real space projection operators read in
  non local Contribution for L=           1  read in
    real space projection operators read in
    PAW grid and wavefunctions read in
 
   number of l-projection  operators is LMAX  =           4
   number of lm-projection operators is LMMAX =           8
 
 POTCAR:    PAW_PBE Mn 06Sep2000                  
   VRHFIN =Mn: d6 s1                                                            
   LEXCH  = PE                                                                  
   EATOM  =   416.7541 eV,   30.6306 Ry                                         
                                                                                
   TITEL  = PAW_PBE Mn 06Sep2000                                                
   LULTRA =        F    use ultrasoft PP ?                                      
   IUNSCR =        1    unscreen: 0-lin 1-nonlin 2-no                           
   RPACOR =    2.000    partial core radius                                     
   POMASS =   54.938; ZVAL   =    7.000    mass and valenz                      
   RCORE  =    2.300    outmost cutoff radius                                   
   RWIGS  =    2.500; RWIGS  =    1.323    wigner-seitz radius (au A)           
   ENMAX  =  269.864; ENMIN  =  202.398 eV                                      
   RCLOC  =    1.725    cutoff for local pot                                    
   LCOR   =        T    correct aug charges                                     
   LPAW   =        T    paw PP                                                  
   EAUG   =  500.711                                                            
   DEXC   =    0.000                                                            
   RMAX   =    2.343    core radius for proj-oper                               
   RAUG   =    1.300    factor for augmentation sphere                          
   RDEP   =    2.338    radius for radial grids                                 
   RDEPT  =    1.911    core radius for aug-charge                              
                                                                                
   Atomic configuration                                                         
    9 entries                                                                   
     n  l   j            E        occ.                                          
     1  0  0.50     -6424.8288   2.0000                                         
     2  0  0.50      -739.1154   2.0000                                         
     2  1  1.50      -625.3949   6.0000                                         
     3  0  0.50       -81.6100   2.0000                                         
     3  1  1.50       -50.4667   6.0000                                         
     3  2  2.50        -3.3745   6.0000                                         
     4  0  0.50        -4.1331   1.0000                                         
     4  1  0.50        -4.0817   0.0000                                         
     4  3  2.50        -1.3606   0.0000                                         
   Description                                                                  
     l       E           TYP  RCUT    TYP  RCUT                                 
     2     -3.3744664     23  2.300                                             
     2     -4.7350490     23  2.300                                             
     0     -4.1331408     23  2.300                                             
     0      7.6656614     23  2.300                                             
     1     -2.7211652     23  2.300                                             
     1     20.4087390     23  2.300                                             
  local pseudopotential read in
  partial core-charges read in
  partial kinetic energy density read in
  atomic valenz-charges read in
  non local Contribution for L=           2  read in
    real space projection operators read in
  non local Contribution for L=           2  read in
    real space projection operators read in
  non local Contribution for L=           0  read in
    real space projection operators read in
  non local Contribution for L=           0  read in
    real space projection operators read in
  non local Contribution for L=           1  read in
    real space projection operators read in
  non local Contribution for L=           1  read in
    real space projection operators read in
    PAW grid and wavefunctions read in
 
   number of l-projection  operators is LMAX  =           6
   number of lm-projection operators is LMMAX =          18
 

 ----------------------------------------------------------------------------- 
|                                                                             |
|  ADVICE TO THIS USER RUNNING 'VASP/VAMP'   (HEAR YOUR MASTER'S VOICE ...):  |
|                                                                             |
|      You have a (more or less) 'large supercell' and for larger cells       |
|      it might be more efficient to use real space projection opertators     |
|      So try LREAL= Auto  in the INCAR   file.                               |
|      Mind:          For very  accurate calculation you might also keep the  |
|      reciprocal projection scheme          (i.e. LREAL=.FALSE.)             |
|                                                                             |
 ----------------------------------------------------------------------------- 

  PAW_PBE Al 04Jan2001                  :
 energy of atom  1       EATOM=  -53.5387
 kinetic energy error for atom=    0.0005 (will be added to EATOM!!)
  PAW_PBE Mn 06Sep2000                  :
 energy of atom  2       EATOM= -416.7541
 kinetic energy error for atom=    0.0080 (will be added to EATOM!!)
 
 
 POSCAR: NewRef: 27, @ ['Mn', array([1.37502469, 
  positions in cartesian coordinates
  velocities in cartesian coordinates
  No initial velocities read in
 exchange correlation table for  LEXCH =        8
   RHO(1)=    0.500       N(1)  =     2000
   RHO(2)=  100.500       N(2)  =     4000
 


--------------------------------------------------------------------------------------------------------


 ion  position               nearest neighbor table
   1  0.000  0.000  0.000-  28 2.61  30 2.61  34 2.61  36 2.61  46 2.61  48 2.61  52 2.61  54 2.61
                             4 2.75  10 2.75   7 2.75  19 2.75
   2  0.000  0.000  0.333-  28 2.61  34 2.61  46 2.61  52 2.61  29 2.61  47 2.61  35 2.61  53 2.61
                             5 2.75  11 2.75   8 2.75  20 2.75
   3  0.000  0.000  0.667-  29 2.61  35 2.61  47 2.61  53 2.61  30 2.61  48 2.61  36 2.61  54 2.61
                             6 2.75  12 2.75   9 2.75  21 2.75
   4  0.000  0.333  0.000-  28 2.61  30 2.61  46 2.61  48 2.61  31 2.61  33 2.61  49 2.61  51 2.61
                            13 2.75   1 2.75   7 2.75  22 2.75
   5  0.000  0.333  0.333-  28 2.61  46 2.61  31 2.61  49 2.61  47 2.61  29 2.61  32 2.61  50 2.61
                            14 2.75   2 2.75   8 2.75  23 2.75
   6  0.000  0.333  0.667-  29 2.61  47 2.61  32 2.61  50 2.61  48 2.61  30 2.61  33 2.61  51 2.61
                            15 2.75   3 2.75   9 2.75  24 2.75
   7  0.000  0.667  0.000-  31 2.61  33 2.61  49 2.61  51 2.61  34 2.61  36 2.61  52 2.61  54 2.61
                             4 2.75  16 2.75   1 2.75  25 2.75
   8  0.000  0.667  0.333-  31 2.61  49 2.61  34 2.61  52 2.61  50 2.61  32 2.61  35 2.61  53 2.61
                             5 2.75  17 2.75   2 2.75  26 2.75
   9  0.000  0.667  0.667-  32 2.61  50 2.61  35 2.61  53 2.61  51 2.61  33 2.61  36 2.61  54 2.61
                             6 2.75  18 2.75   3 2.75  27 2.75
  10  0.333  0.000  0.000-  28 2.61  30 2.61  34 2.61  36 2.61  37 2.61  39 2.61  43 2.61  45 2.61
                            19 2.75   1 2.75  13 2.75  16 2.75
  11  0.333  0.000  0.333-  28 2.61  34 2.61  37 2.61  43 2.61  29 2.61  35 2.61  38 2.61  44 2.61
                            20 2.75   2 2.75  14 2.75  17 2.75
  12  0.333  0.000  0.667-  29 2.61  35 2.61  38 2.61  44 2.61  30 2.61  36 2.61  39 2.61  45 2.61
                            21 2.75   3 2.75  15 2.75  18 2.75
  13  0.333  0.333  0.000-  28 2.61  30 2.61  31 2.61  33 2.61  37 2.61  39 2.61  40 2.61  42 2.61
                             4 2.75  10 2.75  16 2.75  22 2.75
  14  0.333  0.333  0.333-  28 2.61  31 2.61  37 2.61  29 2.61  40 2.61  38 2.61  32 2.61  41 2.61
                             5 2.75  11 2.75  17 2.75  23 2.75
  15  0.333  0.333  0.667-  29 2.61  32 2.61  38 2.61  30 2.61  41 2.61  39 2.61  33 2.61  42 2.61
                             6 2.75  12 2.75  18 2.75  24 2.75
  16  0.333  0.667  0.000-  31 2.61  33 2.61  34 2.61  36 2.61  40 2.61  42 2.61  43 2.61  45 2.61
                            25 2.75   7 2.75  13 2.75  10 2.75
  17  0.333  0.667  0.333-  31 2.61  34 2.61  40 2.61  32 2.61  43 2.61  41 2.61  35 2.61  44 2.61
                            26 2.75   8 2.75  14 2.75  11 2.75
  18  0.333  0.667  0.667-  32 2.61  35 2.61  41 2.61  33 2.61  44 2.61  42 2.61  36 2.61  45 2.61
                            27 2.75   9 2.75  15 2.75  12 2.75
  19  0.667  0.000  0.000-  37 2.61  39 2.61  43 2.61  45 2.61  46 2.61  48 2.61  52 2.61  54 2.61
                            10 2.75  22 2.75   1 2.75  25 2.75
  20  0.667  0.000  0.333-  37 2.61  43 2.61  46 2.61  52 2.61  38 2.61  44 2.61  47 2.61  53 2.61
                            11 2.75  23 2.75   2 2.75  26 2.75
  21  0.667  0.000  0.667-  38 2.61  44 2.61  47 2.61  53 2.61  39 2.61  45 2.61  48 2.61  54 2.61
                            12 2.75  24 2.75   3 2.75  27 2.75
  22  0.667  0.333  0.000-  37 2.61  39 2.61  40 2.61  42 2.61  46 2.61  48 2.61  49 2.61  51 2.61
                            25 2.75  13 2.75  19 2.75   4 2.75
  23  0.667  0.333  0.333-  37 2.61  40 2.61  46 2.61  38 2.61  49 2.61  47 2.61  41 2.61  50 2.61
                            26 2.75  14 2.75  20 2.75   5 2.75
  24  0.667  0.333  0.667-  38 2.61  41 2.61  47 2.61  39 2.61  50 2.61  48 2.61  42 2.61  51 2.61
                            27 2.75  15 2.75  21 2.75   6 2.75
  25  0.667  0.667  0.000-  40 2.61  42 2.61  43 2.61  45 2.61  49 2.61  51 2.61  52 2.61  54 2.61
                            16 2.75  22 2.75  19 2.75   7 2.75
  26  0.667  0.667  0.333-  40 2.61  43 2.61  49 2.61  41 2.61  52 2.61  50 2.61  44 2.61  53 2.61
                            17 2.75  23 2.75  20 2.75   8 2.75
  27  0.667  0.667  0.667-  41 2.61  44 2.61  50 2.61  42 2.61  53 2.61  51 2.61  45 2.61  54 2.61
                            18 2.75  24 2.75  21 2.75   9 2.75
  28  0.167  0.167  0.167-  14 2.61  11 2.61   5 2.61  13 2.61   2 2.61  10 2.61   4 2.61   1 2.61
                            31 2.75  37 2.75  34 2.75  46 2.75
  29  0.167  0.167  0.500-  15 2.61  12 2.61   6 2.61  14 2.61   3 2.61  11 2.61   5 2.61   2 2.61
                            32 2.75  38 2.75  35 2.75  47 2.75
  30  0.167  0.167  0.833-  13 2.61  15 2.61  10 2.61  12 2.61   4 2.61   6 2.61   1 2.61   3 2.61
                            33 2.75  39 2.75  36 2.75  48 2.75
  31  0.167  0.500  0.167-  17 2.61  14 2.61   8 2.61  16 2.61   5 2.61  13 2.61   7 2.61   4 2.61
                            28 2.75  34 2.75  40 2.75  49 2.75
  32  0.167  0.500  0.500-  18 2.61  15 2.61   9 2.61  17 2.61   6 2.61  14 2.61   8 2.61   5 2.61
                            29 2.75  35 2.75  41 2.75  50 2.75
  33  0.167  0.500  0.833-  16 2.61  18 2.61  13 2.61  15 2.61   7 2.61   9 2.61   4 2.61   6 2.61
                            30 2.75  36 2.75  42 2.75  51 2.75
  34  0.167  0.833  0.167-  11 2.61  17 2.61   2 2.61   8 2.61  16 2.61  10 2.61   7 2.61   1 2.61
                            31 2.75  43 2.75  28 2.75  52 2.75
  35  0.167  0.833  0.500-  12 2.61  18 2.61   3 2.61   9 2.61  17 2.61  11 2.61   8 2.61   2 2.61
                            32 2.75  44 2.75  29 2.75  53 2.75
  36  0.167  0.833  0.833-  10 2.61  12 2.61  16 2.61  18 2.61   1 2.61   3 2.61   7 2.61   9 2.61
                            33 2.75  45 2.75  30 2.75  54 2.75
  37  0.500  0.167  0.167-  23 2.61  20 2.61  14 2.61  22 2.61  11 2.61  19 2.61  13 2.61  10 2.61
                            28 2.75  40 2.75  46 2.75  43 2.75
  38  0.500  0.167  0.500-  24 2.61  21 2.61  15 2.61  23 2.61  12 2.61  20 2.61  14 2.61  11 2.61
                            29 2.75  41 2.75  47 2.75  44 2.75
  39  0.500  0.167  0.833-  22 2.61  24 2.61  19 2.61  21 2.61  13 2.61  15 2.61  10 2.61  12 2.61
                            30 2.75  42 2.75  48 2.75  45 2.75
  40  0.500  0.500  0.167-  26 2.61  23 2.61  17 2.61  25 2.61  14 2.61  22 2.61  16 2.61  13 2.61
                            31 2.75  37 2.75  43 2.75  49 2.75
  41  0.500  0.500  0.500-  27 2.61  24 2.61  18 2.61  26 2.61  15 2.61  23 2.61  17 2.61  14 2.61
                            32 2.75  38 2.75  44 2.75  50 2.75
  42  0.500  0.500  0.833-  25 2.61  27 2.61  22 2.61  24 2.61  16 2.61  18 2.61  13 2.61  15 2.61
                            33 2.75  39 2.75  45 2.75  51 2.75
  43  0.500  0.833  0.167-  20 2.61  26 2.61  11 2.61  17 2.61  25 2.61  19 2.61  16 2.61  10 2.61
                            34 2.75  40 2.75  52 2.75  37 2.75
  44  0.500  0.833  0.500-  21 2.61  27 2.61  12 2.61  18 2.61  26 2.61  20 2.61  17 2.61  11 2.61
                            35 2.75  41 2.75  53 2.75  38 2.75
  45  0.500  0.833  0.833-  19 2.61  21 2.61  25 2.61  27 2.61  10 2.61  12 2.61  16 2.61  18 2.61
                            36 2.75  42 2.75  54 2.75  39 2.75
  46  0.833  0.167  0.167-   5 2.61  23 2.61  20 2.61   2 2.61  22 2.61   4 2.61  19 2.61   1 2.61
                            37 2.75  49 2.75  28 2.75  52 2.75
  47  0.833  0.167  0.500-   6 2.61  24 2.61  21 2.61   3 2.61  23 2.61   5 2.61  20 2.61   2 2.61
                            38 2.75  50 2.75  29 2.75  53 2.75
  48  0.833  0.167  0.833-   4 2.61   6 2.61  22 2.61  24 2.61  19 2.61  21 2.61   1 2.61   3 2.61
                            39 2.75  51 2.75  30 2.75  54 2.75
  49  0.833  0.500  0.167-   8 2.61  26 2.61  23 2.61   5 2.61  25 2.61   7 2.61  22 2.61   4 2.61
                            40 2.75  46 2.75  52 2.75  31 2.75
  50  0.833  0.500  0.500-   9 2.61  27 2.61  24 2.61   6 2.61  26 2.61   8 2.61  23 2.61   5 2.61
                            41 2.75  47 2.75  53 2.75  32 2.75
  51  0.833  0.500  0.833-   7 2.61   9 2.61  25 2.61  27 2.61  22 2.61  24 2.61   4 2.61   6 2.61
                            42 2.75  48 2.75  54 2.75  33 2.75
  52  0.833  0.833  0.167-   2 2.61   8 2.61  20 2.61  26 2.61  19 2.61   7 2.61  25 2.61   1 2.61
                            43 2.75  49 2.75  46 2.75  34 2.75
  53  0.833  0.833  0.500-   3 2.61   9 2.61  21 2.61  27 2.61  20 2.61   8 2.61  26 2.61   2 2.61
                            44 2.75  50 2.75  47 2.75  35 2.75
  54  0.833  0.833  0.833-   1 2.61   3 2.61   7 2.61   9 2.61  19 2.61  21 2.61  25 2.61  27 2.61
                            45 2.75  51 2.75  48 2.75  36 2.75
 
  LATTYP: Found a simple tetragonal cell.
 ALAT       =     8.2501481662
 C/A-ratio  =     1.2642089792
  
  Lattice vectors:
  
 A1 = (   8.2501481662,   0.0000000000,   0.0000000000)
 A2 = (   0.0000000000,   8.2501481662,   0.0000000000)
 A3 = (   0.0000000000,   0.0000000000,  10.4299113916)


Analysis of symmetry for initial positions (statically):
=====================================================================
 Subroutine PRICEL returns following result:
 
  LATTYP: Found a simple tetragonal cell.
 ALAT       =     2.7500493888
 C/A-ratio  =     1.2642089792
  
  Lattice vectors:
  
 A1 = (   2.7500493888,   0.0000000000,   0.0000000000)
 A2 = (   0.0000000000,   2.7500493888,   0.0000000000)
 A3 = (   0.0000000000,   0.0000000000,   3.4766371306)
 
  27 primitive cells build up your supercell.
 

 Routine SETGRP: Setting up the symmetry group for a 
 simple tetragonal supercell.


 Subroutine GETGRP returns: Found 16 space group operations
 (whereof 16 operations were pure point group operations)
 out of a pool of 16 trial point group operations.


The static configuration has the point symmetry D_4h.


Analysis of symmetry for dynamics (positions and initial velocities):
=====================================================================
 Subroutine PRICEL returns following result:
 
  LATTYP: Found a simple tetragonal cell.
 ALAT       =     2.7500493888
 C/A-ratio  =     1.2642089792
  
  Lattice vectors:
  
 A1 = (   2.7500493888,   0.0000000000,   0.0000000000)
 A2 = (   0.0000000000,   2.7500493888,   0.0000000000)
 A3 = (   0.0000000000,   0.0000000000,   3.4766371306)
 
  27 primitive cells build up your supercell.
 

 Routine SETGRP: Setting up the symmetry group for a 
 simple tetragonal supercell.


 Subroutine GETGRP returns: Found 16 space group operations
 (whereof 16 operations were pure point group operations)
 out of a pool of 16 trial point group operations.


The dynamic configuration has the point symmetry D_4h.


Analysis of structural, dynamic, and magnetic symmetry:
=====================================================================
 Subroutine PRICEL returns:
 Original cell was already a primitive cell.
 

 Routine SETGRP: Setting up the symmetry group for a 
 simple tetragonal supercell.


 Subroutine GETGRP returns: Found  2 space group operations
 (whereof  1 operations were pure point group operations)
 out of a pool of 16 trial point group operations.


The magnetic configuration has the point symmetry C_1 .
 The point group associated with its full space group is C_1h.


 Subroutine INISYM returns: Found  2 space group operations
 (whereof  1 operations are pure point group operations),
 and found     1 'primitive' translations

 
 
 KPOINTS: automatic KPOINTS                       

Automatic generation of k-mesh.
 generate k-points for:    5    5    4
Space group operators:
 irot       det(A)        alpha          n_x          n_y          n_z        tau_x        tau_y        tau_z
    1     1.000000     0.000001     1.000000     0.000000     0.000000     0.000000     0.000000     0.000000
    2    -1.000000   180.000000     1.000000     0.000000     0.000000     0.333333     0.000000     0.000000
 
 Subroutine IBZKPT returns following result:
 ===========================================
 
 Found     33 irreducible k-points:
 
 Following reciprocal coordinates:
            Coordinates               Weight
  0.000000  0.000000  0.000000      1.000000
  0.200000  0.000000  0.000000      2.000000
  0.400000  0.000000  0.000000      2.000000
  0.000000  0.200000  0.000000      2.000000
  0.200000  0.200000  0.000000      4.000000
  0.400000  0.200000  0.000000      4.000000
  0.000000  0.400000  0.000000      2.000000
  0.200000  0.400000  0.000000      4.000000
  0.400000  0.400000  0.000000      4.000000
  0.000000  0.000000  0.250000      2.000000
  0.200000  0.000000  0.250000      4.000000
  0.400000  0.000000  0.250000      4.000000
  0.000000  0.200000  0.250000      2.000000
  0.200000  0.200000  0.250000      4.000000
  0.400000  0.200000  0.250000      4.000000
  0.000000  0.400000  0.250000      2.000000
  0.200000  0.400000  0.250000      4.000000
  0.400000  0.400000  0.250000      4.000000
  0.000000 -0.400000  0.250000      2.000000
  0.200000 -0.400000  0.250000      4.000000
  0.400000 -0.400000  0.250000      4.000000
  0.000000 -0.200000  0.250000      2.000000
  0.200000 -0.200000  0.250000      4.000000
  0.400000 -0.200000  0.250000      4.000000
  0.000000  0.000000  0.500000      1.000000
  0.200000  0.000000  0.500000      2.000000
  0.400000  0.000000  0.500000      2.000000
  0.000000  0.200000  0.500000      2.000000
  0.200000  0.200000  0.500000      4.000000
  0.400000  0.200000  0.500000      4.000000
  0.000000  0.400000  0.500000      2.000000
  0.200000  0.400000  0.500000      4.000000
  0.400000  0.400000  0.500000      4.000000
 
 Following cartesian coordinates:
            Coordinates               Weight
  0.000000  0.000000  0.000000      1.000000
  0.024242  0.000000  0.000000      2.000000
  0.048484  0.000000  0.000000      2.000000
  0.000000  0.024242  0.000000      2.000000
  0.024242  0.024242  0.000000      4.000000
  0.048484  0.024242  0.000000      4.000000
  0.000000  0.048484  0.000000      2.000000
  0.024242  0.048484  0.000000      4.000000
  0.048484  0.048484  0.000000      4.000000
  0.000000  0.000000  0.023970      2.000000
  0.024242  0.000000  0.023970      4.000000
  0.048484  0.000000  0.023970      4.000000
  0.000000  0.024242  0.023970      2.000000
  0.024242  0.024242  0.023970      4.000000
  0.048484  0.024242  0.023970      4.000000
  0.000000  0.048484  0.023970      2.000000
  0.024242  0.048484  0.023970      4.000000
  0.048484  0.048484  0.023970      4.000000
  0.000000 -0.048484  0.023970      2.000000
  0.024242 -0.048484  0.023970      4.000000
  0.048484 -0.048484  0.023970      4.000000
  0.000000 -0.024242  0.023970      2.000000
  0.024242 -0.024242  0.023970      4.000000
  0.048484 -0.024242  0.023970      4.000000
  0.000000  0.000000  0.047939      1.000000
  0.024242  0.000000  0.047939      2.000000
  0.048484  0.000000  0.047939      2.000000
  0.000000  0.024242  0.047939      2.000000
  0.024242  0.024242  0.047939      4.000000
  0.048484  0.024242  0.047939      4.000000
  0.000000  0.048484  0.047939      2.000000
  0.024242  0.048484  0.047939      4.000000
  0.048484  0.048484  0.047939      4.000000
 


--------------------------------------------------------------------------------------------------------




 Dimension of arrays:
   k-points           NKPTS =     33   k-points in BZ     NKDIM =     33   number of bands    NBANDS=    174
   number of dos      NEDOS =    301   number of ions     NIONS =     54
   non local maximal  LDIM  =      6   non local SUM 2l+1 LMDIM =     18
   total plane-waves  NPLWV = 204120
   max r-space proj   IRMAX =      1   max aug-charges    IRDMAX=  89713
   dimension x,y,z NGX =    54 NGY =   54 NGZ =   70
   dimension x,y,z NGXF=   108 NGYF=  108 NGZF=  140
   support grid    NGXF=   216 NGYF=  216 NGZF=  280
   ions per type =              27  27
   NGX,Y,Z   is equivalent  to a cutoff of  10.88, 10.88, 11.16 a.u.
   NGXF,Y,Z  is equivalent  to a cutoff of  21.76, 21.76, 22.32 a.u.

 SYSTEM =  AlMn_pv                                 
 POSCAR =  NewRef: 27, @ ['Mn', array([1.37502469, 

 Startparameter for this run:
   NWRITE =      2    write-flag & timer
   PREC   = accura    normal or accurate (medium, high low for compatibility)
   ISTART =      0    job   : 0-new  1-cont  2-samecut
   ICHARG =      2    charge: 1-file 2-atom 10-const
   ISPIN  =      2    spin polarized calculation?
   LNONCOLLINEAR =      F non collinear calculations
   LSORBIT =      F    spin-orbit coupling
   INIWAV =      1    electr: 0-lowe 1-rand  2-diag
   LASPH  =      F    aspherical Exc in radial PAW
   METAGGA=      F    non-selfconsistent MetaGGA calc.

 Electronic Relaxation 1
   ENCUT  =  404.8 eV  29.75 Ry    5.45 a.u.  13.53 13.53 17.11*2*pi/ulx,y,z
   ENINI  =  404.8     initial cutoff
   ENAUG  =  500.7 eV  augmentation charge cutoff
   NELM   =    100;   NELMIN=  4; NELMDL= -8     # of ELM steps 
   EDIFF  = 0.1E-06   stopping-criterion for ELM
   LREAL  =      F    real-space projection
   NLSPLINE    = F    spline interpolate recip. space projectors
   LCOMPAT=      F    compatible to vasp.4.4
   GGA_COMPAT  = T    GGA compatible to vasp.4.4-vasp.4.6
   LMAXPAW     = -100 max onsite density
   LMAXMIX     =    2 max onsite mixed and CHGCAR
   VOSKOWN=      0    Vosko Wilk Nusair interpolation
   ROPT   =    0.00000   0.00000
 Ionic relaxation
   EDIFFG = 0.1E-05   stopping-criterion for IOM
   NSW    =      0    number of steps for IOM
   NBLOCK =      1;   KBLOCK =      1    inner block; outer block 
   IBRION =     -1    ionic relax: 0-MD 1-quasi-New 2-CG
   NFREE  =      0    steps in history (QN), initial steepest desc. (CG)
   ISIF   =      2    stress and relaxation
   IWAVPR =     10    prediction:  0-non 1-charg 2-wave 3-comb
   ISYM   =      2    0-nonsym 1-usesym 2-fastsym
   LCORR  =      T    Harris-Foulkes like correction to forces

   POTIM  = 0.2000    time-step for ionic-motion
   TEIN   =    0.0    initial temperature
   TEBEG  =    0.0;   TEEND  =   0.0 temperature during run
   SMASS  =  -3.00    Nose mass-parameter (am)
   estimated Nose-frequenzy (Omega)   =  0.10E-29 period in steps =****** mass=  -0.156E-26a.u.
   SCALEE = 1.0000    scale energy and forces
   NPACO  =    256;   APACO  = 16.0  distance and # of slots for P.C.
   PSTRESS=    0.0 pullay stress

  Mass of Ions in am
   POMASS =  26.98 54.94
  Ionic Valenz
   ZVAL   =   3.00  7.00
  Atomic Wigner-Seitz radii
   RWIGS  =  -1.00 -1.00
  virtual crystal weights 
   VCA    =   1.00  1.00
   NELECT =     270.0000    total number of electrons
   NUPDOWN=      -1.0000    fix difference up-down

 DOS related values:
   EMIN   =  10.00;   EMAX   =-10.00  energy-range for DOS
   EFERMI =   0.00
   ISMEAR =     1;   SIGMA  =   0.20  broadening in eV -4-tet -1-fermi 0-gaus

 Electronic relaxation 2 (details)
   IALGO  =     58    algorithm
   LDIAG  =      T    sub-space diagonalisation (order eigenvalues)
   LSUBROT=      F    optimize rotation matrix (better conditioning)
   TURBO    =      0    0=normal 1=particle mesh
   IRESTART =      0    0=no restart 2=restart with 2 vectors
   NREBOOT  =      0    no. of reboots
   NMIN     =      0    reboot dimension
   EREF     =   0.00    reference energy to select bands
   IMIX   =      4    mixing-type and parameters
     AMIX     =   0.40;   BMIX     =  1.00
     AMIX_MAG =   1.60;   BMIX_MAG =  1.00
     AMIN     =   0.10
     WC   =   100.;   INIMIX=   1;  MIXPRE=   1;  MAXMIX= -45

 Intra band minimization:
   WEIMIN = 0.0000     energy-eigenvalue tresh-hold
   EBREAK =  0.14E-09  absolut break condition
   DEPER  =   0.30     relativ break condition  

   TIME   =   0.40     timestep for ELM

  volume/ion in A,a.u.               =      13.15        88.72
  Fermi-wavevector in a.u.,A,eV,Ry     =   1.186118  2.241439 19.141722  1.406877
  Thomas-Fermi vector in A             =   2.322298
 
 Write flags
   LWAVE        =      F    write WAVECAR
   LDOWNSAMPLE  =      F    k-point downsampling of WAVECAR
   LCHARG       =      F    write CHGCAR
   LVTOT        =      F    write LOCPOT, total local potential
   LVHAR        =      F    write LOCPOT, Hartree potential only
   LELF         =      F    write electronic localiz. function (ELF)
   LORBIT       =     10    0 simple, 1 ext, 2 COOP (PROOUT), +10 PAW based schemes


 Dipole corrections
   LMONO  =      F    monopole corrections only (constant potential shift)
   LDIPOL =      F    correct potential (dipole corrections)
   IDIPOL =      0    1-x, 2-y, 3-z, 4-all directions 
   EPSILON=  1.0000000 bulk dielectric constant

 Exchange correlation treatment:
   GGA     =    --    GGA type
   LEXCH   =     8    internal setting for exchange type
   VOSKOWN=      0    Vosko Wilk Nusair interpolation
   LHFCALC =     F    Hartree Fock is set to
   LHFONE  =     F    Hartree Fock one center treatment
   AEXX    =    0.0000 exact exchange contribution

 Linear response parameters
   LEPSILON=     F    determine dielectric tensor
   LRPA    =     F    only Hartree local field effects (RPA)
   LNABLA  =     F    use nabla operator in PAW spheres
   LVEL    =     F    velocity operator in full k-point grid
   LINTERFAST=   F  fast interpolation
   KINTER  =     0    interpolate to denser k-point grid
   CSHIFT  =0.1000    complex shift for real part using Kramers Kronig
   OMEGAMAX=  -1.0    maximum frequency
   DEG_THRESHOLD= 0.2000000E-02 threshold for treating states as degnerate
   RTIME   =   -0.100 relaxation time in fs
  (WPLASMAI=    0.000 imaginary part of plasma frequency in eV, 0.658/RTIME)
   DFIELD  = 0.0000000 0.0000000 0.0000000 field for delta impulse in time
 
 Orbital magnetization related:
   ORBITALMAG=     F  switch on orbital magnetization
   LCHIMAG   =     F  perturbation theory with respect to B field
   DQ        =  0.001000  dq finite difference perturbation B field
   LLRAUG    =     F  two centre corrections for induced B field



--------------------------------------------------------------------------------------------------------


 Static calculation
 charge density and potential will be updated during run
 spin polarized calculation
 Conjugate gradient for all bands (Freysoldt, et al. PRB 79, 241103 (2009))
 preconditioned conjugated gradient                                        
 perform sub-space diagonalisation
    before iterative eigenvector-optimisation
 modified Broyden-mixing scheme, WC =      100.0
 initial mixing is a Kerker type mixing with AMIX =  0.4000 and BMIX =      1.0000
 Hartree-type preconditioning will be used
 using additional bands           39
 reciprocal scheme for non local part
 use partial core corrections
 no Harris-corrections to forces 
 use gradient corrections 
 use of overlap-Matrix (Vanderbilt PP)
 Methfessel and Paxton  Order N= 1 SIGMA  =   0.20


--------------------------------------------------------------------------------------------------------


  energy-cutoff  :      404.80
  volume of cell :      709.91
      direct lattice vectors                 reciprocal lattice vectors
     8.250148166  0.000000000  0.000000000     0.121209944  0.000000000  0.000000000
     0.000000000  8.250148166  0.000000000     0.000000000  0.121209944  0.000000000
     0.000000000  0.000000000 10.429911392     0.000000000  0.000000000  0.095878092

  length of vectors
     8.250148166  8.250148166 10.429911392     0.121209944  0.121209944  0.095878092


 
 k-points in units of 2pi/SCALE and weight: automatic KPOINTS                       
   0.00000000  0.00000000  0.00000000       0.010
   0.02424199  0.00000000  0.00000000       0.020
   0.04848398  0.00000000  0.00000000       0.020
   0.00000000  0.02424199  0.00000000       0.020
   0.02424199  0.02424199  0.00000000       0.040
   0.04848398  0.02424199  0.00000000       0.040
   0.00000000  0.04848398  0.00000000       0.020
   0.02424199  0.04848398  0.00000000       0.040
   0.04848398  0.04848398  0.00000000       0.040
   0.00000000  0.00000000  0.02396952       0.020
   0.02424199  0.00000000  0.02396952       0.040
   0.04848398  0.00000000  0.02396952       0.040
   0.00000000  0.02424199  0.02396952       0.020
   0.02424199  0.02424199  0.02396952       0.040
   0.04848398  0.02424199  0.02396952       0.040
   0.00000000  0.04848398  0.02396952       0.020
   0.02424199  0.04848398  0.02396952       0.040
   0.04848398  0.04848398  0.02396952       0.040
   0.00000000 -0.04848398  0.02396952       0.020
   0.02424199 -0.04848398  0.02396952       0.040
   0.04848398 -0.04848398  0.02396952       0.040
   0.00000000 -0.02424199  0.02396952       0.020
   0.02424199 -0.02424199  0.02396952       0.040
   0.04848398 -0.02424199  0.02396952       0.040
   0.00000000  0.00000000  0.04793905       0.010
   0.02424199  0.00000000  0.04793905       0.020
   0.04848398  0.00000000  0.04793905       0.020
   0.00000000  0.02424199  0.04793905       0.020
   0.02424199  0.02424199  0.04793905       0.040
   0.04848398  0.02424199  0.04793905       0.040
   0.00000000  0.04848398  0.04793905       0.020
   0.02424199  0.04848398  0.04793905       0.040
   0.04848398  0.04848398  0.04793905       0.040
 
 k-points in reciprocal lattice and weights: automatic KPOINTS                       
   0.00000000  0.00000000  0.00000000       0.010
   0.20000000  0.00000000  0.00000000       0.020
   0.40000000  0.00000000  0.00000000       0.020
   0.00000000  0.20000000  0.00000000       0.020
   0.20000000  0.20000000  0.00000000       0.040
   0.40000000  0.20000000  0.00000000       0.040
   0.00000000  0.40000000  0.00000000       0.020
   0.20000000  0.40000000  0.00000000       0.040
   0.40000000  0.40000000  0.00000000       0.040
   0.00000000  0.00000000  0.25000000       0.020
   0.20000000  0.00000000  0.25000000       0.040
   0.40000000  0.00000000  0.25000000       0.040
   0.00000000  0.20000000  0.25000000       0.020
   0.20000000  0.20000000  0.25000000       0.040
   0.40000000  0.20000000  0.25000000       0.040
   0.00000000  0.40000000  0.25000000       0.020
   0.20000000  0.40000000  0.25000000       0.040
   0.40000000  0.40000000  0.25000000       0.040
   0.00000000 -0.40000000  0.25000000       0.020
   0.20000000 -0.40000000  0.25000000       0.040
   0.40000000 -0.40000000  0.25000000       0.040
   0.00000000 -0.20000000  0.25000000       0.020
   0.20000000 -0.20000000  0.25000000       0.040
   0.40000000 -0.20000000  0.25000000       0.040
   0.00000000  0.00000000  0.50000000       0.010
   0.20000000  0.00000000  0.50000000       0.020
   0.40000000  0.00000000  0.50000000       0.020
   0.00000000  0.20000000  0.50000000       0.020
   0.20000000  0.20000000  0.50000000       0.040
   0.40000000  0.20000000  0.50000000       0.040
   0.00000000  0.40000000  0.50000000       0.020
   0.20000000  0.40000000  0.50000000       0.040
   0.40000000  0.40000000  0.50000000       0.040
 
 position of ions in fractional coordinates (direct lattice) 
   0.00000000  0.00000000  0.00000000
   0.00000000  0.00000000  0.33333333
   0.00000000  0.00000000  0.66666667
   0.00000000  0.33333333  0.00000000
   0.00000000  0.33333333  0.33333333
   0.00000000  0.33333333  0.66666667
   0.00000000  0.66666667  0.00000000
   0.00000000  0.66666667  0.33333333
   0.00000000  0.66666667  0.66666667
   0.33333333  0.00000000  0.00000000
   0.33333333  0.00000000  0.33333333
   0.33333333  0.00000000  0.66666667
   0.33333333  0.33333333  0.00000000
   0.33333333  0.33333333  0.33333333
   0.33333333  0.33333333  0.66666667
   0.33333333  0.66666667  0.00000000
   0.33333333  0.66666667  0.33333333
   0.33333333  0.66666667  0.66666667
   0.66666667  0.00000000  0.00000000
   0.66666667  0.00000000  0.33333333
   0.66666667  0.00000000  0.66666667
   0.66666667  0.33333333  0.00000000
   0.66666667  0.33333333  0.33333333
   0.66666667  0.33333333  0.66666667
   0.66666667  0.66666667  0.00000000
   0.66666667  0.66666667  0.33333333
   0.66666667  0.66666667  0.66666667
   0.16666667  0.16666667  0.16666667
   0.16666667  0.16666667  0.50000000
   0.16666667  0.16666667  0.83333333
   0.16666667  0.50000000  0.16666667
   0.16666667  0.50000000  0.50000000
   0.16666667  0.50000000  0.83333333
   0.16666667  0.83333333  0.16666667
   0.16666667  0.83333333  0.50000000
   0.16666667  0.83333333  0.83333333
   0.50000000  0.16666667  0.16666667
   0.50000000  0.16666667  0.50000000
   0.50000000  0.16666667  0.83333333
   0.50000000  0.50000000  0.16666667
   0.50000000  0.50000000  0.50000000
   0.50000000  0.50000000  0.83333333
   0.50000000  0.83333333  0.16666667
   0.50000000  0.83333333  0.50000000
   0.50000000  0.83333333  0.83333333
   0.83333333  0.16666667  0.16666667
   0.83333333  0.16666667  0.50000000
   0.83333333  0.16666667  0.83333333
   0.83333333  0.50000000  0.16666667
   0.83333333  0.50000000  0.50000000
   0.83333333  0.50000000  0.83333333
   0.83333333  0.83333333  0.16666667
   0.83333333  0.83333333  0.50000000
   0.83333333  0.83333333  0.83333333
 
 position of ions in cartesian coordinates  (Angst):
   0.00000000  0.00000000  0.00000000
   0.00000000  0.00000000  3.47663713
   0.00000000  0.00000000  6.95327426
   0.00000000  2.75004939  0.00000000
   0.00000000  2.75004939  3.47663713
   0.00000000  2.75004939  6.95327426
   0.00000000  5.50009878  0.00000000
   0.00000000  5.50009878  3.47663713
   0.00000000  5.50009878  6.95327426
   2.75004939  0.00000000  0.00000000
   2.75004939  0.00000000  3.47663713
   2.75004939  0.00000000  6.95327426
   2.75004939  2.75004939  0.00000000
   2.75004939  2.75004939  3.47663713
   2.75004939  2.75004939  6.95327426
   2.75004939  5.50009878  0.00000000
   2.75004939  5.50009878  3.47663713
   2.75004939  5.50009878  6.95327426
   5.50009878  0.00000000  0.00000000
   5.50009878  0.00000000  3.47663713
   5.50009878  0.00000000  6.95327426
   5.50009878  2.75004939  0.00000000
   5.50009878  2.75004939  3.47663713
   5.50009878  2.75004939  6.95327426
   5.50009878  5.50009878  0.00000000
   5.50009878  5.50009878  3.47663713
   5.50009878  5.50009878  6.95327426
   1.37502469  1.37502469  1.73831857
   1.37502469  1.37502469  5.21495570
   1.37502469  1.37502469  8.69159283
   1.37502469  4.12507408  1.73831857
   1.37502469  4.12507408  5.21495570
   1.37502469  4.12507408  8.69159283
   1.37502469  6.87512347  1.73831857
   1.37502469  6.87512347  5.21495570
   1.37502469  6.87512347  8.69159283
   4.12507408  1.37502469  1.73831857
   4.12507408  1.37502469  5.21495570
   4.12507408  1.37502469  8.69159283
   4.12507408  4.12507408  1.73831857
   4.12507408  4.12507408  5.21495570
   4.12507408  4.12507408  8.69159283
   4.12507408  6.87512347  1.73831857
   4.12507408  6.87512347  5.21495570
   4.12507408  6.87512347  8.69159283
   6.87512347  1.37502469  1.73831857
   6.87512347  1.37502469  5.21495570
   6.87512347  1.37502469  8.69159283
   6.87512347  4.12507408  1.73831857
   6.87512347  4.12507408  5.21495570
   6.87512347  4.12507408  8.69159283
   6.87512347  6.87512347  1.73831857
   6.87512347  6.87512347  5.21495570
   6.87512347  6.87512347  8.69159283
 


--------------------------------------------------------------------------------------------------------


 k-point  1 :   0.0000 0.0000 0.0000  plane waves:   13099
 k-point  2 :   0.2000 0.0000 0.0000  plane waves:   13101
 k-point  3 :   0.4000 0.0000 0.0000  plane waves:   13111
 k-point  4 :   0.0000 0.2000 0.0000  plane waves:   13101
 k-point  5 :   0.2000 0.2000 0.0000  plane waves:   13137
 k-point  6 :   0.4000 0.2000 0.0000  plane waves:   13119
 k-point  7 :   0.0000 0.4000 0.0000  plane waves:   13111
 k-point  8 :   0.2000 0.4000 0.0000  plane waves:   13119
 k-point  9 :   0.4000 0.4000 0.0000  plane waves:   13129
 k-point 10 :   0.0000 0.0000 0.2500  plane waves:   13134
 k-point 11 :   0.2000 0.0000 0.2500  plane waves:   13149
 k-point 12 :   0.4000 0.0000 0.2500  plane waves:   13119
 k-point 13 :   0.0000 0.2000 0.2500  plane waves:   13149
 k-point 14 :   0.2000 0.2000 0.2500  plane waves:   13145
 k-point 15 :   0.4000 0.2000 0.2500  plane waves:   13134
 k-point 16 :   0.0000 0.4000 0.2500  plane waves:   13119
 k-point 17 :   0.2000 0.4000 0.2500  plane waves:   13134
 k-point 18 :   0.4000 0.4000 0.2500  plane waves:   13108
 k-point 19 :   0.0000-0.4000 0.2500  plane waves:   13119
 k-point 20 :   0.2000-0.4000 0.2500  plane waves:   13134
 k-point 21 :   0.4000-0.4000 0.2500  plane waves:   13108
 k-point 22 :   0.0000-0.2000 0.2500  plane waves:   13149
 k-point 23 :   0.2000-0.2000 0.2500  plane waves:   13145
 k-point 24 :   0.4000-0.2000 0.2500  plane waves:   13134
 k-point 25 :   0.0000 0.0000 0.5000  plane waves:   13186
 k-point 26 :   0.2000 0.0000 0.5000  plane waves:   13124
 k-point 27 :   0.4000 0.0000 0.5000  plane waves:   13152
 k-point 28 :   0.0000 0.2000 0.5000  plane waves:   13124
 k-point 29 :   0.2000 0.2000 0.5000  plane waves:   13136
 k-point 30 :   0.4000 0.2000 0.5000  plane waves:   13128
 k-point 31 :   0.0000 0.4000 0.5000  plane waves:   13152
 k-point 32 :   0.2000 0.4000 0.5000  plane waves:   13128
 k-point 33 :   0.4000 0.4000 0.5000  plane waves:   13112

 maximum and minimum number of plane-waves per node :      3313     3254

 maximum number of plane-waves:     13186
 maximum index in each direction: 
   IXMAX=   13   IYMAX=   13   IZMAX=   17
   IXMIN=  -13   IYMIN=  -13   IZMIN=  -17


 parallel 3D FFT for wavefunctions:
    minimum data exchange during FFTs selected (reduces bandwidth)
 parallel 3D FFT for charge:
    minimum data exchange during FFTs selected (reduces bandwidth)


 total amount of memory used by VASP MPI-rank0  1077308. kBytes
=======================================================================

   base      :      30000. kBytes
   nonl-proj :      34214. kBytes
   fftplans  :      31580. kBytes
   grid      :      21385. kBytes
   one-center:        435. kBytes
   wavefun   :     959694. kBytes
 
     INWAV:  cpu time    0.0001: real time    0.0001
 Broyden mixing: mesh for mixing (old mesh)
   NGX = 27   NGY = 27   NGZ = 35
  (NGX  =108   NGY  =108   NGZ  =140)
  gives a total of  25515 points

 initial charge density was supplied:
 charge density of overlapping atoms calculated
 number of electron     270.0000000 magnetization      21.0000000
 keeping initial charge density in first step


--------------------------------------------------------------------------------------------------------


 Maximum index for augmentation-charges        10967 (set IRDMAX)


--------------------------------------------------------------------------------------------------------


 First call to EWALD:  gamma=   0.199
 Maximum number of real-space cells 3x 3x 2
 Maximum number of reciprocal cells 3x 3x 3

    FEWALD:  cpu time    0.0025: real time    0.0025


--------------------------------------- Iteration      1(   1)  ---------------------------------------


    POTLOK:  cpu time    0.3965: real time    0.3971
    SETDIJ:  cpu time    0.4611: real time    0.4617
    TRIAL :  cpu time   39.3219: real time   39.6501
    CORREC:  cpu time    0.0063: real time    0.0072
    --------------------------------------------
      LOOP:  cpu time   40.5112: real time   40.8487

 eigenvalue-minimisations  : 22968
 total energy-change (2. order) : 0.2035780E+04  (-0.8882060E+04)
 number of electron     270.0000000 magnetization      21.0000000
 augmentation part      270.0000000 magnetization      21.0000000

 Free energy of the ion-electron system (eV)
  ---------------------------------------------------
  alpha Z        PSCENC =       798.38614055
  Ewald energy   TEWEN  =    -12901.57693327
  -Hartree energ DENC   =     -2855.60785864
  -exchange      EXHF   =         0.00000000
  -V(xc)+E(xc)   XCENC  =      -996.20757407
  PAW double counting   =     12741.82587617   -11476.22345381
  entropy T*S    EENTRO =        -0.00302934
  eigenvalues    EBANDS =      4027.51275141
  atomic energy  EATOM  =     12697.67401269
  ---------------------------------------------------
  free energy    TOTEN  =      2035.77993168 eV

  energy without entropy =     2035.78296102  energy(sigma->0) =     2035.78094146


--------------------------------------------------------------------------------------------------------




--------------------------------------- Iteration      1(   2)  ---------------------------------------


    TRIAL :  cpu time   39.5554: real time   39.8875
    CORREC:  cpu time    0.0275: real time    0.0276
    --------------------------------------------
      LOOP:  cpu time   39.5839: real time   39.9183

 eigenvalue-minimisations  : 22968
 total energy-change (2. order) :-0.2131227E+04  (-0.2073148E+04)
 number of electron     270.0000000 magnetization      21.0000000
 augmentation part      270.0000000 magnetization      21.0000000

 Free energy of the ion-electron system (eV)
  ---------------------------------------------------
  alpha Z        PSCENC =       798.38614055
  Ewald energy   TEWEN  =    -12901.57693327
  -Hartree energ DENC   =     -2855.60785864
  -exchange      EXHF   =         0.00000000
  -V(xc)+E(xc)   XCENC  =      -996.20757407
  PAW double counting   =     12741.82587617   -11476.22345381
  entropy T*S    EENTRO =        -0.00233596
  eigenvalues    EBANDS =      1896.28497313
  atomic energy  EATOM  =     12697.67401269
  ---------------------------------------------------
  free energy    TOTEN  =       -95.44715322 eV

  energy without entropy =      -95.44481726  energy(sigma->0) =      -95.44637457


--------------------------------------------------------------------------------------------------------




--------------------------------------- Iteration      1(   3)  ---------------------------------------


    TRIAL :  cpu time   54.4361: real time   54.7991
    CORREC:  cpu time    0.0098: real time    0.0104
    --------------------------------------------
      LOOP:  cpu time   54.4471: real time   54.8129

 eigenvalue-minimisations  : 34456
 total energy-change (2. order) :-0.2609054E+03  (-0.2300327E+03)
 number of electron     270.0000000 magnetization      21.0000000
 augmentation part      270.0000000 magnetization      21.0000000

 Free energy of the ion-electron system (eV)
  ---------------------------------------------------
  alpha Z        PSCENC =       798.38614055
  Ewald energy   TEWEN  =    -12901.57693327
  -Hartree energ DENC   =     -2855.60785864
  -exchange      EXHF   =         0.00000000
  -V(xc)+E(xc)   XCENC  =      -996.20757407
  PAW double counting   =     12741.82587617   -11476.22345381
  entropy T*S    EENTRO =         0.01205938
  eigenvalues    EBANDS =      1635.36513965
  atomic energy  EATOM  =     12697.67401269
  ---------------------------------------------------
  free energy    TOTEN  =      -356.35259136 eV

  energy without entropy =     -356.36465074  energy(sigma->0) =     -356.35661115


--------------------------------------------------------------------------------------------------------




--------------------------------------- Iteration      1(   4)  ---------------------------------------


    TRIAL :  cpu time   58.0794: real time   58.4664
    CORREC:  cpu time    0.0103: real time    0.0111
    --------------------------------------------
      LOOP:  cpu time   58.0928: real time   58.4807

 eigenvalue-minimisations  : 37320
 total energy-change (2. order) :-0.4282866E+02  (-0.3743119E+02)
 number of electron     270.0000000 magnetization      21.0000000
 augmentation part      270.0000000 magnetization      21.0000000

 Free energy of the ion-electron system (eV)
  ---------------------------------------------------
  alpha Z        PSCENC =       798.38614055
  Ewald energy   TEWEN  =    -12901.57693327
  -Hartree energ DENC   =     -2855.60785864
  -exchange      EXHF   =         0.00000000
  -V(xc)+E(xc)   XCENC  =      -996.20757407
  PAW double counting   =     12741.82587617   -11476.22345381
  entropy T*S    EENTRO =         0.02454371
  eigenvalues    EBANDS =      1592.52399616
  atomic energy  EATOM  =     12697.67401269
  ---------------------------------------------------
  free energy    TOTEN  =      -399.18125053 eV

  energy without entropy =     -399.20579424  energy(sigma->0) =     -399.18943176


--------------------------------------------------------------------------------------------------------




--------------------------------------- Iteration      1(   5)  ---------------------------------------


    TRIAL :  cpu time   58.9632: real time   59.4171
    CORREC:  cpu time    0.0106: real time    0.0114
    --------------------------------------------
      LOOP:  cpu time   59.4479: real time   59.9608

 eigenvalue-minimisations  : 37904
 total energy-change (2. order) :-0.4436944E+01  (-0.4229329E+01)
 number of electron     270.0000000 magnetization      21.0000000
 augmentation part      270.0000000 magnetization      21.0000000

 Free energy of the ion-electron system (eV)
  ---------------------------------------------------
  alpha Z        PSCENC =       798.38614055
  Ewald energy   TEWEN  =    -12901.57693327
  -Hartree energ DENC   =     -2855.60785864
  -exchange      EXHF   =         0.00000000
  -V(xc)+E(xc)   XCENC  =      -996.20757407
  PAW double counting   =     12741.82587617   -11476.22345381
  entropy T*S    EENTRO =         0.02814631
  eigenvalues    EBANDS =      1588.08344911
  atomic energy  EATOM  =     12697.67401269
  ---------------------------------------------------
  free energy    TOTEN  =      -403.61819497 eV

  energy without entropy =     -403.64634129  energy(sigma->0) =     -403.62757708


--------------------------------------------------------------------------------------------------------




--------------------------------------- Iteration      1(   6)  ---------------------------------------


    TRIAL :  cpu time   58.8235: real time   59.2642
    CORREC:  cpu time    0.0122: real time    0.0131
    --------------------------------------------
      LOOP:  cpu time   59.0455: real time   59.4944

 eigenvalue-minimisations  : 37816
 total energy-change (2. order) :-0.3699931E+00  (-0.3623782E+00)
 number of electron     270.0000000 magnetization      21.0000000
 augmentation part      270.0000000 magnetization      21.0000000

 Free energy of the ion-electron system (eV)
  ---------------------------------------------------
  alpha Z        PSCENC =       798.38614055
  Ewald energy   TEWEN  =    -12901.57693327
  -Hartree energ DENC   =     -2855.60785864
  -exchange      EXHF   =         0.00000000
  -V(xc)+E(xc)   XCENC  =      -996.20757407
  PAW double counting   =     12741.82587617   -11476.22345381
  entropy T*S    EENTRO =         0.02912111
  eigenvalues    EBANDS =      1587.71248121
  atomic energy  EATOM  =     12697.67401269
  ---------------------------------------------------
  free energy    TOTEN  =      -403.98818808 eV

  energy without entropy =     -404.01730919  energy(sigma->0) =     -403.99789511


--------------------------------------------------------------------------------------------------------




--------------------------------------- Iteration      1(   7)  ---------------------------------------


    TRIAL :  cpu time   59.8069: real time   60.2374
    CORREC:  cpu time    0.0407: real time    0.0415
    --------------------------------------------
      LOOP:  cpu time   59.8484: real time   60.2891

 eigenvalue-minimisations  : 38464
 total energy-change (2. order) :-0.4034146E-01  (-0.3996653E-01)
 number of electron     270.0000000 magnetization      21.0000000
 augmentation part      270.0000000 magnetization      21.0000000

 Free energy of the ion-electron system (eV)
  ---------------------------------------------------
  alpha Z        PSCENC =       798.38614055
  Ewald energy   TEWEN  =    -12901.57693327
  -Hartree energ DENC   =     -2855.60785864
  -exchange      EXHF   =         0.00000000
  -V(xc)+E(xc)   XCENC  =      -996.20757407
  PAW double counting   =     12741.82587617   -11476.22345381
  entropy T*S    EENTRO =         0.02935900
  eigenvalues    EBANDS =      1587.67190186
  atomic energy  EATOM  =     12697.67401269
  ---------------------------------------------------
  free energy    TOTEN  =      -404.02852954 eV

  energy without entropy =     -404.05788854  energy(sigma->0) =     -404.03831587


--------------------------------------------------------------------------------------------------------




--------------------------------------- Iteration      1(   8)  ---------------------------------------


    TRIAL :  cpu time   58.1006: real time   58.4537
    CORREC:  cpu time    0.0111: real time    0.0118
    CHARGE:  cpu time    2.7419: real time    2.7653
    --------------------------------------------
      LOOP:  cpu time   60.8553: real time   61.2350

 eigenvalue-minimisations  : 37200
 total energy-change (2. order) :-0.3290559E-02  (-0.3272369E-02)
 number of electron     269.9999995 magnetization      15.1460355
 augmentation part       64.1899952 magnetization       8.7409960

 Free energy of the ion-electron system (eV)
  ---------------------------------------------------
  alpha Z        PSCENC =       798.38614055
  Ewald energy   TEWEN  =    -12901.57693327
  -Hartree energ DENC   =     -2855.60785864
  -exchange      EXHF   =         0.00000000
  -V(xc)+E(xc)   XCENC  =      -996.20757407
  PAW double counting   =     12741.82587617   -11476.22345381
  entropy T*S    EENTRO =         0.02941689
  eigenvalues    EBANDS =      1587.66855341
  atomic energy  EATOM  =     12697.67401269
  ---------------------------------------------------
  free energy    TOTEN  =      -404.03182010 eV

  energy without entropy =     -404.06123699  energy(sigma->0) =     -404.04162573


--------------------------------------------------------------------------------------------------------




--------------------------------------- Iteration      1(   9)  ---------------------------------------


    POTLOK:  cpu time    0.3976: real time    0.4102
    SETDIJ:  cpu time    0.5197: real time    0.5197
    TRIAL :  cpu time   20.0614: real time   20.2063
    CORREC:  cpu time    6.0560: real time    6.0607
    CHARGE:  cpu time    1.8527: real time    1.8528
    --------------------------------------------
      LOOP:  cpu time   28.8897: real time   29.0530

 eigenvalue-minimisations  :     0
 total energy-change (2. order) : 0.3009686E+03  (-0.2167180E+03)
 number of electron     269.9999993 magnetization      15.8377939
 augmentation part       82.3790895 magnetization      10.3837088

 Free energy of the ion-electron system (eV)
  ---------------------------------------------------
  alpha Z        PSCENC =       798.38614055
  Ewald energy   TEWEN  =    -12901.57693327
  -Hartree energ DENC   =     -1273.77003940
  -exchange      EXHF   =         0.00000000
  -V(xc)+E(xc)   XCENC  =     -1041.66449555
  PAW double counting   =     19167.63844998   -17748.22452035
  entropy T*S    EENTRO =         0.03250794
  eigenvalues    EBANDS =       198.44475111
  atomic energy  EATOM  =     12697.67401269
  ---------------------------------------------------
  free energy    TOTEN  =      -103.06321735 eV

  energy without entropy =     -103.09572529  energy(sigma->0) =     -103.07405333


--------------------------------------------------------------------------------------------------------




--------------------------------------- Iteration      1(  10)  ---------------------------------------


    POTLOK:  cpu time    0.3929: real time    0.3929
    SETDIJ:  cpu time    0.4591: real time    0.4591
    TRIAL :  cpu time   20.1002: real time   20.2855
    CORREC:  cpu time    6.0138: real time    6.0760
    CHARGE:  cpu time    1.8156: real time    1.8256
    --------------------------------------------
      LOOP:  cpu time   28.7917: real time   29.0510

 eigenvalue-minimisations  :     0
 total energy-change (2. order) :-0.2145586E+03  (-0.1296332E+02)
 number of electron     269.9999993 magnetization      16.1904865
 augmentation part       86.7766772 magnetization      10.9599439

 Free energy of the ion-electron system (eV)
  ---------------------------------------------------
  alpha Z        PSCENC =       798.38614055
  Ewald energy   TEWEN  =    -12901.57693327
  -Hartree energ DENC   =     -2101.60066649
  -exchange      EXHF   =         0.00000000
  -V(xc)+E(xc)   XCENC  =     -1012.70212801
  PAW double counting   =     20626.75905396   -19387.23707001
  entropy T*S    EENTRO =         0.02647261
  eigenvalues    EBANDS =       962.64329691
  atomic energy  EATOM  =     12697.67401269
  ---------------------------------------------------
  free energy    TOTEN  =      -317.62178574 eV

  energy without entropy =     -317.64825834  energy(sigma->0) =     -317.63060994


--------------------------------------------------------------------------------------------------------




--------------------------------------- Iteration      1(  11)  ---------------------------------------


    POTLOK:  cpu time    0.4058: real time    0.4090
    SETDIJ:  cpu time    1.1804: real time    1.1804
    TRIAL :  cpu time   20.1049: real time   20.2923
    CORREC:  cpu time    6.0610: real time    6.0653
    CHARGE:  cpu time    1.8259: real time    1.8263
    --------------------------------------------
      LOOP:  cpu time   29.5825: real time   29.7783

 eigenvalue-minimisations  :     0
 total energy-change (2. order) :-0.1246983E+02  (-0.1023356E+02)
 number of electron     269.9999993 magnetization      16.5012937
 augmentation part       88.8529819 magnetization      11.2847170

 Free energy of the ion-electron system (eV)
  ---------------------------------------------------
  alpha Z        PSCENC =       798.38614055
  Ewald energy   TEWEN  =    -12901.57693327
  -Hartree energ DENC   =     -2361.90476734
  -exchange      EXHF   =         0.00000000
  -V(xc)+E(xc)   XCENC  =     -1003.26748641
  PAW double counting   =     21645.75333106   -20450.07805541
  entropy T*S    EENTRO =         0.00768081
  eigenvalues    EBANDS =      1244.89566949
  atomic energy  EATOM  =     12697.67401269
  ---------------------------------------------------
  free energy    TOTEN  =      -330.09161605 eV

  energy without entropy =     -330.09929686  energy(sigma->0) =     -330.09417632


--------------------------------------------------------------------------------------------------------




--------------------------------------- Iteration      1(  12)  ---------------------------------------


    POTLOK:  cpu time    0.3929: real time    0.3929
    SETDIJ:  cpu time    0.4862: real time    0.4862
    TRIAL :  cpu time   20.0920: real time   20.2492
    CORREC:  cpu time    6.0560: real time    6.0693
    CHARGE:  cpu time    1.8141: real time    1.8691
    --------------------------------------------
      LOOP:  cpu time   28.8613: real time   29.0870

 eigenvalue-minimisations  :     0
 total energy-change (2. order) :-0.1032027E+02  (-0.1164279E+02)
 number of electron     269.9999993 magnetization      16.4674071
 augmentation part       87.1290508 magnetization      11.3168176

 Free energy of the ion-electron system (eV)
  ---------------------------------------------------
  alpha Z        PSCENC =       798.38614055
  Ewald energy   TEWEN  =    -12901.57693327
  -Hartree energ DENC   =     -2539.64427409
  -exchange      EXHF   =         0.00000000
  -V(xc)+E(xc)   XCENC  =      -997.32502105
  PAW double counting   =     21798.00202089   -20609.90000733
  entropy T*S    EENTRO =        -0.00676863
  eigenvalues    EBANDS =      1413.96449097
  atomic energy  EATOM  =     12697.67401269
  ---------------------------------------------------
  free energy    TOTEN  =      -340.41188984 eV

  energy without entropy =     -340.40512120  energy(sigma->0) =     -340.40963362


--------------------------------------------------------------------------------------------------------




--------------------------------------- Iteration      1(  13)  ---------------------------------------


    POTLOK:  cpu time    0.3929: real time    0.3930
    SETDIJ:  cpu time    0.4479: real time    0.4604
    TRIAL :  cpu time   20.1203: real time   20.2919
    CORREC:  cpu time    6.0484: real time    6.0493
    CHARGE:  cpu time    1.8197: real time    1.8249
    --------------------------------------------
      LOOP:  cpu time   28.8318: real time   29.0228

 eigenvalue-minimisations  :     0
 total energy-change (2. order) :-0.1154589E+02  (-0.1160613E+01)
 number of electron     269.9999993 magnetization      16.5355544
 augmentation part       86.5094744 magnetization      11.3457821

 Free energy of the ion-electron system (eV)
  ---------------------------------------------------
  alpha Z        PSCENC =       798.38614055
  Ewald energy   TEWEN  =    -12901.57693327
  -Hartree energ DENC   =     -2537.76300483
  -exchange      EXHF   =         0.00000000
  -V(xc)+E(xc)   XCENC  =      -998.26246495
  PAW double counting   =     21265.40065972   -20031.77395283
  entropy T*S    EENTRO =        -0.01267623
  eigenvalues    EBANDS =      1355.96453092
  atomic energy  EATOM  =     12697.67401269
  ---------------------------------------------------
  free energy    TOTEN  =      -351.95778063 eV

  energy without entropy =     -351.94510440  energy(sigma->0) =     -351.95355522


--------------------------------------------------------------------------------------------------------




--------------------------------------- Iteration      1(  14)  ---------------------------------------


    POTLOK:  cpu time    0.3911: real time    0.3916
    SETDIJ:  cpu time    0.4770: real time    0.4783
    TRIAL :  cpu time   20.0408: real time   20.2129
    CORREC:  cpu time    6.0200: real time    6.0328
    CHARGE:  cpu time    1.8307: real time    1.8307
    --------------------------------------------
      LOOP:  cpu time   28.7827: real time   28.9706

 eigenvalue-minimisations  :     0
 total energy-change (2. order) :-0.1029029E+01  (-0.1114789E+01)
 number of electron     269.9999993 magnetization      16.4817096
 augmentation part       85.8166117 magnetization      11.2142201

 Free energy of the ion-electron system (eV)
  ---------------------------------------------------
  alpha Z        PSCENC =       798.38614055
  Ewald energy   TEWEN  =    -12901.57693327
  -Hartree energ DENC   =     -2509.20243629
  -exchange      EXHF   =         0.00000000
  -V(xc)+E(xc)   XCENC  =      -999.31363926
  PAW double counting   =     21041.28458852   -19797.46540543
  entropy T*S    EENTRO =        -0.01630996
  eigenvalues    EBANDS =      1317.23953876
  atomic energy  EATOM  =     12697.67401269
  ---------------------------------------------------
  free energy    TOTEN  =      -352.98680996 eV

  energy without entropy =     -352.97050000  energy(sigma->0) =     -352.98137331


--------------------------------------------------------------------------------------------------------




--------------------------------------- Iteration      1(  15)  ---------------------------------------


    POTLOK:  cpu time    0.3915: real time    0.3915
    SETDIJ:  cpu time    0.4290: real time    0.5066
    TRIAL :  cpu time   20.1355: real time   20.3200
    CORREC:  cpu time    6.0458: real time    6.0468
    CHARGE:  cpu time    1.8240: real time    1.8242
    --------------------------------------------
      LOOP:  cpu time   28.8456: real time   29.1102

 eigenvalue-minimisations  :     0
 total energy-change (2. order) :-0.1114273E+01  (-0.8908687E+00)
 number of electron     269.9999992 magnetization      16.5785590
 augmentation part       86.5018811 magnetization      11.2445116

 Free energy of the ion-electron system (eV)
  ---------------------------------------------------
  alpha Z        PSCENC =       798.38614055
  Ewald energy   TEWEN  =    -12901.57693327
  -Hartree energ DENC   =     -2464.55507675
  -exchange      EXHF   =         0.00000000
  -V(xc)+E(xc)   XCENC  =     -1000.90966738
  PAW double counting   =     20384.11696328   -19127.68359618
  entropy T*S    EENTRO =        -0.01921283
  eigenvalues    EBANDS =      1260.46338391
  atomic energy  EATOM  =     12697.67401269
  ---------------------------------------------------
  free energy    TOTEN  =      -354.10108312 eV

  energy without entropy =     -354.08187029  energy(sigma->0) =     -354.09467884


--------------------------------------------------------------------------------------------------------




--------------------------------------- Iteration      1(  16)  ---------------------------------------


    POTLOK:  cpu time    0.3919: real time    0.3919
    SETDIJ:  cpu time    0.4590: real time    0.4590
    TRIAL :  cpu time   20.0854: real time   20.2177
    CORREC:  cpu time    6.0887: real time    6.1471
    CHARGE:  cpu time    1.8136: real time    1.8139
    --------------------------------------------
      LOOP:  cpu time   28.8411: real time   29.0338

 eigenvalue-minimisations  :     0
 total energy-change (2. order) :-0.8892035E+00  (-0.3436687E+00)
 number of electron     269.9999992 magnetization      16.4977650
 augmentation part       86.9820305 magnetization      11.2291362

 Free energy of the ion-electron system (eV)
  ---------------------------------------------------
  alpha Z        PSCENC =       798.38614055
  Ewald energy   TEWEN  =    -12901.57693327
  -Hartree energ DENC   =     -2487.14655937
  -exchange      EXHF   =         0.00000000
  -V(xc)+E(xc)   XCENC  =      -999.95248796
  PAW double counting   =     19867.26083975   -18614.96963458
  entropy T*S    EENTRO =        -0.02172191
  eigenvalues    EBANDS =      1285.35354842
  atomic energy  EATOM  =     12697.67401269
  ---------------------------------------------------
  free energy    TOTEN  =      -354.99028660 eV

  energy without entropy =     -354.96856469  energy(sigma->0) =     -354.98304597


--------------------------------------------------------------------------------------------------------




--------------------------------------- Iteration      1(  17)  ---------------------------------------


    POTLOK:  cpu time    0.3903: real time    0.3903
    SETDIJ:  cpu time    0.4750: real time    0.4751
    TRIAL :  cpu time   20.1214: real time   20.3103
    CORREC:  cpu time    6.0391: real time    6.1104
    CHARGE:  cpu time    1.8164: real time    1.8167
    --------------------------------------------
      LOOP:  cpu time   28.8488: real time   29.1104

 eigenvalue-minimisations  :     0
 total energy-change (2. order) :-0.3463437E+00  (-0.2012070E+00)
 number of electron     269.9999992 magnetization      16.4510374
 augmentation part       87.1893425 magnetization      11.2703336

 Free energy of the ion-electron system (eV)
  ---------------------------------------------------
  alpha Z        PSCENC =       798.38614055
  Ewald energy   TEWEN  =    -12901.57693327
  -Hartree energ DENC   =     -2505.92105596
  -exchange      EXHF   =         0.00000000
  -V(xc)+E(xc)   XCENC  =      -999.16061650
  PAW double counting   =     19693.03039547   -18444.96640992
  entropy T*S    EENTRO =        -0.02428438
  eigenvalues    EBANDS =      1307.21955857
  atomic energy  EATOM  =     12697.67401269
  ---------------------------------------------------
  free energy    TOTEN  =      -355.33663028 eV

  energy without entropy =     -355.31234590  energy(sigma->0) =     -355.32853549


--------------------------------------------------------------------------------------------------------




--------------------------------------- Iteration      1(  18)  ---------------------------------------


    POTLOK:  cpu time    0.3918: real time    0.3918
    SETDIJ:  cpu time    0.4613: real time    0.4615
    TRIAL :  cpu time   20.0637: real time   20.1919
    CORREC:  cpu time    6.1041: real time    6.1734
    CHARGE:  cpu time    1.8071: real time    1.8238
    --------------------------------------------
      LOOP:  cpu time   28.8457: real time   29.0616

 eigenvalue-minimisations  :     0
 total energy-change (2. order) :-0.2011467E+00  (-0.2079214E+00)
 number of electron     269.9999992 magnetization      16.4105422
 augmentation part       87.2038288 magnetization      11.3003331

 Free energy of the ion-electron system (eV)
  ---------------------------------------------------
  alpha Z        PSCENC =       798.38614055
  Ewald energy   TEWEN  =    -12901.57693327
  -Hartree energ DENC   =     -2512.35944262
  -exchange      EXHF   =         0.00000000
  -V(xc)+E(xc)   XCENC  =      -998.69418381
  PAW double counting   =     19601.94008170   -18356.08746624
  entropy T*S    EENTRO =        -0.02456243
  eigenvalues    EBANDS =      1315.20429835
  atomic energy  EATOM  =     12697.67401269
  ---------------------------------------------------
  free energy    TOTEN  =      -355.53777702 eV

  energy without entropy =     -355.51321459  energy(sigma->0) =     -355.52958954


--------------------------------------------------------------------------------------------------------




--------------------------------------- Iteration      1(  19)  ---------------------------------------


    POTLOK:  cpu time    0.3918: real time    0.3918
    SETDIJ:  cpu time    0.4606: real time    0.4607
    TRIAL :  cpu time   20.1082: real time   20.2792
    CORREC:  cpu time    6.0440: real time    6.1246
    CHARGE:  cpu time    1.8370: real time    1.8371
    --------------------------------------------
      LOOP:  cpu time   28.9072: real time   29.1591

 eigenvalue-minimisations  :     0
 total energy-change (2. order) :-0.2086377E+00  (-0.7396931E-01)
 number of electron     269.9999992 magnetization      16.4456870
 augmentation part       87.0468997 magnetization      11.3398412

 Free energy of the ion-electron system (eV)
  ---------------------------------------------------
  alpha Z        PSCENC =       798.38614055
  Ewald energy   TEWEN  =    -12901.57693327
  -Hartree energ DENC   =     -2508.81694714
  -exchange      EXHF   =         0.00000000
  -V(xc)+E(xc)   XCENC  =      -998.53643371
  PAW double counting   =     19519.74599502   -18274.14394211
  entropy T*S    EENTRO =        -0.02572922
  eigenvalues    EBANDS =      1311.54625564
  atomic energy  EATOM  =     12697.67401269
  ---------------------------------------------------
  free energy    TOTEN  =      -355.74641476 eV

  energy without entropy =     -355.72068553  energy(sigma->0) =     -355.73783835


--------------------------------------------------------------------------------------------------------




--------------------------------------- Iteration      1(  20)  ---------------------------------------


    POTLOK:  cpu time    0.3918: real time    0.3918
    SETDIJ:  cpu time    0.5147: real time    0.5147
    TRIAL :  cpu time   20.1370: real time   20.2580
    CORREC:  cpu time    6.0971: real time    6.1236
    CHARGE:  cpu time    1.8606: real time    1.8797
    --------------------------------------------
      LOOP:  cpu time   29.0061: real time   29.1739

 eigenvalue-minimisations  :     0
 total energy-change (2. order) :-0.7367588E-01  (-0.5440205E-01)
 number of electron     269.9999992 magnetization      16.4043711
 augmentation part       86.8551906 magnetization      11.3468870

 Free energy of the ion-electron system (eV)
  ---------------------------------------------------
  alpha Z        PSCENC =       798.38614055
  Ewald energy   TEWEN  =    -12901.57693327
  -Hartree energ DENC   =     -2499.83105595
  -exchange      EXHF   =         0.00000000
  -V(xc)+E(xc)   XCENC  =      -998.72739762
  PAW double counting   =     19489.63898440   -18242.48137105
  entropy T*S    EENTRO =        -0.02627746
  eigenvalues    EBANDS =      1301.12325883
  atomic energy  EATOM  =     12697.67401269
  ---------------------------------------------------
  free energy    TOTEN  =      -355.82009063 eV

  energy without entropy =     -355.79381318  energy(sigma->0) =     -355.81133148


--------------------------------------------------------------------------------------------------------




--------------------------------------- Iteration      1(  21)  ---------------------------------------


    POTLOK:  cpu time    0.3907: real time    0.3907
    SETDIJ:  cpu time    0.4607: real time    0.4608
    TRIAL :  cpu time   20.2494: real time   20.4345
    CORREC:  cpu time    6.0191: real time    6.0980
    CHARGE:  cpu time    1.8333: real time    1.8335
    --------------------------------------------
      LOOP:  cpu time   28.9585: real time   29.2233

 eigenvalue-minimisations  :     0
 total energy-change (2. order) :-0.5436750E-01  (-0.5050447E-01)
 number of electron     269.9999992 magnetization      16.4309498
 augmentation part       86.7979440 magnetization      11.3916389

 Free energy of the ion-electron system (eV)
  ---------------------------------------------------
  alpha Z        PSCENC =       798.38614055
  Ewald energy   TEWEN  =    -12901.57693327
  -Hartree energ DENC   =     -2490.91950685
  -exchange      EXHF   =         0.00000000
  -V(xc)+E(xc)   XCENC  =      -998.94211002
  PAW double counting   =     19473.98573096   -18225.01842729
  entropy T*S    EENTRO =        -0.02754734
  eigenvalues    EBANDS =      1290.56291256
  atomic energy  EATOM  =     12697.67401269
  ---------------------------------------------------
  free energy    TOTEN  =      -355.87445814 eV

  energy without entropy =     -355.84691079  energy(sigma->0) =     -355.86527569


--------------------------------------------------------------------------------------------------------




--------------------------------------- Iteration      1(  22)  ---------------------------------------


    POTLOK:  cpu time    0.3916: real time    0.3917
    SETDIJ:  cpu time    0.4832: real time    0.4832
    TRIAL :  cpu time   20.0459: real time   20.1331
    CORREC:  cpu time    6.0213: real time    6.0346
    CHARGE:  cpu time    1.8193: real time    1.8377
    --------------------------------------------
      LOOP:  cpu time   28.7632: real time   28.8834

 eigenvalue-minimisations  :     0
 total energy-change (2. order) :-0.5037261E-01  (-0.4425277E-01)
 number of electron     269.9999992 magnetization      16.4340346
 augmentation part       86.8988576 magnetization      11.4223173

 Free energy of the ion-electron system (eV)
  ---------------------------------------------------
  alpha Z        PSCENC =       798.38614055
  Ewald energy   TEWEN  =    -12901.57693327
  -Hartree energ DENC   =     -2490.06006535
  -exchange      EXHF   =         0.00000000
  -V(xc)+E(xc)   XCENC  =      -998.86256467
  PAW double counting   =     19478.61812360   -18229.43709928
  entropy T*S    EENTRO =        -0.02799338
  eigenvalues    EBANDS =      1289.36110233
  atomic energy  EATOM  =     12697.67401269
  ---------------------------------------------------
  free energy    TOTEN  =      -355.92483074 eV

  energy without entropy =     -355.89683736  energy(sigma->0) =     -355.91549961


--------------------------------------------------------------------------------------------------------




--------------------------------------- Iteration      1(  23)  ---------------------------------------


    POTLOK:  cpu time    0.3913: real time    0.3913
    SETDIJ:  cpu time    0.4780: real time    0.4780
    TRIAL :  cpu time   20.9127: real time   21.1087
    CORREC:  cpu time    5.9942: real time    6.0678
    CHARGE:  cpu time    1.8063: real time    1.8065
    --------------------------------------------
      LOOP:  cpu time   29.5864: real time   29.8586

 eigenvalue-minimisations  :     0
 total energy-change (2. order) :-0.4430017E-01  (-0.1669167E-01)
 number of electron     269.9999992 magnetization      16.4238968
 augmentation part       86.9663970 magnetization      11.4330278

 Free energy of the ion-electron system (eV)
  ---------------------------------------------------
  alpha Z        PSCENC =       798.38614055
[...]
   45        0.014   0.019   2.232   2.264
   46       -0.021  -0.025  -2.361  -2.407
   47        0.020   0.024   2.363   2.407
   48        0.017   0.022   2.354   2.393
   49       -0.011  -0.013  -2.234  -2.258
   50        0.022   0.020   2.393   2.434
   51        0.019   0.018   2.376   2.413
   52       -0.015  -0.011  -2.326  -2.352
   53       -0.023  -0.020  -2.390  -2.433
   54        0.014   0.019   2.250   2.283
--------------------------------------------------
tot         -0.014  -0.086  16.090  15.990
 
    FORLOC:  cpu time    0.0600: real time    0.0600
    FORNL :  cpu time   29.7417: real time   29.9495
    STRESS:  cpu time   41.2409: real time   41.5054
    FORCOR:  cpu time    0.4415: real time    0.4415
    OFIELD:  cpu time    0.0022: real time    0.0022

  FORCE on cell =-STRESS in cart. coord.  units (eV):
  Direction    XX          YY          ZZ          XY          YZ          ZX
  --------------------------------------------------------------------------------------
  Alpha Z   798.38614   798.38614   798.38614
  Ewald   -4053.61603 -4053.61603 -4794.40593    -0.00000    -0.00000    -0.00000
  Hartree  1084.62971  1083.17800   333.54871    -0.00000     0.13155    -0.00000
  E(xc)   -1141.42824 -1141.16415 -1139.87797    -0.00000    -0.02810     0.00000
  Local     368.00063   371.42500  1903.15817     0.00000    -0.38313    -0.00000
  n-local  -170.02646  -169.49543  -176.67547     0.12272    -0.12649    -0.28731
  augment   784.59756   783.50004   768.33946     0.00000     0.13940     0.00001
  Kinetic  2336.25125  2333.72908  2310.17653    -1.12747     0.43924    -1.25112
  Fock        0.00000     0.00000     0.00000     0.00000     0.00000     0.00000
  -------------------------------------------------------------------------------------
  Total       6.79457     5.94266     2.64964     0.00000     0.17248     0.00000
  in kB      15.33445    13.41180     5.97989     0.00000     0.38927     0.00000
  external pressure =       11.58 kB  Pullay stress =        0.00 kB


 VOLUME and BASIS-vectors are now :
 -----------------------------------------------------------------------------
  energy-cutoff  :      404.80
  volume of cell :      709.91
      direct lattice vectors                 reciprocal lattice vectors
     8.250148166  0.000000000  0.000000000     0.121209944  0.000000000  0.000000000
     0.000000000  8.250148166  0.000000000     0.000000000  0.121209944  0.000000000
     0.000000000  0.000000000 10.429911392     0.000000000  0.000000000  0.095878092

  length of vectors
     8.250148166  8.250148166 10.429911392     0.121209944  0.121209944  0.095878092


 FORCES acting on ions:
    Electron-Ion                     Ewald-Force                    Non-Local-Force
 -----------------------------------------------------------------------------------------------
   -.777E-01 -.964E-01 0.268E-01   -.239E-08 -.239E-08 -.210E-08   0.764E-01 0.808E-01 -.278E-01
   0.350E-01 -.274E-02 -.603E-01   -.239E-08 -.239E-08 0.171E-08   0.196E-01 0.966E-02 0.351E-01
   0.714E-01 0.341E-01 0.296E-01   -.239E-08 -.239E-08 0.861E-08   0.970E-02 0.134E-02 -.103E-02
   -.844E-01 0.943E-01 0.661E-01   -.239E-08 -.802E-09 -.210E-08   0.820E-01 -.940E-01 -.627E-01
   -.123E+00 0.132E+00 -.170E-01   -.239E-08 -.802E-09 0.171E-08   0.109E+00 -.114E+00 0.762E-01
   -.167E-01 0.470E-02 0.226E-01   -.239E-08 -.802E-09 0.861E-08   -.148E-01 0.427E-02 -.679E-01
   0.135E-01 0.525E-02 0.698E-01   -.239E-08 0.631E-08 -.210E-08   -.708E-02 0.318E-02 -.241E-01
   0.159E+00 -.114E+00 -.139E+00   -.239E-08 0.631E-08 0.171E-08   -.750E-01 0.856E-01 0.436E-01
   0.775E-01 -.200E-01 0.238E-01   -.239E-08 0.631E-08 0.861E-08   0.249E-01 -.203E-01 0.107E-01
   0.777E-01 -.964E-01 0.268E-01   -.802E-09 -.239E-08 -.210E-08   -.764E-01 0.808E-01 -.278E-01
   -.350E-01 -.274E-02 -.603E-01   -.802E-09 -.239E-08 0.171E-08   -.196E-01 0.966E-02 0.351E-01
   -.714E-01 0.341E-01 0.296E-01   -.803E-09 -.239E-08 0.861E-08   -.970E-02 0.134E-02 -.103E-02
   0.844E-01 0.943E-01 0.661E-01   -.802E-09 -.802E-09 -.210E-08   -.820E-01 -.940E-01 -.627E-01
   0.123E+00 0.132E+00 -.170E-01   -.802E-09 -.802E-09 0.171E-08   -.109E+00 -.114E+00 0.762E-01
   0.167E-01 0.470E-02 0.226E-01   -.803E-09 -.802E-09 0.861E-08   0.148E-01 0.427E-02 -.679E-01
   -.135E-01 0.525E-02 0.698E-01   -.802E-09 0.631E-08 -.210E-08   0.708E-02 0.318E-02 -.241E-01
   -.159E+00 -.114E+00 -.139E+00   -.802E-09 0.631E-08 0.171E-08   0.750E-01 0.856E-01 0.436E-01
   -.775E-01 -.200E-01 0.238E-01   -.803E-09 0.631E-08 0.861E-08   -.249E-01 -.203E-01 0.107E-01
   -.329E-08 0.180E-02 -.255E-01   0.631E-08 -.239E-08 -.210E-08   0.000E+00 -.214E-02 0.150E-01
   -.327E-08 0.896E-01 -.644E-01   0.631E-08 -.239E-08 0.171E-08   0.000E+00 -.171E+00 -.177E-01
   -.328E-08 -.573E-01 0.356E-01   0.631E-08 -.239E-08 0.861E-08   0.000E+00 0.512E-01 0.528E-01
   -.329E-08 -.598E-02 0.186E+00   0.631E-08 -.802E-09 -.210E-08   0.000E+00 0.761E-02 -.824E-01
   -.329E-08 -.170E-01 -.517E-01   0.631E-08 -.802E-09 0.171E-08   0.000E+00 0.766E-02 0.222E-01
   -.329E-08 -.248E-01 0.342E-02   0.631E-08 -.802E-09 0.861E-08   0.000E+00 0.945E-02 -.283E-01
   -.329E-08 -.177E-01 -.179E-02   0.631E-08 0.631E-08 -.210E-08   0.000E+00 0.185E-01 0.451E-01
   -.328E-08 -.690E-01 -.638E-01   0.631E-08 0.631E-08 0.171E-08   0.000E+00 0.188E+00 -.423E-01
   -.328E-08 0.815E-01 0.103E-01   0.631E-08 0.631E-08 0.861E-08   0.000E+00 -.519E-01 0.386E-01
   0.472E-08 0.456E-01 -.178E+00   -.169E-07 -.169E-07 -.180E-07   0.000E+00 -.924E-01 0.189E+00
   0.481E-08 -.177E+00 -.150E+00   -.169E-07 -.169E-07 -.170E-08   0.000E+00 0.171E+00 0.158E+00
   0.480E-08 -.530E-01 0.197E+00   -.169E-07 -.169E-07 0.115E-07   0.000E+00 0.103E+00 -.151E+00
   0.489E-08 0.357E+00 0.384E-01   -.169E-07 0.802E-09 -.180E-07   0.000E+00 -.175E+00 -.711E-01
   0.487E-08 0.250E+00 0.300E-01   -.169E-07 0.802E-09 -.170E-08   0.000E+00 -.236E+00 -.520E-01
   0.484E-08 0.112E+00 -.260E-01   -.169E-07 0.802E-09 0.115E-07   0.000E+00 -.135E+00 0.663E-01
   0.488E-08 -.359E+00 -.327E+00   -.169E-07 0.130E-07 -.180E-07   0.000E+00 0.208E+00 0.439E+00
   0.475E-08 -.599E-01 0.177E+00   -.169E-07 0.130E-07 -.170E-08   0.000E+00 0.687E-01 -.134E+00
   0.485E-08 -.619E-01 -.123E+00   -.169E-07 0.130E-07 0.115E-07   0.000E+00 0.238E-01 0.938E-01
   0.343E+00 0.438E-01 -.112E+00   0.802E-09 -.169E-07 -.180E-07   -.182E+00 -.180E-01 0.131E+00
   0.209E-01 0.294E+00 0.820E-01   0.802E-09 -.169E-07 -.170E-08   -.258E-01 -.140E+00 -.932E-01
   0.575E-01 -.282E-01 -.798E-01   0.802E-09 -.169E-07 0.115E-07   -.535E-01 0.230E-01 0.830E-01
   -.595E-01 -.113E+00 -.918E-01   0.802E-09 0.802E-09 -.180E-07   0.928E-01 0.873E-01 0.934E-01
   -.552E-01 -.307E+00 0.834E-01   0.802E-09 0.802E-09 -.170E-08   0.396E-01 0.130E+00 -.124E+00
   -.360E-01 0.403E-03 -.670E-01   0.802E-09 0.802E-09 0.115E-07   -.598E-02 0.376E-02 0.152E+00
   -.852E-01 0.924E-01 0.195E+00   0.802E-09 0.130E-07 -.180E-07   0.333E-01 -.843E-01 -.347E+00
   0.598E+00 -.709E-01 -.164E+00   0.802E-09 0.130E-07 -.170E-08   -.285E+00 0.721E-01 0.137E+00
   0.714E-01 0.287E-01 0.150E+00   0.802E-09 0.130E-07 0.115E-07   0.422E-04 -.258E-01 -.131E+00
   -.343E+00 0.438E-01 -.112E+00   0.130E-07 -.169E-07 -.180E-07   0.182E+00 -.180E-01 0.131E+00
   -.209E-01 0.294E+00 0.820E-01   0.130E-07 -.169E-07 -.170E-08   0.258E-01 -.140E+00 -.932E-01
   -.575E-01 -.282E-01 -.798E-01   0.130E-07 -.169E-07 0.115E-07   0.535E-01 0.230E-01 0.830E-01
   0.595E-01 -.113E+00 -.918E-01   0.130E-07 0.802E-09 -.180E-07   -.928E-01 0.873E-01 0.934E-01
   0.552E-01 -.307E+00 0.834E-01   0.130E-07 0.802E-09 -.170E-08   -.396E-01 0.130E+00 -.124E+00
   0.360E-01 0.403E-03 -.670E-01   0.130E-07 0.802E-09 0.115E-07   0.598E-02 0.376E-02 0.152E+00
   0.852E-01 0.924E-01 0.195E+00   0.130E-07 0.130E-07 -.180E-07   -.333E-01 -.843E-01 -.347E+00
   -.598E+00 -.709E-01 -.164E+00   0.130E-07 0.130E-07 -.170E-08   0.285E+00 0.721E-01 0.137E+00
   -.714E-01 0.287E-01 0.150E+00   0.130E-07 0.130E-07 0.115E-07   -.422E-04 -.258E-01 -.131E+00
 -----------------------------------------------------------------------------------------------
   -.406E-07 -.461E-02 -.309E+00   -.614E-13 -.142E-13 0.128E-13   -.694E-17 0.460E-02 0.309E+00
 
 
 POSITION                                       TOTAL-FORCE (eV/Angst)
 -----------------------------------------------------------------------------------
      0.00000      0.00000      0.00000        -0.007580     -0.022383      0.002732
      0.00000      0.00000      3.47664         0.053473      0.006074     -0.028370
      0.00000      0.00000      6.95327         0.079737      0.034674      0.027426
      0.00000      2.75005      0.00000        -0.009240      0.008012      0.010249
      0.00000      2.75005      3.47664        -0.023368      0.027920      0.052042
      0.00000      2.75005      6.95327        -0.030936      0.008954     -0.039795
      0.00000      5.50010      0.00000         0.007551      0.008148      0.048361
      0.00000      5.50010      3.47664         0.091281     -0.034906     -0.099036
      0.00000      5.50010      6.95327         0.100399     -0.037999      0.032339
      2.75005      0.00000      0.00000         0.007580     -0.022383      0.002732
      2.75005      0.00000      3.47664        -0.053473      0.006074     -0.028370
      2.75005      0.00000      6.95327        -0.079737      0.034674      0.027426
      2.75005      2.75005      0.00000         0.009240      0.008012      0.010249
      2.75005      2.75005      3.47664         0.023368      0.027920      0.052042
      2.75005      2.75005      6.95327         0.030936      0.008954     -0.039795
      2.75005      5.50010      0.00000        -0.007551      0.008148      0.048361
      2.75005      5.50010      3.47664        -0.091281     -0.034906     -0.099036
      2.75005      5.50010      6.95327        -0.100399     -0.037999      0.032339
      5.50010      0.00000      0.00000        -0.000000      0.000246     -0.012207
      5.50010      0.00000      3.47664        -0.000000     -0.066696     -0.079581
      5.50010      0.00000      6.95327        -0.000000     -0.010540      0.082506
      5.50010      2.75005      0.00000        -0.000000      0.000588      0.112203
      5.50010      2.75005      3.47664        -0.000000     -0.010460     -0.031005
      5.50010      2.75005      6.95327        -0.000000     -0.016540     -0.022958
      5.50010      5.50010      0.00000        -0.000000     -0.000795      0.039181
      5.50010      5.50010      3.47664        -0.000000      0.103565     -0.101441
      5.50010      5.50010      6.95327        -0.000000      0.034860      0.043782
      1.37502      1.37502      1.73832        -0.000000     -0.044312      0.009721
      1.37502      1.37502      5.21496        -0.000000     -0.008538      0.010119
      1.37502      1.37502      8.69159        -0.000000      0.048699      0.041397
      1.37502      4.12507      1.73832        -0.000000      0.185991     -0.029156
      1.37502      4.12507      5.21496        -0.000000      0.017170     -0.014457
      1.37502      4.12507      8.69159        -0.000000     -0.022334      0.032805
      1.37502      6.87512      1.73832        -0.000000     -0.152622      0.105315
      1.37502      6.87512      5.21496        -0.000000      0.008634      0.044673
      1.37502      6.87512      8.69159        -0.000000     -0.038076     -0.036342
      4.12507      1.37502      1.73832         0.162831      0.025156      0.018794
      4.12507      1.37502      5.21496        -0.004995      0.156562     -0.007529
      4.12507      1.37502      8.69159         0.004192     -0.003043     -0.004468
      4.12507      4.12507      1.73832         0.031453     -0.027626      0.000570
      4.12507      4.12507      5.21496        -0.016907     -0.180240     -0.034620
      4.12507      4.12507      8.69159        -0.042073      0.001851      0.076720
      4.12507      6.87512      1.73832        -0.052292      0.011000     -0.142654
      4.12507      6.87512      5.21496         0.323221     -0.000194     -0.030268
      4.12507      6.87512      8.69159         0.070738      0.003620      0.020231
      6.87512      1.37502      1.73832        -0.162831      0.025156      0.018794
      6.87512      1.37502      5.21496         0.004995      0.156562     -0.007529
      6.87512      1.37502      8.69159        -0.004192     -0.003043     -0.004468
      6.87512      4.12507      1.73832        -0.031453     -0.027626      0.000570
      6.87512      4.12507      5.21496         0.016907     -0.180240     -0.034620
      6.87512      4.12507      8.69159         0.042073      0.001851      0.076720
      6.87512      6.87512      1.73832         0.052292      0.011000     -0.142654
      6.87512      6.87512      5.21496        -0.323221     -0.000194     -0.030268
      6.87512      6.87512      8.69159        -0.070738      0.003620      0.020231
 -----------------------------------------------------------------------------------
    total drift:                               -0.000000     -0.000009     -0.000014


--------------------------------------------------------------------------------------------------------



  FREE ENERGIE OF THE ION-ELECTRON SYSTEM (eV)
  ---------------------------------------------------
  free  energy   TOTEN  =      -356.04920888 eV

  energy  without entropy=     -356.02189836  energy(sigma->0) =     -356.04010538
 


--------------------------------------------------------------------------------------------------------


    POTLOK:  cpu time    0.9678: real time    0.9680


--------------------------------------------------------------------------------------------------------


     LOOP+:  cpu time 2748.1631: real time 2770.0010
    4ORBIT:  cpu time    0.0000: real time    0.0000
 


 total charge     
 
# of ion       s       p       d       tot
------------------------------------------
    1        0.405   0.428   0.000   0.833
    2        0.406   0.428   0.000   0.834
    3        0.405   0.428   0.000   0.833
    4        0.405   0.429   0.000   0.834
    5        0.405   0.427   0.000   0.832
    6        0.404   0.427   0.000   0.832
    7        0.405   0.426   0.000   0.831
    8        0.405   0.428   0.000   0.833
    9        0.404   0.430   0.000   0.834
   10        0.405   0.428   0.000   0.833
   11        0.406   0.428   0.000   0.834
   12        0.405   0.429   0.000   0.833
   13        0.405   0.428   0.000   0.833
   14        0.405   0.427   0.000   0.832
   15        0.404   0.427   0.000   0.832
   16        0.405   0.426   0.000   0.831
   17        0.405   0.427   0.000   0.833
   18        0.404   0.430   0.000   0.834
   19        0.405   0.426   0.000   0.832
   20        0.405   0.428   0.000   0.833
   21        0.404   0.429   0.000   0.834
   22        0.405   0.427   0.000   0.832
   23        0.405   0.425   0.000   0.830
   24        0.404   0.427   0.000   0.831
   25        0.405   0.427   0.000   0.832
   26        0.405   0.428   0.000   0.833
   27        0.405   0.429   0.000   0.834
   28        0.337   0.352   5.136   5.825
   29        0.331   0.349   5.149   5.828
   30        0.335   0.348   5.142   5.824
   31        0.336   0.354   5.127   5.816
   32        0.331   0.354   5.136   5.821
   33        0.334   0.353   5.132   5.820
   34        0.335   0.356   5.125   5.816
   35        0.331   0.358   5.134   5.822
   36        0.334   0.350   5.137   5.820
   37        0.335   0.355   5.126   5.816
   38        0.333   0.355   5.131   5.819
   39        0.333   0.352   5.133   5.817
   40        0.333   0.353   5.137   5.822
   41        0.334   0.353   5.133   5.821
   42        0.334   0.349   5.137   5.820
   43        0.333   0.350   5.139   5.822
   44        0.335   0.354   5.126   5.816
   45        0.332   0.352   5.144   5.827
   46        0.334   0.355   5.127   5.816
   47        0.333   0.355   5.129   5.817
   48        0.333   0.352   5.137   5.822
   49        0.332   0.353   5.135   5.820
   50        0.334   0.354   5.130   5.817
   51        0.334   0.350   5.139   5.823
   52        0.334   0.350   5.141   5.825
   53        0.334   0.354   5.131   5.819
   54        0.332   0.352   5.131   5.814
--------------------------------------------------
tot         19.938  21.069 138.623 179.629
 


 magnetization (x)
 
# of ion       s       p       d       tot
------------------------------------------
    1       -0.004  -0.008   0.000  -0.012
    2        0.001   0.001   0.000   0.003
    3       -0.016  -0.030   0.000  -0.046
    4       -0.004  -0.007   0.000  -0.011
    5       -0.003  -0.005   0.000  -0.009
    6       -0.021  -0.038   0.000  -0.059
    7       -0.001  -0.001   0.000  -0.002
    8        0.004   0.008   0.000   0.012
    9       -0.017  -0.027   0.000  -0.044
   10       -0.004  -0.007   0.000  -0.011
   11        0.001   0.002   0.000   0.003
   12       -0.016  -0.031   0.000  -0.047
   13       -0.004  -0.007   0.000  -0.011
   14       -0.004  -0.005   0.000  -0.009
   15       -0.022  -0.038   0.000  -0.059
   16       -0.001  -0.002   0.000  -0.002
   17        0.004   0.009   0.000   0.013
   18       -0.017  -0.027   0.000  -0.044
   19       -0.001  -0.000   0.000  -0.001
   20        0.009   0.017   0.000   0.026
   21       -0.012  -0.018   0.000  -0.031
   22       -0.001  -0.003   0.000  -0.003
   23        0.001   0.003   0.000   0.004
   24       -0.021  -0.033   0.000  -0.054
   25        0.001   0.002   0.000   0.002
   26        0.010   0.020   0.000   0.030
   27       -0.012  -0.021   0.000  -0.032
   28        0.028   0.028   2.099   2.155
   29        0.012   0.005   2.265   2.282
   30        0.019   0.018   2.354   2.391
   31       -0.022  -0.021  -2.383  -2.426
   32        0.009   0.013   2.325   2.347
   33        0.015   0.026   2.352   2.394
   34       -0.019  -0.029  -2.323  -2.371
   35        0.028   0.035   2.186   2.248
   36        0.019   0.018   2.392   2.429
   37       -0.020  -0.025  -2.359  -2.404
   38        0.020   0.024   2.356   2.399
   39        0.017   0.022   2.353   2.392
   40       -0.010  -0.013  -2.234  -2.257
   41        0.022   0.020   2.393   2.434
   42        0.019   0.018   2.372   2.409
   43       -0.015  -0.011  -2.320  -2.346
   44       -0.023  -0.019  -2.395  -2.437
   45        0.014   0.019   2.232   2.264
   46       -0.021  -0.025  -2.361  -2.407
   47        0.020   0.024   2.363   2.407
   48        0.017   0.022   2.354   2.393
   49       -0.011  -0.013  -2.234  -2.258
   50        0.022   0.020   2.393   2.434
   51        0.019   0.018   2.376   2.413
   52       -0.015  -0.011  -2.326  -2.352
   53       -0.023  -0.020  -2.390  -2.433
   54        0.014   0.019   2.250   2.283
--------------------------------------------------
tot         -0.014  -0.086  16.090  15.990
 

 total amount of memory used by VASP MPI-rank0  1077308. kBytes
=======================================================================

   base      :      30000. kBytes
   nonl-proj :      34214. kBytes
   fftplans  :      31580. kBytes
   grid      :      21385. kBytes
   one-center:        435. kBytes
   wavefun   :     959694. kBytes
 
  
  
 General timing and accounting informations for this job:
 ========================================================
  
                  Total CPU time used (sec):     2786.352
                            User time (sec):     2754.506
                          System time (sec):       31.846
                         Elapsed time (sec):     2810.684
  
                   Maximum memory used (kb):     1259708.
                   Average memory used (kb):           0.
  
                          Minor page faults:       854713
                          Major page faults:           16
                 Voluntary context switches:         3739
