 vasp.5.4.4.18Apr17-6-g9f103f2a35 (build Dec 20 2018 12:05:58) complex          
  
 executed on             LinuxIFC date 2019.06.20  18:44:03
 running on   32 total cores
 distrk:  each k-point on    8 cores,    4 groups
 distr:  one band on NCORES_PER_BAND=   4 cores,    2 groups


--------------------------------------------------------------------------------------------------------


 INCAR:
 POTCAR:    PAW_PBE Al 04Jan2001                  
 POTCAR:    PAW_PBE Mn 06Sep2000                  

 ----------------------------------------------------------------------------- 
|                                                                             |
|           W    W    AA    RRRRR   N    N  II  N    N   GGGG   !!!           |
|           W    W   A  A   R    R  NN   N  II  NN   N  G    G  !!!           |
|           W    W  A    A  R    R  N N  N  II  N N  N  G       !!!           |
|           W WW W  AAAAAA  RRRRR   N  N N  II  N  N N  G  GGG   !            |
|           WW  WW  A    A  R   R   N   NN  II  N   NN  G    G                |
|           W    W  A    A  R    R  N    N  II  N    N   GGGG   !!!           |
|                                                                             |
|      You have enabled k-point parallelism (KPAR>1).                         |
|      This developmental code was originally  written by Paul Kent at ORNL,  |
|      and carefully double checked in Vienna.                                |
|      GW as well as linear response parallelism added by Martijn Marsman     |
|      and Georg Kresse.                                                      |
|      Carefully verify results versus KPAR=1.                                |
|      Report problems to Paul Kent and Vienna.                               |
|                                                                             |
 ----------------------------------------------------------------------------- 

 POTCAR:    PAW_PBE Al 04Jan2001                  
   VRHFIN =Al: s2p1                                                             
   LEXCH  = PE                                                                  
   EATOM  =    53.5387 eV,    3.9350 Ry                                         
                                                                                
   TITEL  = PAW_PBE Al 04Jan2001                                                
   LULTRA =        F    use ultrasoft PP ?                                      
   IUNSCR =        1    unscreen: 0-lin 1-nonlin 2-no                           
   RPACOR =    1.500    partial core radius                                     
   POMASS =   26.981; ZVAL   =    3.000    mass and valenz                      
   RCORE  =    1.900    outmost cutoff radius                                   
   RWIGS  =    2.650; RWIGS  =    1.402    wigner-seitz radius (au A)           
   ENMAX  =  240.300; ENMIN  =  180.225 eV                                      
   ICORE  =        2    local potential                                         
   LCOR   =        T    correct aug charges                                     
   LPAW   =        T    paw PP                                                  
   EAUG   =  291.052                                                            
   DEXC   =    0.000                                                            
   RMAX   =    1.939    core radius for proj-oper                               
   RAUG   =    1.300    factor for augmentation sphere                          
   RDEP   =    1.966    radius for radial grids                                 
   RDEPT  =    1.856    core radius for aug-charge                              
                                                                                
   Atomic configuration                                                         
    6 entries                                                                   
     n  l   j            E        occ.                                          
     1  0  0.50     -1511.1048   2.0000                                         
     2  0  0.50      -108.1629   2.0000                                         
     2  1  1.50       -69.6402   6.0000                                         
     3  0  0.50        -7.7528   2.0000                                         
     3  1  1.50        -2.7121   1.0000                                         
     3  2  2.50        -2.7212   0.0000                                         
   Description                                                                  
     l       E           TYP  RCUT    TYP  RCUT                                 
     0     -7.7528455     23  1.900                                             
     0     -3.3096929     23  1.900                                             
     1     -2.7120682     23  1.900                                             
     1     13.6058260     23  1.900                                             
     2     -2.7211652      7  1.900                                             
  local pseudopotential read in
  partial core-charges read in
  partial kinetic energy density read in
  atomic valenz-charges read in
  non local Contribution for L=           0  read in
    real space projection operators read in
  non local Contribution for L=           0  read in
    real space projection operators read in
  non local Contribution for L=           1  read in
    real space projection operators read in
  non local Contribution for L=           1  read in
    real space projection operators read in
    PAW grid and wavefunctions read in
 
   number of l-projection  operators is LMAX  =           4
   number of lm-projection operators is LMMAX =           8
 
 POTCAR:    PAW_PBE Mn 06Sep2000                  
   VRHFIN =Mn: d6 s1                                                            
   LEXCH  = PE                                                                  
   EATOM  =   416.7541 eV,   30.6306 Ry                                         
                                                                                
   TITEL  = PAW_PBE Mn 06Sep2000                                                
   LULTRA =        F    use ultrasoft PP ?                                      
   IUNSCR =        1    unscreen: 0-lin 1-nonlin 2-no                           
   RPACOR =    2.000    partial core radius                                     
   POMASS =   54.938; ZVAL   =    7.000    mass and valenz                      
   RCORE  =    2.300    outmost cutoff radius                                   
   RWIGS  =    2.500; RWIGS  =    1.323    wigner-seitz radius (au A)           
   ENMAX  =  269.864; ENMIN  =  202.398 eV                                      
   RCLOC  =    1.725    cutoff for local pot                                    
   LCOR   =        T    correct aug charges                                     
   LPAW   =        T    paw PP                                                  
   EAUG   =  500.711                                                            
   DEXC   =    0.000                                                            
   RMAX   =    2.343    core radius for proj-oper                               
   RAUG   =    1.300    factor for augmentation sphere                          
   RDEP   =    2.338    radius for radial grids                                 
   RDEPT  =    1.911    core radius for aug-charge                              
                                                                                
   Atomic configuration                                                         
    9 entries                                                                   
     n  l   j            E        occ.                                          
     1  0  0.50     -6424.8288   2.0000                                         
     2  0  0.50      -739.1154   2.0000                                         
     2  1  1.50      -625.3949   6.0000                                         
     3  0  0.50       -81.6100   2.0000                                         
     3  1  1.50       -50.4667   6.0000                                         
     3  2  2.50        -3.3745   6.0000                                         
     4  0  0.50        -4.1331   1.0000                                         
     4  1  0.50        -4.0817   0.0000                                         
     4  3  2.50        -1.3606   0.0000                                         
   Description                                                                  
     l       E           TYP  RCUT    TYP  RCUT                                 
     2     -3.3744664     23  2.300                                             
     2     -4.7350490     23  2.300                                             
     0     -4.1331408     23  2.300                                             
     0      7.6656614     23  2.300                                             
     1     -2.7211652     23  2.300                                             
     1     20.4087390     23  2.300                                             
  local pseudopotential read in
  partial core-charges read in
  partial kinetic energy density read in
  atomic valenz-charges read in
  non local Contribution for L=           2  read in
    real space projection operators read in
  non local Contribution for L=           2  read in
    real space projection operators read in
  non local Contribution for L=           0  read in
    real space projection operators read in
  non local Contribution for L=           0  read in
    real space projection operators read in
  non local Contribution for L=           1  read in
    real space projection operators read in
  non local Contribution for L=           1  read in
    real space projection operators read in
    PAW grid and wavefunctions read in
 
   number of l-projection  operators is LMAX  =           6
   number of lm-projection operators is LMMAX =          18
 

 ----------------------------------------------------------------------------- 
|                                                                             |
|  ADVICE TO THIS USER RUNNING 'VASP/VAMP'   (HEAR YOUR MASTER'S VOICE ...):  |
|                                                                             |
|      You have a (more or less) 'large supercell' and for larger cells       |
|      it might be more efficient to use real space projection opertators     |
|      So try LREAL= Auto  in the INCAR   file.                               |
|      Mind:          For very  accurate calculation you might also keep the  |
|      reciprocal projection scheme          (i.e. LREAL=.FALSE.)             |
|                                                                             |
 ----------------------------------------------------------------------------- 

  PAW_PBE Al 04Jan2001                  :
 energy of atom  1       EATOM=  -53.5387
 kinetic energy error for atom=    0.0005 (will be added to EATOM!!)
  PAW_PBE Mn 06Sep2000                  :
 energy of atom  2       EATOM= -416.7541
 kinetic energy error for atom=    0.0080 (will be added to EATOM!!)
 
 
 POSCAR: NewRef: 27, @ ['Mn', array([1.37502469, 
  positions in cartesian coordinates
  velocities in cartesian coordinates
  No initial velocities read in
 exchange correlation table for  LEXCH =        8
   RHO(1)=    0.500       N(1)  =     2000
   RHO(2)=  100.500       N(2)  =     4000
 


--------------------------------------------------------------------------------------------------------


 ion  position               nearest neighbor table
   1  0.000  0.000  0.000-  28 2.61  30 2.61  34 2.61  36 2.61  46 2.61  48 2.61  52 2.61  54 2.61
                             4 2.75  10 2.75   7 2.75  19 2.75
   2  0.000  0.000  0.333-  28 2.61  34 2.61  46 2.61  52 2.61  29 2.61  47 2.61  35 2.61  53 2.61
                             5 2.75  11 2.75   8 2.75  20 2.75
   3  0.000  0.000  0.667-  29 2.61  35 2.61  47 2.61  53 2.61  30 2.61  48 2.61  36 2.61  54 2.61
                             6 2.75  12 2.75   9 2.75  21 2.75
   4  0.000  0.333  0.000-  28 2.61  30 2.61  46 2.61  48 2.61  31 2.61  33 2.61  49 2.61  51 2.61
                            13 2.75   1 2.75   7 2.75  22 2.75
   5  0.000  0.333  0.333-  28 2.61  46 2.61  31 2.61  49 2.61  47 2.61  29 2.61  32 2.61  50 2.61
                            14 2.75   2 2.75   8 2.75  23 2.75
   6  0.000  0.333  0.667-  29 2.61  47 2.61  32 2.61  50 2.61  48 2.61  30 2.61  33 2.61  51 2.61
                            15 2.75   3 2.75   9 2.75  24 2.75
   7  0.000  0.667  0.000-  31 2.61  33 2.61  49 2.61  51 2.61  34 2.61  36 2.61  52 2.61  54 2.61
                             4 2.75  16 2.75   1 2.75  25 2.75
   8  0.000  0.667  0.333-  31 2.61  49 2.61  34 2.61  52 2.61  50 2.61  32 2.61  35 2.61  53 2.61
                             5 2.75  17 2.75   2 2.75  26 2.75
   9  0.000  0.667  0.667-  32 2.61  50 2.61  35 2.61  53 2.61  51 2.61  33 2.61  36 2.61  54 2.61
                             6 2.75  18 2.75   3 2.75  27 2.75
  10  0.333  0.000  0.000-  28 2.61  30 2.61  34 2.61  36 2.61  37 2.61  39 2.61  43 2.61  45 2.61
                            19 2.75   1 2.75  13 2.75  16 2.75
  11  0.333  0.000  0.333-  28 2.61  34 2.61  37 2.61  43 2.61  29 2.61  35 2.61  38 2.61  44 2.61
                            20 2.75   2 2.75  14 2.75  17 2.75
  12  0.333  0.000  0.667-  29 2.61  35 2.61  38 2.61  44 2.61  30 2.61  36 2.61  39 2.61  45 2.61
                            21 2.75   3 2.75  15 2.75  18 2.75
  13  0.333  0.333  0.000-  28 2.61  30 2.61  31 2.61  33 2.61  37 2.61  39 2.61  40 2.61  42 2.61
                             4 2.75  10 2.75  16 2.75  22 2.75
  14  0.333  0.333  0.333-  28 2.61  31 2.61  37 2.61  29 2.61  40 2.61  38 2.61  32 2.61  41 2.61
                             5 2.75  11 2.75  17 2.75  23 2.75
  15  0.333  0.333  0.667-  29 2.61  32 2.61  38 2.61  30 2.61  41 2.61  39 2.61  33 2.61  42 2.61
                             6 2.75  12 2.75  18 2.75  24 2.75
  16  0.333  0.667  0.000-  31 2.61  33 2.61  34 2.61  36 2.61  40 2.61  42 2.61  43 2.61  45 2.61
                            25 2.75   7 2.75  13 2.75  10 2.75
  17  0.333  0.667  0.333-  31 2.61  34 2.61  40 2.61  32 2.61  43 2.61  41 2.61  35 2.61  44 2.61
                            26 2.75   8 2.75  14 2.75  11 2.75
  18  0.333  0.667  0.667-  32 2.61  35 2.61  41 2.61  33 2.61  44 2.61  42 2.61  36 2.61  45 2.61
                            27 2.75   9 2.75  15 2.75  12 2.75
  19  0.667  0.000  0.000-  37 2.61  39 2.61  43 2.61  45 2.61  46 2.61  48 2.61  52 2.61  54 2.61
                            10 2.75  22 2.75   1 2.75  25 2.75
  20  0.667  0.000  0.333-  37 2.61  43 2.61  46 2.61  52 2.61  38 2.61  44 2.61  47 2.61  53 2.61
                            11 2.75  23 2.75   2 2.75  26 2.75
  21  0.667  0.000  0.667-  38 2.61  44 2.61  47 2.61  53 2.61  39 2.61  45 2.61  48 2.61  54 2.61
                            12 2.75  24 2.75   3 2.75  27 2.75
  22  0.667  0.333  0.000-  37 2.61  39 2.61  40 2.61  42 2.61  46 2.61  48 2.61  49 2.61  51 2.61
                            25 2.75  13 2.75  19 2.75   4 2.75
  23  0.667  0.333  0.333-  37 2.61  40 2.61  46 2.61  38 2.61  49 2.61  47 2.61  41 2.61  50 2.61
                            26 2.75  14 2.75  20 2.75   5 2.75
  24  0.667  0.333  0.667-  38 2.61  41 2.61  47 2.61  39 2.61  50 2.61  48 2.61  42 2.61  51 2.61
                            27 2.75  15 2.75  21 2.75   6 2.75
  25  0.667  0.667  0.000-  40 2.61  42 2.61  43 2.61  45 2.61  49 2.61  51 2.61  52 2.61  54 2.61
                            16 2.75  22 2.75  19 2.75   7 2.75
  26  0.667  0.667  0.333-  40 2.61  43 2.61  49 2.61  41 2.61  52 2.61  50 2.61  44 2.61  53 2.61
                            17 2.75  23 2.75  20 2.75   8 2.75
  27  0.667  0.667  0.667-  41 2.61  44 2.61  50 2.61  42 2.61  53 2.61  51 2.61  45 2.61  54 2.61
                            18 2.75  24 2.75  21 2.75   9 2.75
  28  0.167  0.167  0.167-  14 2.61  11 2.61   5 2.61  13 2.61   2 2.61  10 2.61   4 2.61   1 2.61
                            31 2.75  37 2.75  34 2.75  46 2.75
  29  0.167  0.167  0.500-  15 2.61  12 2.61   6 2.61  14 2.61   3 2.61  11 2.61   5 2.61   2 2.61
                            32 2.75  38 2.75  35 2.75  47 2.75
  30  0.167  0.167  0.833-  13 2.61  15 2.61  10 2.61  12 2.61   4 2.61   6 2.61   1 2.61   3 2.61
                            33 2.75  39 2.75  36 2.75  48 2.75
  31  0.167  0.500  0.167-  17 2.61  14 2.61   8 2.61  16 2.61   5 2.61  13 2.61   7 2.61   4 2.61
                            28 2.75  34 2.75  40 2.75  49 2.75
  32  0.167  0.500  0.500-  18 2.61  15 2.61   9 2.61  17 2.61   6 2.61  14 2.61   8 2.61   5 2.61
                            29 2.75  35 2.75  41 2.75  50 2.75
  33  0.167  0.500  0.833-  16 2.61  18 2.61  13 2.61  15 2.61   7 2.61   9 2.61   4 2.61   6 2.61
                            30 2.75  36 2.75  42 2.75  51 2.75
  34  0.167  0.833  0.167-  11 2.61  17 2.61   2 2.61   8 2.61  16 2.61  10 2.61   7 2.61   1 2.61
                            31 2.75  43 2.75  28 2.75  52 2.75
  35  0.167  0.833  0.500-  12 2.61  18 2.61   3 2.61   9 2.61  17 2.61  11 2.61   8 2.61   2 2.61
                            32 2.75  44 2.75  29 2.75  53 2.75
  36  0.167  0.833  0.833-  10 2.61  12 2.61  16 2.61  18 2.61   1 2.61   3 2.61   7 2.61   9 2.61
                            33 2.75  45 2.75  30 2.75  54 2.75
  37  0.500  0.167  0.167-  23 2.61  20 2.61  14 2.61  22 2.61  11 2.61  19 2.61  13 2.61  10 2.61
                            28 2.75  40 2.75  46 2.75  43 2.75
  38  0.500  0.167  0.500-  24 2.61  21 2.61  15 2.61  23 2.61  12 2.61  20 2.61  14 2.61  11 2.61
                            29 2.75  41 2.75  47 2.75  44 2.75
  39  0.500  0.167  0.833-  22 2.61  24 2.61  19 2.61  21 2.61  13 2.61  15 2.61  10 2.61  12 2.61
                            30 2.75  42 2.75  48 2.75  45 2.75
  40  0.500  0.500  0.167-  26 2.61  23 2.61  17 2.61  25 2.61  14 2.61  22 2.61  16 2.61  13 2.61
                            31 2.75  37 2.75  43 2.75  49 2.75
  41  0.500  0.500  0.500-  27 2.61  24 2.61  18 2.61  26 2.61  15 2.61  23 2.61  17 2.61  14 2.61
                            32 2.75  38 2.75  44 2.75  50 2.75
  42  0.500  0.500  0.833-  25 2.61  27 2.61  22 2.61  24 2.61  16 2.61  18 2.61  13 2.61  15 2.61
                            33 2.75  39 2.75  45 2.75  51 2.75
  43  0.500  0.833  0.167-  20 2.61  26 2.61  11 2.61  17 2.61  25 2.61  19 2.61  16 2.61  10 2.61
                            34 2.75  40 2.75  52 2.75  37 2.75
  44  0.500  0.833  0.500-  21 2.61  27 2.61  12 2.61  18 2.61  26 2.61  20 2.61  17 2.61  11 2.61
                            35 2.75  41 2.75  53 2.75  38 2.75
  45  0.500  0.833  0.833-  19 2.61  21 2.61  25 2.61  27 2.61  10 2.61  12 2.61  16 2.61  18 2.61
                            36 2.75  42 2.75  54 2.75  39 2.75
  46  0.833  0.167  0.167-   5 2.61  23 2.61  20 2.61   2 2.61  22 2.61   4 2.61  19 2.61   1 2.61
                            37 2.75  49 2.75  28 2.75  52 2.75
  47  0.833  0.167  0.500-   6 2.61  24 2.61  21 2.61   3 2.61  23 2.61   5 2.61  20 2.61   2 2.61
                            38 2.75  50 2.75  29 2.75  53 2.75
  48  0.833  0.167  0.833-   4 2.61   6 2.61  22 2.61  24 2.61  19 2.61  21 2.61   1 2.61   3 2.61
                            39 2.75  51 2.75  30 2.75  54 2.75
  49  0.833  0.500  0.167-   8 2.61  26 2.61  23 2.61   5 2.61  25 2.61   7 2.61  22 2.61   4 2.61
                            40 2.75  46 2.75  52 2.75  31 2.75
  50  0.833  0.500  0.500-   9 2.61  27 2.61  24 2.61   6 2.61  26 2.61   8 2.61  23 2.61   5 2.61
                            41 2.75  47 2.75  53 2.75  32 2.75
  51  0.833  0.500  0.833-   7 2.61   9 2.61  25 2.61  27 2.61  22 2.61  24 2.61   4 2.61   6 2.61
                            42 2.75  48 2.75  54 2.75  33 2.75
  52  0.833  0.833  0.167-   2 2.61   8 2.61  20 2.61  26 2.61  19 2.61   7 2.61  25 2.61   1 2.61
                            43 2.75  49 2.75  46 2.75  34 2.75
  53  0.833  0.833  0.500-   3 2.61   9 2.61  21 2.61  27 2.61  20 2.61   8 2.61  26 2.61   2 2.61
                            44 2.75  50 2.75  47 2.75  35 2.75
  54  0.833  0.833  0.833-   1 2.61   3 2.61   7 2.61   9 2.61  19 2.61  21 2.61  25 2.61  27 2.61
                            45 2.75  51 2.75  48 2.75  36 2.75
 
  LATTYP: Found a simple tetragonal cell.
 ALAT       =     8.2501481662
 C/A-ratio  =     1.2642089792
  
  Lattice vectors:
  
 A1 = (   8.2501481662,   0.0000000000,   0.0000000000)
 A2 = (   0.0000000000,   8.2501481662,   0.0000000000)
 A3 = (   0.0000000000,   0.0000000000,  10.4299113916)


Analysis of symmetry for initial positions (statically):
=====================================================================
 Subroutine PRICEL returns following result:
 
  LATTYP: Found a simple tetragonal cell.
 ALAT       =     2.7500493888
 C/A-ratio  =     1.2642089792
  
  Lattice vectors:
  
 A1 = (   2.7500493888,   0.0000000000,   0.0000000000)
 A2 = (   0.0000000000,   2.7500493888,   0.0000000000)
 A3 = (   0.0000000000,   0.0000000000,   3.4766371306)
 
  27 primitive cells build up your supercell.
 

 Routine SETGRP: Setting up the symmetry group for a 
 simple tetragonal supercell.


 Subroutine GETGRP returns: Found 16 space group operations
 (whereof 16 operations were pure point group operations)
 out of a pool of 16 trial point group operations.


The static configuration has the point symmetry D_4h.


Analysis of symmetry for dynamics (positions and initial velocities):
=====================================================================
 Subroutine PRICEL returns following result:
 
  LATTYP: Found a simple tetragonal cell.
 ALAT       =     2.7500493888
 C/A-ratio  =     1.2642089792
  
  Lattice vectors:
  
 A1 = (   2.7500493888,   0.0000000000,   0.0000000000)
 A2 = (   0.0000000000,   2.7500493888,   0.0000000000)
 A3 = (   0.0000000000,   0.0000000000,   3.4766371306)
 
  27 primitive cells build up your supercell.
 

 Routine SETGRP: Setting up the symmetry group for a 
 simple tetragonal supercell.


 Subroutine GETGRP returns: Found 16 space group operations
 (whereof 16 operations were pure point group operations)
 out of a pool of 16 trial point group operations.


The dynamic configuration has the point symmetry D_4h.


Analysis of structural, dynamic, and magnetic symmetry:
=====================================================================
 Subroutine PRICEL returns:
 Original cell was already a primitive cell.
 

 Routine SETGRP: Setting up the symmetry group for a 
 simple tetragonal supercell.


 Subroutine GETGRP returns: Found  4 space group operations
 (whereof  1 operations were pure point group operations)
 out of a pool of 16 trial point group operations.


The magnetic configuration has the point symmetry C_1 .
 The point group associated with its full space group is C_2v.


 Subroutine INISYM returns: Found  4 space group operations
 (whereof  1 operations are pure point group operations),
 and found     1 'primitive' translations

 
 
 KPOINTS: automatic KPOINTS                       

Automatic generation of k-mesh.
 generate k-points for:    5    5    4
Space group operators:
 irot       det(A)        alpha          n_x          n_y          n_z        tau_x        tau_y        tau_z
    1     1.000000     0.000001     1.000000     0.000000     0.000000     0.000000     0.000000     0.000000
    2     1.000000   180.000000     0.000000     0.000000     1.000000     0.333333     0.666667     0.000000
    3    -1.000000   180.000000     0.000000     1.000000     0.000000     0.000000     0.666667     0.000000
    4    -1.000000   180.000000     1.000000     0.000000     0.000000     0.333333     0.000000     0.000000
 
 Subroutine IBZKPT returns following result:
 ===========================================
 
 Found     27 irreducible k-points:
 
 Following reciprocal coordinates:
            Coordinates               Weight
  0.000000  0.000000  0.000000      1.000000
  0.200000  0.000000  0.000000      2.000000
  0.400000  0.000000  0.000000      2.000000
  0.000000  0.200000  0.000000      2.000000
  0.200000  0.200000  0.000000      4.000000
  0.400000  0.200000  0.000000      4.000000
  0.000000  0.400000  0.000000      2.000000
  0.200000  0.400000  0.000000      4.000000
  0.400000  0.400000  0.000000      4.000000
  0.000000  0.000000  0.250000      2.000000
  0.200000  0.000000  0.250000      4.000000
  0.400000  0.000000  0.250000      4.000000
  0.000000  0.200000  0.250000      4.000000
  0.200000  0.200000  0.250000      8.000000
  0.400000  0.200000  0.250000      8.000000
  0.000000  0.400000  0.250000      4.000000
  0.200000  0.400000  0.250000      8.000000
  0.400000  0.400000  0.250000      8.000000
  0.000000  0.000000  0.500000      1.000000
  0.200000  0.000000  0.500000      2.000000
  0.400000  0.000000  0.500000      2.000000
  0.000000  0.200000  0.500000      2.000000
  0.200000  0.200000  0.500000      4.000000
  0.400000  0.200000  0.500000      4.000000
  0.000000  0.400000  0.500000      2.000000
  0.200000  0.400000  0.500000      4.000000
  0.400000  0.400000  0.500000      4.000000
 
 Following cartesian coordinates:
            Coordinates               Weight
  0.000000  0.000000  0.000000      1.000000
  0.024242  0.000000  0.000000      2.000000
  0.048484  0.000000  0.000000      2.000000
  0.000000  0.024242  0.000000      2.000000
  0.024242  0.024242  0.000000      4.000000
  0.048484  0.024242  0.000000      4.000000
  0.000000  0.048484  0.000000      2.000000
  0.024242  0.048484  0.000000      4.000000
  0.048484  0.048484  0.000000      4.000000
  0.000000  0.000000  0.023970      2.000000
  0.024242  0.000000  0.023970      4.000000
  0.048484  0.000000  0.023970      4.000000
  0.000000  0.024242  0.023970      4.000000
  0.024242  0.024242  0.023970      8.000000
  0.048484  0.024242  0.023970      8.000000
  0.000000  0.048484  0.023970      4.000000
  0.024242  0.048484  0.023970      8.000000
  0.048484  0.048484  0.023970      8.000000
  0.000000  0.000000  0.047939      1.000000
  0.024242  0.000000  0.047939      2.000000
  0.048484  0.000000  0.047939      2.000000
  0.000000  0.024242  0.047939      2.000000
  0.024242  0.024242  0.047939      4.000000
  0.048484  0.024242  0.047939      4.000000
  0.000000  0.048484  0.047939      2.000000
  0.024242  0.048484  0.047939      4.000000
  0.048484  0.048484  0.047939      4.000000
 


--------------------------------------------------------------------------------------------------------




 Dimension of arrays:
   k-points           NKPTS =     27   k-points in BZ     NKDIM =     27   number of bands    NBANDS=    156
   number of dos      NEDOS =    301   number of ions     NIONS =     54
   non local maximal  LDIM  =      6   non local SUM 2l+1 LMDIM =     18
   total plane-waves  NPLWV = 204120
   max r-space proj   IRMAX =      1   max aug-charges    IRDMAX=  89713
   dimension x,y,z NGX =    54 NGY =   54 NGZ =   70
   dimension x,y,z NGXF=   108 NGYF=  108 NGZF=  140
   support grid    NGXF=   216 NGYF=  216 NGZF=  280
   ions per type =              27  27
   NGX,Y,Z   is equivalent  to a cutoff of  10.88, 10.88, 11.16 a.u.
   NGXF,Y,Z  is equivalent  to a cutoff of  21.76, 21.76, 22.32 a.u.

 SYSTEM =  AlMn_pv                                 
 POSCAR =  NewRef: 27, @ ['Mn', array([1.37502469, 

 Startparameter for this run:
   NWRITE =      2    write-flag & timer
   PREC   = accura    normal or accurate (medium, high low for compatibility)
   ISTART =      0    job   : 0-new  1-cont  2-samecut
   ICHARG =      2    charge: 1-file 2-atom 10-const
   ISPIN  =      2    spin polarized calculation?
   LNONCOLLINEAR =      F non collinear calculations
   LSORBIT =      F    spin-orbit coupling
   INIWAV =      1    electr: 0-lowe 1-rand  2-diag
   LASPH  =      F    aspherical Exc in radial PAW
   METAGGA=      F    non-selfconsistent MetaGGA calc.

 Electronic Relaxation 1
   ENCUT  =  404.8 eV  29.75 Ry    5.45 a.u.  13.53 13.53 17.11*2*pi/ulx,y,z
   ENINI  =  404.8     initial cutoff
   ENAUG  =  500.7 eV  augmentation charge cutoff
   NELM   =    100;   NELMIN=  4; NELMDL= -8     # of ELM steps 
   EDIFF  = 0.1E-06   stopping-criterion for ELM
   LREAL  =      F    real-space projection
   NLSPLINE    = F    spline interpolate recip. space projectors
   LCOMPAT=      F    compatible to vasp.4.4
   GGA_COMPAT  = T    GGA compatible to vasp.4.4-vasp.4.6
   LMAXPAW     = -100 max onsite density
   LMAXMIX     =    2 max onsite mixed and CHGCAR
   VOSKOWN=      0    Vosko Wilk Nusair interpolation
   ROPT   =    0.00000   0.00000
 Ionic relaxation
   EDIFFG = 0.1E-05   stopping-criterion for IOM
   NSW    =      0    number of steps for IOM
   NBLOCK =      1;   KBLOCK =      1    inner block; outer block 
   IBRION =     -1    ionic relax: 0-MD 1-quasi-New 2-CG
   NFREE  =      0    steps in history (QN), initial steepest desc. (CG)
   ISIF   =      2    stress and relaxation
   IWAVPR =     10    prediction:  0-non 1-charg 2-wave 3-comb
   ISYM   =      2    0-nonsym 1-usesym 2-fastsym
   LCORR  =      T    Harris-Foulkes like correction to forces

   POTIM  = 0.2000    time-step for ionic-motion
   TEIN   =    0.0    initial temperature
   TEBEG  =    0.0;   TEEND  =   0.0 temperature during run
   SMASS  =  -3.00    Nose mass-parameter (am)
   estimated Nose-frequenzy (Omega)   =  0.10E-29 period in steps =****** mass=  -0.156E-26a.u.
   SCALEE = 1.0000    scale energy and forces
   NPACO  =    256;   APACO  = 16.0  distance and # of slots for P.C.
   PSTRESS=    0.0 pullay stress

  Mass of Ions in am
   POMASS =  26.98 54.94
  Ionic Valenz
   ZVAL   =   3.00  7.00
  Atomic Wigner-Seitz radii
   RWIGS  =  -1.00 -1.00
  virtual crystal weights 
   VCA    =   1.00  1.00
   NELECT =     270.0000    total number of electrons
   NUPDOWN=      -1.0000    fix difference up-down

 DOS related values:
   EMIN   =  10.00;   EMAX   =-10.00  energy-range for DOS
   EFERMI =   0.00
   ISMEAR =     1;   SIGMA  =   0.20  broadening in eV -4-tet -1-fermi 0-gaus

 Electronic relaxation 2 (details)
   IALGO  =     58    algorithm
   LDIAG  =      T    sub-space diagonalisation (order eigenvalues)
   LSUBROT=      F    optimize rotation matrix (better conditioning)
   TURBO    =      0    0=normal 1=particle mesh
   IRESTART =      0    0=no restart 2=restart with 2 vectors
   NREBOOT  =      0    no. of reboots
   NMIN     =      0    reboot dimension
   EREF     =   0.00    reference energy to select bands
   IMIX   =      4    mixing-type and parameters
     AMIX     =   0.40;   BMIX     =  1.00
     AMIX_MAG =   1.60;   BMIX_MAG =  1.00
     AMIN     =   0.10
     WC   =   100.;   INIMIX=   1;  MIXPRE=   1;  MAXMIX= -45

 Intra band minimization:
   WEIMIN = 0.0000     energy-eigenvalue tresh-hold
   EBREAK =  0.16E-09  absolut break condition
   DEPER  =   0.30     relativ break condition  

   TIME   =   0.40     timestep for ELM

  volume/ion in A,a.u.               =      13.15        88.72
  Fermi-wavevector in a.u.,A,eV,Ry     =   1.186118  2.241439 19.141722  1.406877
  Thomas-Fermi vector in A             =   2.322298
 
 Write flags
   LWAVE        =      F    write WAVECAR
   LDOWNSAMPLE  =      F    k-point downsampling of WAVECAR
   LCHARG       =      F    write CHGCAR
   LVTOT        =      F    write LOCPOT, total local potential
   LVHAR        =      F    write LOCPOT, Hartree potential only
   LELF         =      F    write electronic localiz. function (ELF)
   LORBIT       =     10    0 simple, 1 ext, 2 COOP (PROOUT), +10 PAW based schemes


 Dipole corrections
   LMONO  =      F    monopole corrections only (constant potential shift)
   LDIPOL =      F    correct potential (dipole corrections)
   IDIPOL =      0    1-x, 2-y, 3-z, 4-all directions 
   EPSILON=  1.0000000 bulk dielectric constant

 Exchange correlation treatment:
   GGA     =    --    GGA type
   LEXCH   =     8    internal setting for exchange type
   VOSKOWN=      0    Vosko Wilk Nusair interpolation
   LHFCALC =     F    Hartree Fock is set to
   LHFONE  =     F    Hartree Fock one center treatment
   AEXX    =    0.0000 exact exchange contribution

 Linear response parameters
   LEPSILON=     F    determine dielectric tensor
   LRPA    =     F    only Hartree local field effects (RPA)
   LNABLA  =     F    use nabla operator in PAW spheres
   LVEL    =     F    velocity operator in full k-point grid
   LINTERFAST=   F  fast interpolation
   KINTER  =     0    interpolate to denser k-point grid
   CSHIFT  =0.1000    complex shift for real part using Kramers Kronig
   OMEGAMAX=  -1.0    maximum frequency
   DEG_THRESHOLD= 0.2000000E-02 threshold for treating states as degnerate
   RTIME   =   -0.100 relaxation time in fs
  (WPLASMAI=    0.000 imaginary part of plasma frequency in eV, 0.658/RTIME)
   DFIELD  = 0.0000000 0.0000000 0.0000000 field for delta impulse in time
 
 Orbital magnetization related:
   ORBITALMAG=     F  switch on orbital magnetization
   LCHIMAG   =     F  perturbation theory with respect to B field
   DQ        =  0.001000  dq finite difference perturbation B field
   LLRAUG    =     F  two centre corrections for induced B field



--------------------------------------------------------------------------------------------------------


 Static calculation
 charge density and potential will be updated during run
 spin polarized calculation
 Conjugate gradient for all bands (Freysoldt, et al. PRB 79, 241103 (2009))
 preconditioned conjugated gradient                                        
 perform sub-space diagonalisation
    before iterative eigenvector-optimisation
 modified Broyden-mixing scheme, WC =      100.0
 initial mixing is a Kerker type mixing with AMIX =  0.4000 and BMIX =      1.0000
 Hartree-type preconditioning will be used
 using additional bands           21
 reciprocal scheme for non local part
 use partial core corrections
 no Harris-corrections to forces 
 use gradient corrections 
 use of overlap-Matrix (Vanderbilt PP)
 Methfessel and Paxton  Order N= 1 SIGMA  =   0.20


--------------------------------------------------------------------------------------------------------


  energy-cutoff  :      404.80
  volume of cell :      709.91
      direct lattice vectors                 reciprocal lattice vectors
     8.250148166  0.000000000  0.000000000     0.121209944  0.000000000  0.000000000
     0.000000000  8.250148166  0.000000000     0.000000000  0.121209944  0.000000000
     0.000000000  0.000000000 10.429911392     0.000000000  0.000000000  0.095878092

  length of vectors
     8.250148166  8.250148166 10.429911392     0.121209944  0.121209944  0.095878092


 
 k-points in units of 2pi/SCALE and weight: automatic KPOINTS                       
   0.00000000  0.00000000  0.00000000       0.010
   0.02424199  0.00000000  0.00000000       0.020
   0.04848398  0.00000000  0.00000000       0.020
   0.00000000  0.02424199  0.00000000       0.020
   0.02424199  0.02424199  0.00000000       0.040
   0.04848398  0.02424199  0.00000000       0.040
   0.00000000  0.04848398  0.00000000       0.020
   0.02424199  0.04848398  0.00000000       0.040
   0.04848398  0.04848398  0.00000000       0.040
   0.00000000  0.00000000  0.02396952       0.020
   0.02424199  0.00000000  0.02396952       0.040
   0.04848398  0.00000000  0.02396952       0.040
   0.00000000  0.02424199  0.02396952       0.040
   0.02424199  0.02424199  0.02396952       0.080
   0.04848398  0.02424199  0.02396952       0.080
   0.00000000  0.04848398  0.02396952       0.040
   0.02424199  0.04848398  0.02396952       0.080
   0.04848398  0.04848398  0.02396952       0.080
   0.00000000  0.00000000  0.04793905       0.010
   0.02424199  0.00000000  0.04793905       0.020
   0.04848398  0.00000000  0.04793905       0.020
   0.00000000  0.02424199  0.04793905       0.020
   0.02424199  0.02424199  0.04793905       0.040
   0.04848398  0.02424199  0.04793905       0.040
   0.00000000  0.04848398  0.04793905       0.020
   0.02424199  0.04848398  0.04793905       0.040
   0.04848398  0.04848398  0.04793905       0.040
 
 k-points in reciprocal lattice and weights: automatic KPOINTS                       
   0.00000000  0.00000000  0.00000000       0.010
   0.20000000  0.00000000  0.00000000       0.020
   0.40000000  0.00000000  0.00000000       0.020
   0.00000000  0.20000000  0.00000000       0.020
   0.20000000  0.20000000  0.00000000       0.040
   0.40000000  0.20000000  0.00000000       0.040
   0.00000000  0.40000000  0.00000000       0.020
   0.20000000  0.40000000  0.00000000       0.040
   0.40000000  0.40000000  0.00000000       0.040
   0.00000000  0.00000000  0.25000000       0.020
   0.20000000  0.00000000  0.25000000       0.040
   0.40000000  0.00000000  0.25000000       0.040
   0.00000000  0.20000000  0.25000000       0.040
   0.20000000  0.20000000  0.25000000       0.080
   0.40000000  0.20000000  0.25000000       0.080
   0.00000000  0.40000000  0.25000000       0.040
   0.20000000  0.40000000  0.25000000       0.080
   0.40000000  0.40000000  0.25000000       0.080
   0.00000000  0.00000000  0.50000000       0.010
   0.20000000  0.00000000  0.50000000       0.020
   0.40000000  0.00000000  0.50000000       0.020
   0.00000000  0.20000000  0.50000000       0.020
   0.20000000  0.20000000  0.50000000       0.040
   0.40000000  0.20000000  0.50000000       0.040
   0.00000000  0.40000000  0.50000000       0.020
   0.20000000  0.40000000  0.50000000       0.040
   0.40000000  0.40000000  0.50000000       0.040
 
 position of ions in fractional coordinates (direct lattice) 
   0.00000000  0.00000000  0.00000000
   0.00000000  0.00000000  0.33333333
   0.00000000  0.00000000  0.66666667
   0.00000000  0.33333333  0.00000000
   0.00000000  0.33333333  0.33333333
   0.00000000  0.33333333  0.66666667
   0.00000000  0.66666667  0.00000000
   0.00000000  0.66666667  0.33333333
   0.00000000  0.66666667  0.66666667
   0.33333333  0.00000000  0.00000000
   0.33333333  0.00000000  0.33333333
   0.33333333  0.00000000  0.66666667
   0.33333333  0.33333333  0.00000000
   0.33333333  0.33333333  0.33333333
   0.33333333  0.33333333  0.66666667
   0.33333333  0.66666667  0.00000000
   0.33333333  0.66666667  0.33333333
   0.33333333  0.66666667  0.66666667
   0.66666667  0.00000000  0.00000000
   0.66666667  0.00000000  0.33333333
   0.66666667  0.00000000  0.66666667
   0.66666667  0.33333333  0.00000000
   0.66666667  0.33333333  0.33333333
   0.66666667  0.33333333  0.66666667
   0.66666667  0.66666667  0.00000000
   0.66666667  0.66666667  0.33333333
   0.66666667  0.66666667  0.66666667
   0.16666667  0.16666667  0.16666667
   0.16666667  0.16666667  0.50000000
   0.16666667  0.16666667  0.83333333
   0.16666667  0.50000000  0.16666667
   0.16666667  0.50000000  0.50000000
   0.16666667  0.50000000  0.83333333
   0.16666667  0.83333333  0.16666667
   0.16666667  0.83333333  0.50000000
   0.16666667  0.83333333  0.83333333
   0.50000000  0.16666667  0.16666667
   0.50000000  0.16666667  0.50000000
   0.50000000  0.16666667  0.83333333
   0.50000000  0.50000000  0.16666667
   0.50000000  0.50000000  0.50000000
   0.50000000  0.50000000  0.83333333
   0.50000000  0.83333333  0.16666667
   0.50000000  0.83333333  0.50000000
   0.50000000  0.83333333  0.83333333
   0.83333333  0.16666667  0.16666667
   0.83333333  0.16666667  0.50000000
   0.83333333  0.16666667  0.83333333
   0.83333333  0.50000000  0.16666667
   0.83333333  0.50000000  0.50000000
   0.83333333  0.50000000  0.83333333
   0.83333333  0.83333333  0.16666667
   0.83333333  0.83333333  0.50000000
   0.83333333  0.83333333  0.83333333
 
 position of ions in cartesian coordinates  (Angst):
   0.00000000  0.00000000  0.00000000
   0.00000000  0.00000000  3.47663713
   0.00000000  0.00000000  6.95327426
   0.00000000  2.75004939  0.00000000
   0.00000000  2.75004939  3.47663713
   0.00000000  2.75004939  6.95327426
   0.00000000  5.50009878  0.00000000
   0.00000000  5.50009878  3.47663713
   0.00000000  5.50009878  6.95327426
   2.75004939  0.00000000  0.00000000
   2.75004939  0.00000000  3.47663713
   2.75004939  0.00000000  6.95327426
   2.75004939  2.75004939  0.00000000
   2.75004939  2.75004939  3.47663713
   2.75004939  2.75004939  6.95327426
   2.75004939  5.50009878  0.00000000
   2.75004939  5.50009878  3.47663713
   2.75004939  5.50009878  6.95327426
   5.50009878  0.00000000  0.00000000
   5.50009878  0.00000000  3.47663713
   5.50009878  0.00000000  6.95327426
   5.50009878  2.75004939  0.00000000
   5.50009878  2.75004939  3.47663713
   5.50009878  2.75004939  6.95327426
   5.50009878  5.50009878  0.00000000
   5.50009878  5.50009878  3.47663713
   5.50009878  5.50009878  6.95327426
   1.37502469  1.37502469  1.73831857
   1.37502469  1.37502469  5.21495570
   1.37502469  1.37502469  8.69159283
   1.37502469  4.12507408  1.73831857
   1.37502469  4.12507408  5.21495570
   1.37502469  4.12507408  8.69159283
   1.37502469  6.87512347  1.73831857
   1.37502469  6.87512347  5.21495570
   1.37502469  6.87512347  8.69159283
   4.12507408  1.37502469  1.73831857
   4.12507408  1.37502469  5.21495570
   4.12507408  1.37502469  8.69159283
   4.12507408  4.12507408  1.73831857
   4.12507408  4.12507408  5.21495570
   4.12507408  4.12507408  8.69159283
   4.12507408  6.87512347  1.73831857
   4.12507408  6.87512347  5.21495570
   4.12507408  6.87512347  8.69159283
   6.87512347  1.37502469  1.73831857
   6.87512347  1.37502469  5.21495570
   6.87512347  1.37502469  8.69159283
   6.87512347  4.12507408  1.73831857
   6.87512347  4.12507408  5.21495570
   6.87512347  4.12507408  8.69159283
   6.87512347  6.87512347  1.73831857
   6.87512347  6.87512347  5.21495570
   6.87512347  6.87512347  8.69159283
 


--------------------------------------------------------------------------------------------------------


 k-point  1 :   0.0000 0.0000 0.0000  plane waves:   13099
 k-point  2 :   0.2000 0.0000 0.0000  plane waves:   13101
 k-point  3 :   0.4000 0.0000 0.0000  plane waves:   13111
 k-point  4 :   0.0000 0.2000 0.0000  plane waves:   13101
 k-point  5 :   0.2000 0.2000 0.0000  plane waves:   13137
 k-point  6 :   0.4000 0.2000 0.0000  plane waves:   13119
 k-point  7 :   0.0000 0.4000 0.0000  plane waves:   13111
 k-point  8 :   0.2000 0.4000 0.0000  plane waves:   13119
 k-point  9 :   0.4000 0.4000 0.0000  plane waves:   13129
 k-point 10 :   0.0000 0.0000 0.2500  plane waves:   13134
 k-point 11 :   0.2000 0.0000 0.2500  plane waves:   13149
 k-point 12 :   0.4000 0.0000 0.2500  plane waves:   13119
 k-point 13 :   0.0000 0.2000 0.2500  plane waves:   13149
 k-point 14 :   0.2000 0.2000 0.2500  plane waves:   13145
 k-point 15 :   0.4000 0.2000 0.2500  plane waves:   13134
 k-point 16 :   0.0000 0.4000 0.2500  plane waves:   13119
 k-point 17 :   0.2000 0.4000 0.2500  plane waves:   13134
 k-point 18 :   0.4000 0.4000 0.2500  plane waves:   13108
 k-point 19 :   0.0000 0.0000 0.5000  plane waves:   13186
 k-point 20 :   0.2000 0.0000 0.5000  plane waves:   13124
 k-point 21 :   0.4000 0.0000 0.5000  plane waves:   13152
 k-point 22 :   0.0000 0.2000 0.5000  plane waves:   13124
 k-point 23 :   0.2000 0.2000 0.5000  plane waves:   13136
 k-point 24 :   0.4000 0.2000 0.5000  plane waves:   13128
 k-point 25 :   0.0000 0.4000 0.5000  plane waves:   13152
 k-point 26 :   0.2000 0.4000 0.5000  plane waves:   13128
 k-point 27 :   0.4000 0.4000 0.5000  plane waves:   13112

 maximum and minimum number of plane-waves per node :      3304     3246

 maximum number of plane-waves:     13186
 maximum index in each direction: 
   IXMAX=   13   IYMAX=   13   IZMAX=   17
   IXMIN=  -13   IYMIN=  -13   IZMIN=  -17


 parallel 3D FFT for wavefunctions:
    minimum data exchange during FFTs selected (reduces bandwidth)
 parallel 3D FFT for charge:
    minimum data exchange during FFTs selected (reduces bandwidth)


 total amount of memory used by VASP MPI-rank0   815466. kBytes
=======================================================================

   base      :      30000. kBytes
   nonl-proj :      28494. kBytes
   fftplans  :      31580. kBytes
   grid      :      21385. kBytes
   one-center:        435. kBytes
   wavefun   :     703572. kBytes
 
     INWAV:  cpu time    0.0000: real time    0.0000
 Broyden mixing: mesh for mixing (old mesh)
   NGX = 27   NGY = 27   NGZ = 35
  (NGX  =108   NGY  =108   NGZ  =140)
  gives a total of  25515 points

 initial charge density was supplied:
 charge density of overlapping atoms calculated
 number of electron     270.0000000 magnetization     -15.0000000
 keeping initial charge density in first step


--------------------------------------------------------------------------------------------------------


 Maximum index for augmentation-charges        10967 (set IRDMAX)


--------------------------------------------------------------------------------------------------------


 First call to EWALD:  gamma=   0.199
 Maximum number of real-space cells 3x 3x 2
 Maximum number of reciprocal cells 3x 3x 3

    FEWALD:  cpu time    0.0153: real time    0.0153


--------------------------------------- Iteration      1(   1)  ---------------------------------------


    POTLOK:  cpu time    0.4228: real time    0.4238
    SETDIJ:  cpu time    0.4496: real time    0.4599
    TRIAL :  cpu time   27.1907: real time   27.4400
    CORREC:  cpu time    0.0049: real time    0.0058
    --------------------------------------------
      LOOP:  cpu time   28.3070: real time   28.5755

 eigenvalue-minimisations  : 16848
 total energy-change (2. order) : 0.2088926E+04  (-0.8616052E+04)
 number of electron     270.0000000 magnetization     -15.0000000
 augmentation part      270.0000000 magnetization     -15.0000000

 Free energy of the ion-electron system (eV)
  ---------------------------------------------------
  alpha Z        PSCENC =       798.38614055
  Ewald energy   TEWEN  =    -12901.57693327
  -Hartree energ DENC   =     -2855.60785864
  -exchange      EXHF   =         0.00000000
  -V(xc)+E(xc)   XCENC  =      -996.06378194
  PAW double counting   =     12741.82587617   -11476.22345381
  entropy T*S    EENTRO =        -0.00694414
  eigenvalues    EBANDS =      4080.51927402
  atomic energy  EATOM  =     12697.67401269
  ---------------------------------------------------
  free energy    TOTEN  =      2088.92633162 eV

  energy without entropy =     2088.93327576  energy(sigma->0) =     2088.92864633


--------------------------------------------------------------------------------------------------------




--------------------------------------- Iteration      1(   2)  ---------------------------------------


    TRIAL :  cpu time   27.9168: real time   28.1307
    CORREC:  cpu time    0.0061: real time    0.0062
    --------------------------------------------
      LOOP:  cpu time   27.9243: real time   28.1402

 eigenvalue-minimisations  : 16848
 total energy-change (2. order) :-0.2126079E+04  (-0.2097763E+04)
 number of electron     270.0000000 magnetization     -15.0000000
 augmentation part      270.0000000 magnetization     -15.0000000

 Free energy of the ion-electron system (eV)
  ---------------------------------------------------
  alpha Z        PSCENC =       798.38614055
  Ewald energy   TEWEN  =    -12901.57693327
  -Hartree energ DENC   =     -2855.60785864
  -exchange      EXHF   =         0.00000000
  -V(xc)+E(xc)   XCENC  =      -996.06378194
  PAW double counting   =     12741.82587617   -11476.22345381
  entropy T*S    EENTRO =         0.00302983
  eigenvalues    EBANDS =      1954.43056677
  atomic energy  EATOM  =     12697.67401269
  ---------------------------------------------------
  free energy    TOTEN  =       -37.15240166 eV

  energy without entropy =      -37.15543149  energy(sigma->0) =      -37.15341160


--------------------------------------------------------------------------------------------------------




--------------------------------------- Iteration      1(   3)  ---------------------------------------


    TRIAL :  cpu time   37.9496: real time   38.2537
    CORREC:  cpu time    0.0074: real time    0.0082
    --------------------------------------------
      LOOP:  cpu time   37.9592: real time   38.2655

 eigenvalue-minimisations  : 25604
 total energy-change (2. order) :-0.3023818E+03  (-0.2798050E+03)
 number of electron     270.0000000 magnetization     -15.0000000
 augmentation part      270.0000000 magnetization     -15.0000000

 Free energy of the ion-electron system (eV)
  ---------------------------------------------------
  alpha Z        PSCENC =       798.38614055
  Ewald energy   TEWEN  =    -12901.57693327
  -Hartree energ DENC   =     -2855.60785864
  -exchange      EXHF   =         0.00000000
  -V(xc)+E(xc)   XCENC  =      -996.06378194
  PAW double counting   =     12741.82587617   -11476.22345381
  entropy T*S    EENTRO =         0.00738176
  eigenvalues    EBANDS =      1652.04440484
  atomic energy  EATOM  =     12697.67401269
  ---------------------------------------------------
  free energy    TOTEN  =      -339.53421166 eV

  energy without entropy =     -339.54159342  energy(sigma->0) =     -339.53667225


--------------------------------------------------------------------------------------------------------




--------------------------------------- Iteration      1(   4)  ---------------------------------------


    TRIAL :  cpu time   40.6632: real time   40.9561
    CORREC:  cpu time    0.0077: real time    0.0086
    --------------------------------------------
      LOOP:  cpu time   40.6731: real time   40.9683

 eigenvalue-minimisations  : 27456
 total energy-change (2. order) :-0.5572398E+02  (-0.5101766E+02)
 number of electron     270.0000000 magnetization     -15.0000000
 augmentation part      270.0000000 magnetization     -15.0000000

 Free energy of the ion-electron system (eV)
  ---------------------------------------------------
  alpha Z        PSCENC =       798.38614055
  Ewald energy   TEWEN  =    -12901.57693327
  -Hartree energ DENC   =     -2855.60785864
  -exchange      EXHF   =         0.00000000
  -V(xc)+E(xc)   XCENC  =      -996.06378194
  PAW double counting   =     12741.82587617   -11476.22345381
  entropy T*S    EENTRO =         0.02613825
  eigenvalues    EBANDS =      1596.30166937
  atomic energy  EATOM  =     12697.67401269
  ---------------------------------------------------
  free energy    TOTEN  =      -395.25819064 eV

  energy without entropy =     -395.28432889  energy(sigma->0) =     -395.26690339


--------------------------------------------------------------------------------------------------------




--------------------------------------- Iteration      1(   5)  ---------------------------------------


    TRIAL :  cpu time   42.2665: real time   42.5965
    CORREC:  cpu time    0.0076: real time    0.0078
    --------------------------------------------
      LOOP:  cpu time   42.2759: real time   42.6078

 eigenvalue-minimisations  : 28704
 total energy-change (2. order) :-0.7877646E+01  (-0.7470510E+01)
 number of electron     270.0000000 magnetization     -15.0000000
 augmentation part      270.0000000 magnetization     -15.0000000

 Free energy of the ion-electron system (eV)
  ---------------------------------------------------
  alpha Z        PSCENC =       798.38614055
  Ewald energy   TEWEN  =    -12901.57693327
  -Hartree energ DENC   =     -2855.60785864
  -exchange      EXHF   =         0.00000000
  -V(xc)+E(xc)   XCENC  =      -996.06378194
  PAW double counting   =     12741.82587617   -11476.22345381
  entropy T*S    EENTRO =         0.03264684
  eigenvalues    EBANDS =      1588.41751515
  atomic energy  EATOM  =     12697.67401269
  ---------------------------------------------------
  free energy    TOTEN  =      -403.13583627 eV

  energy without entropy =     -403.16848311  energy(sigma->0) =     -403.14671855


--------------------------------------------------------------------------------------------------------




--------------------------------------- Iteration      1(   6)  ---------------------------------------


    TRIAL :  cpu time   41.6595: real time   41.9327
    CORREC:  cpu time    0.0077: real time    0.0086
    --------------------------------------------
      LOOP:  cpu time   41.6682: real time   41.9445

 eigenvalue-minimisations  : 28424
 total energy-change (2. order) :-0.8881948E+00  (-0.8510855E+00)
 number of electron     270.0000000 magnetization     -15.0000000
 augmentation part      270.0000000 magnetization     -15.0000000

 Free energy of the ion-electron system (eV)
  ---------------------------------------------------
  alpha Z        PSCENC =       798.38614055
  Ewald energy   TEWEN  =    -12901.57693327
  -Hartree energ DENC   =     -2855.60785864
  -exchange      EXHF   =         0.00000000
  -V(xc)+E(xc)   XCENC  =      -996.06378194
  PAW double counting   =     12741.82587617   -11476.22345381
  entropy T*S    EENTRO =         0.03971717
  eigenvalues    EBANDS =      1587.52225004
  atomic energy  EATOM  =     12697.67401269
  ---------------------------------------------------
  free energy    TOTEN  =      -404.02403105 eV

  energy without entropy =     -404.06374822  energy(sigma->0) =     -404.03727011


--------------------------------------------------------------------------------------------------------




--------------------------------------- Iteration      1(   7)  ---------------------------------------


    TRIAL :  cpu time   42.7517: real time   43.1268
    CORREC:  cpu time    0.0079: real time    0.0088
    --------------------------------------------
      LOOP:  cpu time   42.7606: real time   43.1396

 eigenvalue-minimisations  : 29024
 total energy-change (2. order) :-0.1360718E+00  (-0.1312627E+00)
 number of electron     270.0000000 magnetization     -15.0000000
 augmentation part      270.0000000 magnetization     -15.0000000

 Free energy of the ion-electron system (eV)
  ---------------------------------------------------
  alpha Z        PSCENC =       798.38614055
  Ewald energy   TEWEN  =    -12901.57693327
  -Hartree energ DENC   =     -2855.60785864
  -exchange      EXHF   =         0.00000000
  -V(xc)+E(xc)   XCENC  =      -996.06378194
  PAW double counting   =     12741.82587617   -11476.22345381
  entropy T*S    EENTRO =         0.04289743
  eigenvalues    EBANDS =      1587.38299796
  atomic energy  EATOM  =     12697.67401269
  ---------------------------------------------------
  free energy    TOTEN  =      -404.16010287 eV

  energy without entropy =     -404.20300030  energy(sigma->0) =     -404.17440201


--------------------------------------------------------------------------------------------------------




--------------------------------------- Iteration      1(   8)  ---------------------------------------


    TRIAL :  cpu time   41.1224: real time   41.5166
    CORREC:  cpu time    0.0078: real time    0.0087
    CHARGE:  cpu time    1.4470: real time    1.4471
    --------------------------------------------
      LOOP:  cpu time   42.5794: real time   42.9767

 eigenvalue-minimisations  : 27856
 total energy-change (2. order) :-0.2375572E-01  (-0.2305701E-01)
 number of electron     269.9999995 magnetization     -10.3352434
 augmentation part       64.2122649 magnetization      -6.0049091

 Free energy of the ion-electron system (eV)
  ---------------------------------------------------
  alpha Z        PSCENC =       798.38614055
  Ewald energy   TEWEN  =    -12901.57693327
  -Hartree energ DENC   =     -2855.60785864
  -exchange      EXHF   =         0.00000000
  -V(xc)+E(xc)   XCENC  =      -996.06378194
  PAW double counting   =     12741.82587617   -11476.22345381
  entropy T*S    EENTRO =         0.04444451
  eigenvalues    EBANDS =      1587.35769516
  atomic energy  EATOM  =     12697.67401269
  ---------------------------------------------------
  free energy    TOTEN  =      -404.18385859 eV

  energy without entropy =     -404.22830310  energy(sigma->0) =     -404.19867343


--------------------------------------------------------------------------------------------------------




--------------------------------------- Iteration      1(   9)  ---------------------------------------


    POTLOK:  cpu time    0.3947: real time    0.4005
    SETDIJ:  cpu time    0.4742: real time    0.4743
    TRIAL :  cpu time   13.7419: real time   13.8124
    CORREC:  cpu time    4.5297: real time    4.5807
    CHARGE:  cpu time    1.4558: real time    1.5084
    --------------------------------------------
      LOOP:  cpu time   20.5982: real time   20.7790

 eigenvalue-minimisations  :     0
 total energy-change (2. order) : 0.2994435E+03  (-0.2191031E+03)
 number of electron     269.9999993 magnetization     -10.8382075
 augmentation part       82.6692236 magnetization      -7.2171791

 Free energy of the ion-electron system (eV)
  ---------------------------------------------------
  alpha Z        PSCENC =       798.38614055
  Ewald energy   TEWEN  =    -12901.57693327
  -Hartree energ DENC   =     -1273.12656081
  -exchange      EXHF   =         0.00000000
  -V(xc)+E(xc)   XCENC  =     -1041.63135274
  PAW double counting   =     19169.35470995   -17749.84357089
  entropy T*S    EENTRO =         0.02874499
  eigenvalues    EBANDS =       195.97871456
  atomic energy  EATOM  =     12697.67401269
  ---------------------------------------------------
  free energy    TOTEN  =      -104.74039545 eV

  energy without entropy =     -104.76914044  energy(sigma->0) =     -104.74997712


--------------------------------------------------------------------------------------------------------




--------------------------------------- Iteration      1(  10)  ---------------------------------------


    POTLOK:  cpu time    0.3949: real time    0.3948
    SETDIJ:  cpu time    0.4743: real time    0.4745
    TRIAL :  cpu time   14.2939: real time   14.3189
    CORREC:  cpu time    4.4873: real time    4.5092
    CHARGE:  cpu time    2.3641: real time    2.3864
    --------------------------------------------
      LOOP:  cpu time   22.0161: real time   22.0863

 eigenvalue-minimisations  :     0
 total energy-change (2. order) :-0.2137810E+03  (-0.1204687E+02)
 number of electron     269.9999993 magnetization     -11.0823943
 augmentation part       86.7056128 magnetization      -7.4997083

 Free energy of the ion-electron system (eV)
  ---------------------------------------------------
  alpha Z        PSCENC =       798.38614055
  Ewald energy   TEWEN  =    -12901.57693327
  -Hartree energ DENC   =     -2114.97399062
  -exchange      EXHF   =         0.00000000
  -V(xc)+E(xc)   XCENC  =     -1012.31428672
  PAW double counting   =     20650.26275785   -19413.25745685
  entropy T*S    EENTRO =         0.02089905
  eigenvalues    EBANDS =       977.24956738
  atomic energy  EATOM  =     12697.67401269
  ---------------------------------------------------
  free energy    TOTEN  =      -318.52144400 eV

  energy without entropy =     -318.54234305  energy(sigma->0) =     -318.52841035


--------------------------------------------------------------------------------------------------------




--------------------------------------- Iteration      1(  11)  ---------------------------------------


    POTLOK:  cpu time    0.3943: real time    0.3943
    SETDIJ:  cpu time    0.4985: real time    0.4986
    TRIAL :  cpu time   13.5365: real time   13.7771
    CORREC:  cpu time    4.4717: real time    4.4981
    CHARGE:  cpu time    1.4428: real time    1.4433
    --------------------------------------------
      LOOP:  cpu time   20.3900: real time   20.6580

 eigenvalue-minimisations  :     0
 total energy-change (2. order) :-0.1150859E+02  (-0.1126036E+02)
 number of electron     269.9999993 magnetization     -11.0730539
 augmentation part       89.0392352 magnetization      -7.7238943

 Free energy of the ion-electron system (eV)
  ---------------------------------------------------
  alpha Z        PSCENC =       798.38614055
  Ewald energy   TEWEN  =    -12901.57693327
  -Hartree energ DENC   =     -2355.14148253
  -exchange      EXHF   =         0.00000000
  -V(xc)+E(xc)   XCENC  =     -1003.45656243
  PAW double counting   =     21585.07150301   -20388.02136765
  entropy T*S    EENTRO =         0.02309540
  eigenvalues    EBANDS =      1237.01375674
  atomic energy  EATOM  =     12697.67401269
  ---------------------------------------------------
  free energy    TOTEN  =      -330.03003384 eV

  energy without entropy =     -330.05312924  energy(sigma->0) =     -330.03773231


--------------------------------------------------------------------------------------------------------




--------------------------------------- Iteration      1(  12)  ---------------------------------------


    POTLOK:  cpu time    0.3952: real time    0.3952
    SETDIJ:  cpu time    0.4916: real time    0.5029
    TRIAL :  cpu time   13.6650: real time   13.7521
    CORREC:  cpu time    4.5226: real time    4.6010
    CHARGE:  cpu time    1.4429: real time    1.4440
    --------------------------------------------
      LOOP:  cpu time   20.5221: real time   20.7008

 eigenvalue-minimisations  :     0
 total energy-change (2. order) :-0.1132334E+02  (-0.1149611E+02)
 number of electron     269.9999993 magnetization     -11.3330122
 augmentation part       86.7501186 magnetization      -7.8477194

 Free energy of the ion-electron system (eV)
  ---------------------------------------------------
  alpha Z        PSCENC =       798.38614055
  Ewald energy   TEWEN  =    -12901.57693327
  -Hartree energ DENC   =     -2553.05327088
  -exchange      EXHF   =         0.00000000
  -V(xc)+E(xc)   XCENC  =      -996.75237457
  PAW double counting   =     21822.99330955   -20635.31379668
  entropy T*S    EENTRO =        -0.00162771
  eigenvalues    EBANDS =      1426.26643939
  atomic energy  EATOM  =     12697.67401269
  ---------------------------------------------------
  free energy    TOTEN  =      -341.35337782 eV

  energy without entropy =     -341.35175011  energy(sigma->0) =     -341.35283525


--------------------------------------------------------------------------------------------------------




--------------------------------------- Iteration      1(  13)  ---------------------------------------


    POTLOK:  cpu time    0.3928: real time    0.3934
    SETDIJ:  cpu time    0.4984: real time    0.4995
    TRIAL :  cpu time   14.3522: real time   14.3843
    CORREC:  cpu time    5.2413: real time    5.2660
    CHARGE:  cpu time    1.4497: real time    1.4505
    --------------------------------------------
      LOOP:  cpu time   21.9371: real time   21.9989

 eigenvalue-minimisations  :     0
 total energy-change (2. order) :-0.1136367E+02  (-0.8983859E+00)
 number of electron     269.9999993 magnetization     -11.5120155
 augmentation part       86.1484903 magnetization      -7.8396193

 Free energy of the ion-electron system (eV)
  ---------------------------------------------------
  alpha Z        PSCENC =       798.38614055
  Ewald energy   TEWEN  =    -12901.57693327
  -Hartree energ DENC   =     -2516.99470477
  -exchange      EXHF   =         0.00000000
  -V(xc)+E(xc)   XCENC  =      -998.91649923
  PAW double counting   =     21289.80537491   -20051.61808426
  entropy T*S    EENTRO =        -0.00769454
  eigenvalues    EBANDS =      1330.52526932
  atomic energy  EATOM  =     12697.67401269
  ---------------------------------------------------
  free energy    TOTEN  =      -352.71705177 eV

  energy without entropy =     -352.70935723  energy(sigma->0) =     -352.71448692


--------------------------------------------------------------------------------------------------------




--------------------------------------- Iteration      1(  14)  ---------------------------------------


    POTLOK:  cpu time    0.3937: real time    0.3937
    SETDIJ:  cpu time    0.4089: real time    0.5142
    TRIAL :  cpu time   13.5719: real time   13.7508
    CORREC:  cpu time    4.5138: real time    4.5239
    CHARGE:  cpu time    1.4433: real time    1.4436
    --------------------------------------------
      LOOP:  cpu time   20.3349: real time   20.6301

 eigenvalue-minimisations  :     0
 total energy-change (2. order) :-0.8954143E+00  (-0.1232687E+01)
 number of electron     269.9999993 magnetization     -11.4494416
 augmentation part       85.9075954 magnetization      -7.7383150

 Free energy of the ion-electron system (eV)
  ---------------------------------------------------
  alpha Z        PSCENC =       798.38614055
  Ewald energy   TEWEN  =    -12901.57693327
  -Hartree energ DENC   =     -2483.24996775
  -exchange      EXHF   =         0.00000000
  -V(xc)+E(xc)   XCENC  =     -1000.20958833
  PAW double counting   =     20873.28594208   -19625.08147133
  entropy T*S    EENTRO =        -0.01014910
  eigenvalues    EBANDS =      1287.16709386
  atomic energy  EATOM  =     12697.67401269
  ---------------------------------------------------
  free energy    TOTEN  =      -353.61246605 eV

  energy without entropy =     -353.60231695  energy(sigma->0) =     -353.60908302


--------------------------------------------------------------------------------------------------------




--------------------------------------- Iteration      1(  15)  ---------------------------------------


    POTLOK:  cpu time    0.3948: real time    0.3948
    SETDIJ:  cpu time    0.4857: real time    0.4924
    TRIAL :  cpu time   13.5570: real time   13.7133
    CORREC:  cpu time    4.5344: real time    4.5578
    CHARGE:  cpu time    1.4230: real time    1.4230
    --------------------------------------------
      LOOP:  cpu time   20.3961: real time   20.5836

 eigenvalue-minimisations  :     0
 total energy-change (2. order) :-0.1228167E+01  (-0.6237335E+00)
 number of electron     269.9999993 magnetization     -11.4003428
 augmentation part       86.7362410 magnetization      -7.7472773

 Free energy of the ion-electron system (eV)
  ---------------------------------------------------
  alpha Z        PSCENC =       798.38614055
  Ewald energy   TEWEN  =    -12901.57693327
  -Hartree energ DENC   =     -2457.48950944
  -exchange      EXHF   =         0.00000000
  -V(xc)+E(xc)   XCENC  =     -1001.28554516
  PAW double counting   =     20062.90951841   -18806.29184823
  entropy T*S    EENTRO =        -0.01415519
  eigenvalues    EBANDS =      1252.84368069
  atomic energy  EATOM  =     12697.67401269
  ---------------------------------------------------
  free energy    TOTEN  =      -354.84063286 eV

  energy without entropy =     -354.82647767  energy(sigma->0) =     -354.83591446


--------------------------------------------------------------------------------------------------------




--------------------------------------- Iteration      1(  16)  ---------------------------------------


    POTLOK:  cpu time    0.3942: real time    0.3943
    SETDIJ:  cpu time    0.4715: real time    0.4830
    TRIAL :  cpu time   15.1916: real time   15.2874
    CORREC:  cpu time    4.5201: real time    4.6112
    CHARGE:  cpu time    1.4251: real time    1.4837
    --------------------------------------------
      LOOP:  cpu time   22.0061: real time   22.2641

 eigenvalue-minimisations  :     0
 total energy-change (2. order) :-0.6267007E+00  (-0.2317290E+00)
 number of electron     269.9999992 magnetization     -11.5013323
 augmentation part       87.1970289 magnetization      -7.8057938

 Free energy of the ion-electron system (eV)
  ---------------------------------------------------
  alpha Z        PSCENC =       798.38614055
  Ewald energy   TEWEN  =    -12901.57693327
  -Hartree energ DENC   =     -2491.23290887
  -exchange      EXHF   =         0.00000000
  -V(xc)+E(xc)   XCENC  =     -1000.05559520
  PAW double counting   =     19709.44512531   -18459.37247680
  entropy T*S    EENTRO =        -0.01543523
  eigenvalues    EBANDS =      1291.27945722
  atomic energy  EATOM  =     12697.67401269
  ---------------------------------------------------
  free energy    TOTEN  =      -355.46733357 eV

  energy without entropy =     -355.45189833  energy(sigma->0) =     -355.46218849


--------------------------------------------------------------------------------------------------------




--------------------------------------- Iteration      1(  17)  ---------------------------------------


    POTLOK:  cpu time    0.3943: real time    0.3943
    SETDIJ:  cpu time    0.4787: real time    0.4787
    TRIAL :  cpu time   13.5872: real time   13.6953
    CORREC:  cpu time    4.5520: real time    4.5754
    CHARGE:  cpu time    1.4081: real time    1.4826
    --------------------------------------------
      LOOP:  cpu time   20.4227: real time   20.6293

 eigenvalue-minimisations  :     0
 total energy-change (2. order) :-0.2324680E+00  (-0.3603542E+00)
 number of electron     269.9999992 magnetization     -11.4537069
 augmentation part       87.2365987 magnetization      -7.8841082

 Free energy of the ion-electron system (eV)
  ---------------------------------------------------
  alpha Z        PSCENC =       798.38614055
  Ewald energy   TEWEN  =    -12901.57693327
  -Hartree energ DENC   =     -2511.57678721
  -exchange      EXHF   =         0.00000000
  -V(xc)+E(xc)   XCENC  =      -999.19122225
  PAW double counting   =     19609.03577294   -18363.42918021
  entropy T*S    EENTRO =        -0.01725600
  eigenvalues    EBANDS =      1314.99383039
  atomic energy  EATOM  =     12697.67401269
  ---------------------------------------------------
  free energy    TOTEN  =      -355.69980160 eV

  energy without entropy =     -355.68254560  energy(sigma->0) =     -355.69404960


--------------------------------------------------------------------------------------------------------




--------------------------------------- Iteration      1(  18)  ---------------------------------------


    POTLOK:  cpu time    0.3956: real time    0.3956
    SETDIJ:  cpu time    0.4619: real time    0.4619
    TRIAL :  cpu time   13.6570: real time   13.7621
    CORREC:  cpu time    4.4831: real time    4.4929
    CHARGE:  cpu time    1.4219: real time    1.4219
    --------------------------------------------
      LOOP:  cpu time   20.4387: real time   20.5544

 eigenvalue-minimisations  :     0
 total energy-change (2. order) :-0.3604955E+00  (-0.9492433E-01)
 number of electron     269.9999992 magnetization     -11.4716598
 augmentation part       87.0328556 magnetization      -7.9181311

 Free energy of the ion-electron system (eV)
  ---------------------------------------------------
  alpha Z        PSCENC =       798.38614055
  Ewald energy   TEWEN  =    -12901.57693327
  -Hartree energ DENC   =     -2508.91098078
  -exchange      EXHF   =         0.00000000
  -V(xc)+E(xc)   XCENC  =      -998.86011217
  PAW double counting   =     19480.67270108   -18235.24714198
  entropy T*S    EENTRO =        -0.01825205
  eigenvalues    EBANDS =      1311.81927277
  atomic energy  EATOM  =     12697.67401269
  ---------------------------------------------------
  free energy    TOTEN  =      -356.06029710 eV

  energy without entropy =     -356.04204505  energy(sigma->0) =     -356.05421308


--------------------------------------------------------------------------------------------------------




--------------------------------------- Iteration      1(  19)  ---------------------------------------


    POTLOK:  cpu time    0.3937: real time    0.3938
    SETDIJ:  cpu time    0.4601: real time    0.4601
    TRIAL :  cpu time   14.3540: real time   14.3947
    CORREC:  cpu time    4.5061: real time    4.5836
    CHARGE:  cpu time    1.4380: real time    1.4526
    --------------------------------------------
      LOOP:  cpu time   21.1884: real time   21.3231

 eigenvalue-minimisations  :     0
 total energy-change (2. order) :-0.9462437E-01  (-0.8079687E-01)
 number of electron     269.9999992 magnetization     -11.4991830
 augmentation part       86.7878845 magnetization      -7.9496707

 Free energy of the ion-electron system (eV)
  ---------------------------------------------------
  alpha Z        PSCENC =       798.38614055
  Ewald energy   TEWEN  =    -12901.57693327
  -Hartree energ DENC   =     -2498.00211980
  -exchange      EXHF   =         0.00000000
  -V(xc)+E(xc)   XCENC  =      -999.11996793
  PAW double counting   =     19447.00564068   -18199.42714993
  entropy T*S    EENTRO =        -0.01844429
  eigenvalues    EBANDS =      1298.92370760
  atomic energy  EATOM  =     12697.67401269
  ---------------------------------------------------
  free energy    TOTEN  =      -356.15492147 eV

  energy without entropy =     -356.13647718  energy(sigma->0) =     -356.14877337


--------------------------------------------------------------------------------------------------------




--------------------------------------- Iteration      1(  20)  ---------------------------------------


    POTLOK:  cpu time    0.3949: real time    0.3948
    SETDIJ:  cpu time    0.4731: real time    0.4732
    TRIAL :  cpu time   13.5829: real time   13.6790
    CORREC:  cpu time    4.6301: real time    4.6591
    CHARGE:  cpu time    1.4192: real time    1.4357
    --------------------------------------------
      LOOP:  cpu time   20.5043: real time   20.6470

 eigenvalue-minimisations  :     0
 total energy-change (2. order) :-0.8073251E-01  (-0.1108852E+00)
 number of electron     269.9999992 magnetization     -11.5094685
 augmentation part       86.7456364 magnetization      -8.0001598

 Free energy of the ion-electron system (eV)
  ---------------------------------------------------
  alpha Z        PSCENC =       798.38614055
  Ewald energy   TEWEN  =    -12901.57693327
  -Hartree energ DENC   =     -2487.18471599
  -exchange      EXHF   =         0.00000000
  -V(xc)+E(xc)   XCENC  =      -999.39911104
  PAW double counting   =     19426.97884888   -18176.99230433
  entropy T*S    EENTRO =        -0.01936718
  eigenvalues    EBANDS =      1285.89685282
  atomic energy  EATOM  =     12697.67401269
  ---------------------------------------------------
  free energy    TOTEN  =      -356.23565398 eV

  energy without entropy =     -356.21628680  energy(sigma->0) =     -356.22919825


--------------------------------------------------------------------------------------------------------




--------------------------------------- Iteration      1(  21)  ---------------------------------------


    POTLOK:  cpu time    0.3937: real time    0.3940
    SETDIJ:  cpu time    0.4730: real time    0.4729
    TRIAL :  cpu time   13.6332: real time   13.7233
    CORREC:  cpu time    4.5509: real time    4.5610
    CHARGE:  cpu time    1.6502: real time    1.6503
    --------------------------------------------
      LOOP:  cpu time   20.7029: real time   20.8039

 eigenvalue-minimisations  :     0
 total energy-change (2. order) :-0.1108817E+00  (-0.5894281E-01)
 number of electron     269.9999992 magnetization     -11.5420912
 augmentation part       86.9480128 magnetization      -8.0393837

 Free energy of the ion-electron system (eV)
  ---------------------------------------------------
  alpha Z        PSCENC =       798.38614055
  Ewald energy   TEWEN  =    -12901.57693327
  -Hartree energ DENC   =     -2489.46821360
  -exchange      EXHF   =         0.00000000
  -V(xc)+E(xc)   XCENC  =      -999.17543929
  PAW double counting   =     19441.47444864   -18191.68675448
  entropy T*S    EENTRO =        -0.01980903
  eigenvalues    EBANDS =      1288.04557029
  atomic energy  EATOM  =     12697.67401269
  ---------------------------------------------------
  free energy    TOTEN  =      -356.34653565 eV

  energy without entropy =     -356.32672662  energy(sigma->0) =     -356.33993264


--------------------------------------------------------------------------------------------------------




--------------------------------------- Iteration      1(  22)  ---------------------------------------


    POTLOK:  cpu time    0.3947: real time    0.3946
    SETDIJ:  cpu time    0.5225: real time    0.5226
    TRIAL :  cpu time   14.2252: real time   14.4246
    CORREC:  cpu time    4.4665: real time    4.4876
    CHARGE:  cpu time    1.4688: real time    1.4768
    --------------------------------------------
      LOOP:  cpu time   21.8066: real time   22.0361

 eigenvalue-minimisations  :     0
 total energy-change (2. order) :-0.5905515E-01  (-0.2676700E-01)
 number of electron     269.9999992 magnetization     -11.5672674
 augmentation part       86.9882490 magnetization      -8.0538982

 Free energy of the ion-electron system (eV)
  ---------------------------------------------------
  alpha Z        PSCENC =       798.38614055
  Ewald energy   TEWEN  =    -12901.57693327
  -Hartree energ DENC   =     -2502.65316178
  -exchange      EXHF   =         0.00000000
  -V(xc)+E(xc)   XCENC  =      -998.62824922
  PAW double counting   =     19472.59859200   -18225.41804484
  entropy T*S    EENTRO =        -0.01958865
  eigenvalues    EBANDS =      1303.23186210
  atomic energy  EATOM  =     12697.67401269
  ---------------------------------------------------
  free energy    TOTEN  =      -356.40559080 eV

  energy without entropy =     -356.38600215  energy(sigma->0) =     -356.39906125


--------------------------------------------------------------------------------------------------------




--------------------------------------- Iteration      1(  23)  ---------------------------------------


    POTLOK:  cpu time    0.3960: real time    0.4499
    SETDIJ:  cpu time    0.4538: real time    0.4540
    TRIAL :  cpu time   13.6271: real time   13.7410
    CORREC:  cpu time    4.5434: real time    4.5583
    CHARGE:  cpu time    1.4420: real time    1.4420
    --------------------------------------------
      LOOP:  cpu time   20.4745: real time   20.6581

 eigenvalue-minimisations  :     0
 total energy-change (2. order) :-0.2676605E-01  (-0.3247614E-01)
 number of electron     269.9999992 magnetization     -11.6109753
 augmentation part       86.9506065 magnetization      -8.0759128

 Free energy of the ion-electron system (eV)
  ---------------------------------------------------
  alpha Z        PSCENC =       798.38614055
  Ewald energy   TEWEN  =    -12901.57693327
  -Hartree energ DENC   =     -2505.25646203
  -exchange      EXHF   =         0.00000000
  -V(xc)+E(xc)   XCENC  =      -998.48330329
  PAW double counting   =     19477.55989185   -18230.81460695
  entropy T*S    EENTRO =        -0.01947406
  eigenvalues    EBANDS =      1306.09849224
  atomic energy  EATOM  =     12697.67401269
  ---------------------------------------------------
  free energy    TOTEN  =      -356.43235685 eV

  energy without entropy =     -356.41288279  energy(sigma->0) =     -356.42586550


--------------------------------------------------------------------------------------------------------




--------------------------------------- Iteration      1(  24)  ---------------------------------------


    POTLOK:  cpu time    0.3925: real time    0.3927
    SETDIJ:  cpu time    0.4629: real time    0.4629
    TRIAL :  cpu time   13.6406: real time   13.7593
    CORREC:  cpu time    5.2873: real time    5.2887
    CHARGE:  cpu time    1.4232: real time    1.4232
    --------------------------------------------
      LOOP:  cpu time   21.2186: real time   21.3392

 eigenvalue-minimisations  :     0
 total energy-change (2. order) :-0.3251863E-01  (-0.3136990E-01)
[...]
   45       -0.013  -0.020  -2.222  -2.255
   46        0.015   0.019   2.295   2.329
   47       -0.021  -0.021  -2.384  -2.426
   48       -0.018  -0.019  -2.382  -2.420
   49        0.014   0.019   2.274   2.307
   50       -0.021  -0.020  -2.382  -2.424
   51       -0.018  -0.019  -2.365  -2.402
   52        0.019   0.017   2.365   2.401
   53        0.024   0.018   2.407   2.448
   54       -0.013  -0.020  -2.239  -2.272
--------------------------------------------------
tot          0.016   0.063 -11.969 -11.890
 
    FORLOC:  cpu time    0.0583: real time    0.0583
    FORNL :  cpu time   21.6354: real time   21.8144
    STRESS:  cpu time   31.7572: real time   32.1161
    FORCOR:  cpu time    0.4398: real time    0.4456
    OFIELD:  cpu time    0.0019: real time    0.0019

  FORCE on cell =-STRESS in cart. coord.  units (eV):
  Direction    XX          YY          ZZ          XY          YZ          ZX
  --------------------------------------------------------------------------------------
  Alpha Z   798.38614   798.38614   798.38614
  Ewald   -4053.61603 -4053.61603 -4794.40593    -0.00000    -0.00000    -0.00000
  Hartree  1085.35093  1084.03075   332.02630    -0.00000    -0.00000    -0.00000
  E(xc)   -1141.81182 -1141.56314 -1139.67040    -0.00000    -0.00000     0.00000
  Local     366.35681   369.51708  1906.90474    -0.00000    -0.00000    -0.00000
  n-local  -170.88593  -170.42156  -175.73958     0.38313    -0.28045    -0.26080
  augment   785.63029   784.61807   767.19092     0.00000     0.00001     0.00001
  Kinetic  2337.28891  2334.86487  2307.49951    -2.53709    -1.36575    -1.53393
  Fock        0.00000     0.00000     0.00000     0.00000     0.00000     0.00000
  -------------------------------------------------------------------------------------
  Total       6.69929     5.81619     2.19171     0.00000     0.00000     0.00000
  in kB      15.11943    13.12638     4.94640     0.00000     0.00000     0.00000
  external pressure =       11.06 kB  Pullay stress =        0.00 kB


 VOLUME and BASIS-vectors are now :
 -----------------------------------------------------------------------------
  energy-cutoff  :      404.80
  volume of cell :      709.91
      direct lattice vectors                 reciprocal lattice vectors
     8.250148166  0.000000000  0.000000000     0.121209944  0.000000000  0.000000000
     0.000000000  8.250148166  0.000000000     0.000000000  0.121209944  0.000000000
     0.000000000  0.000000000 10.429911392     0.000000000  0.000000000  0.095878092

  length of vectors
     8.250148166  8.250148166 10.429911392     0.121209944  0.121209944  0.095878092


 FORCES acting on ions:
    Electron-Ion                     Ewald-Force                    Non-Local-Force
 -----------------------------------------------------------------------------------------------
   0.142E-01 0.303E-02 0.557E-01   -.239E-08 -.239E-08 -.210E-08   -.939E-02 -.989E-02 -.199E-01
   0.138E+00 0.104E+00 -.129E+00   -.239E-08 -.239E-08 0.171E-08   -.647E-01 -.817E-01 0.419E-01
   0.630E-01 0.259E-01 0.357E-01   -.239E-08 -.239E-08 0.861E-08   0.231E-01 0.163E-01 0.128E-02
   0.826E-02 0.373E-09 0.112E+00   -.239E-08 -.802E-09 -.210E-08   -.615E-02 0.000E+00 -.646E-01
   -.259E-01 0.373E-09 -.655E-01   -.239E-08 -.802E-09 0.171E-08   0.150E-01 -.542E-19 0.660E-01
   -.178E-01 0.373E-09 0.228E-01   -.239E-08 -.802E-09 0.861E-08   -.822E-02 0.407E-19 -.637E-01
   0.142E-01 -.303E-02 0.557E-01   -.239E-08 0.631E-08 -.210E-08   -.939E-02 0.989E-02 -.199E-01
   0.138E+00 -.104E+00 -.129E+00   -.239E-08 0.631E-08 0.171E-08   -.647E-01 0.817E-01 0.419E-01
   0.630E-01 -.259E-01 0.357E-01   -.239E-08 0.631E-08 0.861E-08   0.231E-01 -.163E-01 0.128E-02
   -.142E-01 0.303E-02 0.557E-01   -.802E-09 -.239E-08 -.210E-08   0.939E-02 -.989E-02 -.199E-01
   -.138E+00 0.104E+00 -.129E+00   -.802E-09 -.239E-08 0.171E-08   0.647E-01 -.817E-01 0.419E-01
   -.630E-01 0.259E-01 0.357E-01   -.803E-09 -.239E-08 0.861E-08   -.231E-01 0.163E-01 0.128E-02
   -.826E-02 0.373E-09 0.112E+00   -.802E-09 -.802E-09 -.210E-08   0.615E-02 -.136E-19 -.646E-01
   0.259E-01 0.373E-09 -.655E-01   -.802E-09 -.802E-09 0.171E-08   -.150E-01 0.108E-18 0.660E-01
   0.178E-01 0.373E-09 0.228E-01   -.803E-09 -.802E-09 0.861E-08   0.822E-02 0.000E+00 -.637E-01
   -.142E-01 -.303E-02 0.557E-01   -.802E-09 0.631E-08 -.210E-08   0.939E-02 0.989E-02 -.199E-01
   -.138E+00 -.104E+00 -.129E+00   -.802E-09 0.631E-08 0.171E-08   0.647E-01 0.817E-01 0.419E-01
   -.630E-01 -.259E-01 0.357E-01   -.803E-09 0.631E-08 0.861E-08   -.231E-01 -.163E-01 0.128E-02
   -.329E-08 0.123E-01 -.419E-01   0.631E-08 -.239E-08 -.210E-08   0.000E+00 -.101E-01 0.213E-01
   -.328E-08 0.790E-01 -.553E-01   0.631E-08 -.239E-08 0.171E-08   0.000E+00 -.166E+00 -.925E-02
   -.328E-08 -.779E-01 0.218E-01   0.631E-08 -.239E-08 0.861E-08   0.000E+00 0.553E-01 0.516E-01
   -.330E-08 0.373E-09 0.181E+00   0.631E-08 -.802E-09 -.210E-08   0.000E+00 0.000E+00 -.755E-01
   -.330E-08 0.372E-09 -.443E-01   0.631E-08 -.802E-09 0.171E-08   0.000E+00 0.000E+00 0.180E-01
   -.329E-08 0.372E-09 0.102E-01   0.631E-08 -.802E-09 0.861E-08   0.000E+00 0.000E+00 -.405E-01
   -.329E-08 -.123E-01 -.419E-01   0.631E-08 0.631E-08 -.210E-08   0.000E+00 0.101E-01 0.213E-01
   -.328E-08 -.790E-01 -.553E-01   0.631E-08 0.631E-08 0.171E-08   0.000E+00 0.166E+00 -.925E-02
   -.328E-08 0.779E-01 0.218E-01   0.631E-08 0.631E-08 0.861E-08   0.000E+00 -.553E-01 0.516E-01
   0.484E-08 -.548E-01 0.673E-02   -.169E-07 -.169E-07 -.180E-07   0.434E-18 0.373E-01 -.105E+00
   0.486E-08 -.209E+00 -.819E-03   -.169E-07 -.169E-07 -.170E-08   0.000E+00 0.235E+00 -.191E-01
   0.483E-08 -.658E-01 0.549E-01   -.169E-07 -.169E-07 0.115E-07   0.434E-18 0.144E+00 0.589E-01
   0.484E-08 0.548E-01 0.673E-02   -.169E-07 0.802E-09 -.180E-07   -.867E-18 -.373E-01 -.105E+00
   0.486E-08 0.209E+00 -.819E-03   -.169E-07 0.802E-09 -.170E-08   0.000E+00 -.235E+00 -.191E-01
   0.483E-08 0.658E-01 0.549E-01   -.169E-07 0.802E-09 0.115E-07   -.434E-18 -.144E+00 0.589E-01
   0.483E-08 -.605E-08 -.318E+00   -.169E-07 0.130E-07 -.180E-07   0.000E+00 0.000E+00 0.284E+00
   0.474E-08 -.605E-08 0.172E+00   -.169E-07 0.130E-07 -.170E-08   0.000E+00 0.000E+00 -.705E-01
   0.484E-08 -.605E-08 -.709E-01   -.169E-07 0.130E-07 0.115E-07   0.000E+00 0.000E+00 0.147E+00
   0.237E-01 0.614E-01 -.143E+00   0.802E-09 -.169E-07 -.180E-07   -.178E-01 0.160E-01 0.511E-01
   -.319E-01 0.287E+00 0.781E-01   0.802E-09 -.169E-07 -.170E-08   -.915E-02 -.655E-01 -.560E-01
   0.532E-02 -.345E-01 -.264E-01   0.802E-09 -.169E-07 0.115E-07   -.538E-01 0.457E-01 0.130E+00
   0.237E-01 -.614E-01 -.143E+00   0.802E-09 0.802E-09 -.180E-07   -.178E-01 -.160E-01 0.511E-01
   -.319E-01 -.287E+00 0.781E-01   0.802E-09 0.802E-09 -.170E-08   -.915E-02 0.655E-01 -.560E-01
   0.532E-02 0.345E-01 -.264E-01   0.802E-09 0.802E-09 0.115E-07   -.538E-01 -.457E-01 0.130E+00
   -.228E-01 -.605E-08 0.180E+00   0.802E-09 0.130E-07 -.180E-07   -.644E-01 0.108E-18 -.425E+00
   0.537E+00 -.605E-08 -.220E+00   0.802E-09 0.130E-07 -.170E-08   -.268E+00 -.434E-18 0.259E+00
   0.924E-01 -.605E-08 0.177E+00   0.802E-09 0.130E-07 0.115E-07   -.427E-01 0.000E+00 -.929E-01
   -.237E-01 0.614E-01 -.143E+00   0.130E-07 -.169E-07 -.180E-07   0.178E-01 0.160E-01 0.511E-01
   0.319E-01 0.287E+00 0.781E-01   0.130E-07 -.169E-07 -.170E-08   0.915E-02 -.655E-01 -.560E-01
   -.532E-02 -.345E-01 -.264E-01   0.130E-07 -.169E-07 0.115E-07   0.538E-01 0.457E-01 0.130E+00
   -.237E-01 -.614E-01 -.143E+00   0.130E-07 0.802E-09 -.180E-07   0.178E-01 -.160E-01 0.511E-01
   0.319E-01 -.287E+00 0.781E-01   0.130E-07 0.802E-09 -.170E-08   0.915E-02 0.655E-01 -.560E-01
   -.532E-02 0.345E-01 -.264E-01   0.130E-07 0.802E-09 0.115E-07   0.538E-01 -.457E-01 0.130E+00
   0.228E-01 -.605E-08 0.180E+00   0.130E-07 0.130E-07 -.180E-07   0.644E-01 0.000E+00 -.425E+00
   -.537E+00 -.605E-08 -.220E+00   0.130E-07 0.130E-07 -.170E-08   0.268E+00 0.000E+00 0.259E+00
   -.924E-01 -.605E-08 0.177E+00   0.130E-07 0.130E-07 0.115E-07   0.427E-01 0.000E+00 -.929E-01
 -----------------------------------------------------------------------------------------------
   -.406E-07 -.362E-07 -.213E+00   -.614E-13 -.142E-13 0.128E-13   0.139E-16 -.416E-16 0.211E+00
 
 
 POSITION                                       TOTAL-FORCE (eV/Angst)
 -----------------------------------------------------------------------------------
      0.00000      0.00000      0.00000         0.005703     -0.006111      0.037903
      0.00000      0.00000      3.47664         0.079401      0.029018     -0.089520
      0.00000      0.00000      6.95327         0.083831      0.040300      0.035639
      0.00000      2.75005      0.00000         0.002547     -0.000000      0.053120
      0.00000      2.75005      3.47664        -0.012541     -0.000000     -0.004909
      0.00000      2.75005      6.95327        -0.025669     -0.000000     -0.035767
      0.00000      5.50010      0.00000         0.005703      0.006111      0.037903
      0.00000      5.50010      3.47664         0.079401     -0.029018     -0.089520
      0.00000      5.50010      6.95327         0.083831     -0.040300      0.035639
      2.75005      0.00000      0.00000        -0.005703     -0.006111      0.037903
      2.75005      0.00000      3.47664        -0.079401      0.029018     -0.089520
      2.75005      0.00000      6.95327        -0.083831      0.040300      0.035639
      2.75005      2.75005      0.00000        -0.002547     -0.000000      0.053120
      2.75005      2.75005      3.47664         0.012541     -0.000000     -0.004909
      2.75005      2.75005      6.95327         0.025669     -0.000000     -0.035767
      2.75005      5.50010      0.00000        -0.005703      0.006111      0.037903
      2.75005      5.50010      3.47664        -0.079401     -0.029018     -0.089520
      2.75005      5.50010      6.95327        -0.083831     -0.040300      0.035639
      5.50010      0.00000      0.00000         0.000000      0.003018     -0.023216
      5.50010      0.00000      3.47664         0.000000     -0.073251     -0.062490
      5.50010      0.00000      6.95327         0.000000     -0.027935      0.067481
      5.50010      2.75005      0.00000         0.000000     -0.000000      0.113823
      5.50010      2.75005      3.47664         0.000000     -0.000000     -0.027161
      5.50010      2.75005      6.95327         0.000000     -0.000000     -0.027341
      5.50010      5.50010      0.00000         0.000000     -0.003018     -0.023216
      5.50010      5.50010      3.47664         0.000000      0.073251     -0.062490
      5.50010      5.50010      6.95327         0.000000      0.027935      0.067481
      1.37502      1.37502      1.73832         0.000000     -0.018035     -0.095132
      1.37502      1.37502      5.21496         0.000000      0.022362     -0.012040
      1.37502      1.37502      8.69159         0.000000      0.076728      0.106151
      1.37502      4.12507      1.73832         0.000000      0.018035     -0.095132
      1.37502      4.12507      5.21496         0.000000     -0.022362     -0.012040
      1.37502      4.12507      8.69159         0.000000     -0.076728      0.106151
      1.37502      6.87512      1.73832         0.000000     -0.000000     -0.041228
      1.37502      6.87512      5.21496         0.000000     -0.000000      0.104926
      1.37502      6.87512      8.69159         0.000000     -0.000000      0.068327
      4.12507      1.37502      1.73832         0.006041      0.077085     -0.093737
      4.12507      1.37502      5.21496        -0.041694      0.224158      0.028109
      4.12507      1.37502      8.69159        -0.048245      0.013472      0.095331
      4.12507      4.12507      1.73832         0.006041     -0.077085     -0.093737
      4.12507      4.12507      5.21496        -0.041694     -0.224158      0.028109
      4.12507      4.12507      8.69159        -0.048245     -0.013472      0.095331
      4.12507      6.87512      1.73832        -0.085436     -0.000000     -0.235867
      4.12507      6.87512      5.21496         0.277242     -0.000000      0.034253
      4.12507      6.87512      8.69159         0.049367     -0.000000      0.085293
      6.87512      1.37502      1.73832        -0.006041      0.077085     -0.093737
      6.87512      1.37502      5.21496         0.041694      0.224158      0.028109
      6.87512      1.37502      8.69159         0.048245      0.013472      0.095331
      6.87512      4.12507      1.73832        -0.006041     -0.077085     -0.093737
      6.87512      4.12507      5.21496         0.041694     -0.224158      0.028109
      6.87512      4.12507      8.69159         0.048245     -0.013472      0.095331
      6.87512      6.87512      1.73832         0.085436     -0.000000     -0.235867
      6.87512      6.87512      5.21496        -0.277242     -0.000000      0.034253
      6.87512      6.87512      8.69159        -0.049367     -0.000000      0.085293
 -----------------------------------------------------------------------------------
    total drift:                               -0.000000     -0.000000     -0.001457


--------------------------------------------------------------------------------------------------------



  FREE ENERGIE OF THE ION-ELECTRON SYSTEM (eV)
  ---------------------------------------------------
  free  energy   TOTEN  =      -356.58704516 eV

  energy  without entropy=     -356.57122328  energy(sigma->0) =     -356.58177120
 


--------------------------------------------------------------------------------------------------------


    POTLOK:  cpu time    0.8625: real time    0.8626


--------------------------------------------------------------------------------------------------------


     LOOP+:  cpu time 1554.7823: real time 1567.9830
    4ORBIT:  cpu time    0.0000: real time    0.0000
 


 total charge     
 
# of ion       s       p       d       tot
------------------------------------------
    1        0.405   0.427   0.000   0.832
    2        0.405   0.428   0.000   0.834
    3        0.405   0.430   0.000   0.834
    4        0.405   0.428   0.000   0.833
    5        0.405   0.426   0.000   0.831
    6        0.404   0.428   0.000   0.832
    7        0.405   0.427   0.000   0.832
    8        0.405   0.428   0.000   0.833
    9        0.404   0.429   0.000   0.834
   10        0.405   0.427   0.000   0.832
   11        0.405   0.428   0.000   0.833
   12        0.404   0.430   0.000   0.834
   13        0.405   0.428   0.000   0.833
   14        0.405   0.426   0.000   0.831
   15        0.404   0.428   0.000   0.832
   16        0.405   0.427   0.000   0.832
   17        0.405   0.428   0.000   0.833
   18        0.405   0.430   0.000   0.834
   19        0.405   0.427   0.000   0.832
   20        0.405   0.429   0.000   0.834
   21        0.405   0.429   0.000   0.834
   22        0.405   0.427   0.000   0.832
   23        0.405   0.426   0.000   0.831
   24        0.404   0.427   0.000   0.832
   25        0.405   0.427   0.000   0.833
   26        0.405   0.428   0.000   0.834
   27        0.405   0.429   0.000   0.834
   28        0.335   0.350   5.132   5.817
   29        0.331   0.353   5.139   5.823
   30        0.334   0.352   5.131   5.818
   31        0.335   0.350   5.141   5.826
   32        0.331   0.353   5.137   5.821
   33        0.334   0.352   5.137   5.823
   34        0.334   0.353   5.131   5.819
   35        0.331   0.358   5.132   5.821
   36        0.334   0.349   5.138   5.820
   37        0.334   0.352   5.128   5.813
   38        0.333   0.355   5.127   5.815
   39        0.333   0.351   5.130   5.814
   40        0.334   0.352   5.142   5.827
   41        0.334   0.355   5.133   5.821
   42        0.333   0.350   5.145   5.828
   43        0.335   0.349   5.139   5.823
   44        0.334   0.355   5.128   5.817
   45        0.331   0.352   5.143   5.826
   46        0.333   0.352   5.127   5.813
   47        0.333   0.355   5.133   5.822
   48        0.333   0.351   5.130   5.814
   49        0.334   0.352   5.141   5.826
   50        0.333   0.354   5.126   5.814
   51        0.333   0.350   5.141   5.825
   52        0.335   0.350   5.135   5.820
   53        0.334   0.355   5.128   5.817
   54        0.331   0.353   5.129   5.813
--------------------------------------------------
tot         19.936  21.063 138.625 179.624
 


 magnetization (x)
 
# of ion       s       p       d       tot
------------------------------------------
    1       -0.000  -0.000   0.000  -0.000
    2       -0.005  -0.009   0.000  -0.014
    3        0.017   0.029   0.000   0.045
    4        0.000  -0.001   0.000  -0.001
    5       -0.000  -0.002   0.000  -0.002
    6        0.022   0.037   0.000   0.059
    7        0.000  -0.000   0.000  -0.000
    8       -0.005  -0.010   0.000  -0.015
    9        0.017   0.029   0.000   0.046
   10       -0.000  -0.000   0.000  -0.000
   11       -0.005  -0.010   0.000  -0.015
   12        0.017   0.029   0.000   0.046
   13        0.000  -0.001   0.000  -0.001
   14       -0.000  -0.002   0.000  -0.002
   15        0.022   0.037   0.000   0.059
   16        0.000  -0.000   0.000  -0.000
   17       -0.005  -0.011   0.000  -0.016
   18        0.016   0.029   0.000   0.046
   19        0.000  -0.002   0.000  -0.002
   20       -0.010  -0.019   0.000  -0.028
   21        0.012   0.020   0.000   0.032
   22       -0.000   0.002   0.000   0.002
   23       -0.002  -0.005   0.000  -0.006
   24        0.021   0.035   0.000   0.055
   25        0.000  -0.002   0.000  -0.002
   26       -0.009  -0.020   0.000  -0.029
   27        0.012   0.021   0.000   0.033
   28        0.016   0.015   2.306   2.337
   29       -0.010  -0.009  -2.327  -2.346
   30       -0.016  -0.023  -2.370  -2.409
   31        0.016   0.015   2.296   2.327
   32       -0.010  -0.009  -2.328  -2.347
   33       -0.016  -0.023  -2.362  -2.401
   34        0.013   0.023   2.267   2.302
   35       -0.030  -0.032  -2.235  -2.296
   36       -0.020  -0.015  -2.401  -2.436
   37        0.014   0.019   2.288   2.321
   38       -0.021  -0.021  -2.379  -2.420
   39       -0.018  -0.018  -2.380  -2.417
   40        0.014   0.019   2.271   2.304
   41       -0.021  -0.021  -2.384  -2.426
   42       -0.018  -0.019  -2.363  -2.399
   43        0.019   0.017   2.356   2.392
   44        0.024   0.018   2.407   2.449
   45       -0.013  -0.020  -2.222  -2.255
   46        0.015   0.019   2.295   2.329
   47       -0.021  -0.021  -2.384  -2.426
   48       -0.018  -0.019  -2.382  -2.420
   49        0.014   0.019   2.274   2.307
   50       -0.021  -0.020  -2.382  -2.424
   51       -0.018  -0.019  -2.365  -2.402
   52        0.019   0.017   2.365   2.401
   53        0.024   0.018   2.407   2.448
   54       -0.013  -0.020  -2.239  -2.272
--------------------------------------------------
tot          0.016   0.063 -11.969 -11.890
 

 total amount of memory used by VASP MPI-rank0   815466. kBytes
=======================================================================

   base      :      30000. kBytes
   nonl-proj :      28494. kBytes
   fftplans  :      31580. kBytes
   grid      :      21385. kBytes
   one-center:        435. kBytes
   wavefun   :     703572. kBytes
 
  
  
 General timing and accounting informations for this job:
 ========================================================
  
                  Total CPU time used (sec):     1584.302
                            User time (sec):     1560.149
                          System time (sec):       24.152
                         Elapsed time (sec):     1600.871
  
                   Maximum memory used (kb):      981704.
                   Average memory used (kb):           0.
  
                          Minor page faults:       426023
                          Major page faults:           18
                 Voluntary context switches:         2586
