   36   36    1    2
  0.1314651E+02  0.8250148E-09  0.8250148E-09  0.6953274E-09  0.2000000E-15
  1.000000000000000E-004
  CAR 
 AlMn_pv                                 
    180     36    102
 
  0.0000000E+00  0.0000000E+00  0.0000000E+00  0.6666667E-02
    1       -2.508320     -2.532232   1.000000   1.000000
    2       -0.378170     -0.369569   1.000000   1.000000
    3       -0.320067     -0.352974   1.000000   1.000000
    4       -0.315836     -0.345252   1.000000   1.000000
    5       -0.280036     -0.334479   1.000000   1.000000
    6       -0.132170     -0.114622   1.000000   1.000000
    7        1.380354      1.320085   1.000000   1.000000
    8        1.405261      1.342795   1.000000   1.000000
    9        1.417777      1.372319   1.000000   1.000000
   10        1.442760      1.374228   1.000000   1.000000
   11        1.443530      1.422197   1.000000   1.000000
   12        1.584427      1.530139   1.000000   1.000000
   13        1.593013      1.541169   1.000000   1.000000
   14        1.640560      1.592544   1.000000   1.000000
   15        1.654115      1.597326   1.000000   1.000000
   16        2.785110      2.694221   1.000000   1.000000
   17        2.798564      2.695616   1.000000   1.000000
   18        2.876575      2.757797   1.000000   1.000000
   19        2.891765      2.775843   1.000000   1.000000
   20        3.498087      3.442709   1.000000   1.000000
   21        3.612691      3.491609   1.000000   1.000000
   22        3.619521      3.505416   1.000000   1.000000
   23        3.696796      3.564732   1.000000   1.000000
   24        4.171952      4.024091   1.000000   1.000000
   25        4.279679      4.107274   1.000000   1.000000
   26        4.518469      4.274992   1.000000   1.000000
   27        4.601815      4.346793   1.000000   1.000000
   28        4.620807      4.467287   1.000000   1.000000
   29        4.671997      4.508074   1.000000   1.000000
   30        4.729856      4.554381   1.000000   1.000000
   31        4.771522      4.574969   1.000000   1.000000
   32        4.817061      4.633287   1.000000   1.000000
   33        4.905068      4.651494   1.000000   1.000000
   34        4.910076      4.676412   1.000000   1.000000
   35        4.973881      4.688626   1.000000   1.000000
   36        5.031992      4.776956   1.000000   1.000000
   37        5.078118      4.788959   1.000000   1.000000
   38        5.085447      4.803000   1.000000   1.000000
   39        5.240791      4.920105   1.000000   1.000000
   40        5.268434      4.922378   1.000000   1.000000
   41        5.317465      5.239177   1.000000   1.000000
   42        5.461337      5.254174   1.000000   1.000000
   43        5.469966      5.275151   1.000000   1.000000
   44        5.507613      5.285200   1.000000   1.000000
   45        5.529989      5.293776   1.000000   1.000000
   46        5.566543      5.361779   1.000000   1.000000
   47        5.616007      5.364987   1.000000   1.000000
   48        5.689132      5.395191   1.000000   1.000000
   49        5.709195      5.448870   1.000000   1.000000
   50        5.784027      5.451891   1.000000   1.000000
   51        5.815450      5.474984   1.000000   1.000000
   52        5.872592      5.483792   1.000000   1.000000
   53        5.940759      5.588623   1.000000   1.000000
   54        6.195174      5.663678   1.000000   1.000000
   55        6.230245      5.722391   1.000000   1.000000
   56        6.271532      5.744344   1.000000   1.000000
   57        6.278742      5.803690   1.000000   1.000000
   58        6.370416      5.825742   1.000000   1.000000
   59        6.483044      5.892239   1.000000   1.000000
   60        6.521099      5.903563   1.000000   1.000000
   61        6.541247      5.987592   1.000000   1.000000
   62        6.558022      6.010992   1.000000   1.000000
   63        6.617565      6.174283   1.000000   1.000000
   64        6.622928      6.290967   1.000000   1.000000
   65        6.647865      6.316459   1.000000   1.000000
   66        6.681782      6.347056   1.000000   1.000000
   67        6.742638      6.355352   1.000000   1.000000
   68        6.791096      6.357468   1.000000   1.000000
   69        6.804597      6.382767   1.000000   1.000000
   70        6.857029      6.445191   1.000000   1.000000
   71        6.869624      6.468205   1.000000   1.000000
   72        6.898558      6.484978   1.000000   1.000000
   73        7.136998      6.565197   1.000107   1.000000
   74        7.251892      6.622654   1.001789   1.000000
   75        7.268526      6.642425   1.002623   1.000000
   76        7.316015      6.661103   1.006253   1.000000
   77        7.380586      6.696855   1.016694   1.000000
   78        7.415750      6.698304   1.024301   1.000000
   79        7.443659      6.732526   1.030282   1.000000
   80        7.455261      6.756623   1.033272   1.000000
   81        7.468007      6.775750   1.034414   1.000000
   82        7.608023      6.874050   0.918378   1.000000
   83        7.706905      6.877469   0.602450   1.000000
   84        7.738562      6.893534   0.486356   1.000000
   85        7.784962      6.923917   0.278730   1.000000
   86        7.857943      7.029674   0.070036   1.000005
   87        7.944837      7.059838  -0.031103   1.000012
   88        7.997970      7.065102  -0.033733   1.000014
   89        8.095096      7.081520  -0.014705   1.000023
   90        8.167025      7.125950  -0.004156   1.000092
   91        8.254543      7.310809  -0.000664   1.005575
   92        8.405049      7.389813  -0.000010   1.018018
   93        8.451225      7.399136  -0.000002   1.020669
   94        8.518312      7.417764  -0.000000   1.025042
   95        8.551354      7.497882  -0.000000   1.034561
   96        8.605398      7.572462  -0.000000   0.985323
   97        8.643096      7.854563  -0.000000   0.058404
   98        8.663499      7.867308  -0.000000   0.024165
   99        8.667706      7.995631  -0.000000  -0.033209
  100        8.695384      8.035546  -0.000000  -0.025583
  101        8.849634      8.077997  -0.000000  -0.002316
  102        8.923601      8.578079  -0.000000  -0.000000
 
  0.2000000E+00  0.0000000E+00  0.0000000E+00  0.1333333E-01
    1       -2.417782     -2.441666   1.000000   1.000000
    2       -1.091545     -1.116004   1.000000   1.000000
    3       -0.281699     -0.282695   1.000000   1.000000
    4       -0.198232     -0.252988   1.000000   1.000000
    5       -0.065464     -0.049507   1.000000   1.000000
    6        0.581563      0.550845   1.000000   1.000000
    7        0.890327      0.875954   1.000000   1.000000
    8        0.924861      0.902542   1.000000   1.000000
    9        0.983300      0.925606   1.000000   1.000000
   10        1.444684      1.384621   1.000000   1.000000
   11        1.505969      1.440209   1.000000   1.000000
   12        1.538151      1.482913   1.000000   1.000000
   13        1.961357      1.883817   1.000000   1.000000
   14        2.341293      2.245682   1.000000   1.000000
   15        2.355124      2.259223   1.000000   1.000000
   16        2.375220      2.311285   1.000000   1.000000
   17        2.382316      2.321677   1.000000   1.000000
   18        2.877221      2.782281   1.000000   1.000000
   19        3.274264      3.143478   1.000000   1.000000
   20        3.383286      3.216977   1.000000   1.000000
   21        3.605846      3.522206   1.000000   1.000000
   22        3.749686      3.615568   1.000000   1.000000
   23        3.787535      3.703927   1.000000   1.000000
   24        4.154594      4.009098   1.000000   1.000000
   25        4.249489      4.077129   1.000000   1.000000
   26        4.361166      4.193306   1.000000   1.000000
   27        4.434254      4.249307   1.000000   1.000000
   28        4.559983      4.356462   1.000000   1.000000
   29        4.692727      4.435943   1.000000   1.000000
   30        4.700089      4.487150   1.000000   1.000000
   31        4.744622      4.510527   1.000000   1.000000
   32        4.782847      4.518627   1.000000   1.000000
   33        4.802294      4.568341   1.000000   1.000000
   34        4.871322      4.606924   1.000000   1.000000
   35        5.041058      4.750797   1.000000   1.000000
   36        5.051658      4.870624   1.000000   1.000000
   37        5.103913      4.875755   1.000000   1.000000
   38        5.104001      4.901454   1.000000   1.000000
   39        5.176488      4.911268   1.000000   1.000000
   40        5.179150      4.988118   1.000000   1.000000
   41        5.226808      5.039135   1.000000   1.000000
   42        5.289453      5.180243   1.000000   1.000000
   43        5.419468      5.243280   1.000000   1.000000
   44        5.506560      5.257837   1.000000   1.000000
   45        5.507466      5.303238   1.000000   1.000000
   46        5.562975      5.319474   1.000000   1.000000
   47        5.650248      5.333365   1.000000   1.000000
   48        5.687214      5.380825   1.000000   1.000000
   49        5.708886      5.464218   1.000000   1.000000
   50        5.838866      5.489190   1.000000   1.000000
   51        5.856606      5.532175   1.000000   1.000000
   52        5.945262      5.559688   1.000000   1.000000
   53        6.016871      5.666915   1.000000   1.000000
   54        6.215158      5.701152   1.000000   1.000000
   55        6.251355      5.741190   1.000000   1.000000
   56        6.311732      5.751382   1.000000   1.000000
   57        6.312073      5.823090   1.000000   1.000000
   58        6.358066      5.857580   1.000000   1.000000
   59        6.445435      5.940306   1.000000   1.000000
   60        6.459315      5.958107   1.000000   1.000000
   61        6.506083      5.961887   1.000000   1.000000
   62        6.535894      6.063770   1.000000   1.000000
   63        6.595610      6.119846   1.000000   1.000000
   64        6.640527      6.260448   1.000000   1.000000
   65        6.644326      6.273871   1.000000   1.000000
   66        6.659473      6.301878   1.000000   1.000000
   67        6.706074      6.333654   1.000000   1.000000
   68        6.771033      6.350882   1.000000   1.000000
   69        6.850909      6.353566   1.000000   1.000000
   70        6.851069      6.448262   1.000000   1.000000
   71        6.905544      6.459675   1.000000   1.000000
   72        6.978103      6.478893   1.000001   1.000000
   73        7.022564      6.502298   1.000003   1.000000
   74        7.211172      6.552682   1.000780   1.000000
   75        7.219228      6.627466   1.000925   1.000000
   76        7.326317      6.660152   1.007291   1.000000
   77        7.385137      6.700033   1.018166   1.000000
   78        7.401135      6.711462   1.021393   1.000000
   79        7.443574      6.730355   1.030401   1.000000
   80        7.492221      6.756030   1.035222   1.000000
   81        7.544255      6.779712   1.016352   1.000000
   82        7.587420      6.790679   0.971961   1.000000
   83        7.719420      6.828261   0.561803   1.000000
   84        7.747890      6.843159   0.429140   1.000000
   85        7.755721      6.925363   0.394890   1.000000
   86        7.861349      6.940556   0.065670   1.000000
   87        7.977348      6.977369  -0.035447   1.000001
   88        7.990053      6.981906  -0.034695   1.000001
   89        8.045208      7.049286  -0.024488   1.000009
   90        8.184240      7.112165  -0.002953   1.000060
   91        8.284398      7.280458  -0.000326   1.003455
   92        8.293733      7.355276  -0.000246   1.012134
   93        8.341239      7.377155  -0.000066   1.015963
   94        8.410602      7.488059  -0.000009   1.035403
   95        8.554187      7.496164  -0.000000   1.034938
   96        8.562911      7.742780  -0.000000   0.435143
   97        8.633145      7.900873  -0.000000  -0.005704
   98        8.666494      7.929328  -0.000000  -0.027501
   99        8.717828      7.998828  -0.000000  -0.034152
  100        8.748959      8.100965  -0.000000  -0.012133
  101        8.823628      8.149692  -0.000000  -0.005469
  102        9.042698      8.186537  -0.000000  -0.002772
 
  0.4000000E+00  0.0000000E+00  0.0000000E+00  0.1333333E-01
    1       -2.147743     -2.171594   1.000000   1.000000
    2       -1.702986     -1.726948   1.000000   1.000000
    3       -0.033643     -0.037135   1.000000   1.000000
    4        0.046009     -0.009049   1.000000   1.000000
    5        0.132575      0.143497   1.000000   1.000000
    6        0.373216      0.364005   1.000000   1.000000
    7        0.445623      0.389541   1.000000   1.000000
    8        0.455619      0.456975   1.000000   1.000000
    9        1.600010      1.557965   1.000000   1.000000
   10        1.633388      1.567555   1.000000   1.000000
   11        1.689024      1.660079   1.000000   1.000000
   12        1.819929      1.721231   1.000000   1.000000
   13        1.946389      1.867797   1.000000   1.000000
   14        1.992540      1.951038   1.000000   1.000000
   15        2.272162      2.176325   1.000000   1.000000
   16        2.392846      2.269351   1.000000   1.000000
   17        2.701640      2.657097   1.000000   1.000000
   18        2.963783      2.838878   1.000000   1.000000
   19        3.141234      3.004252   1.000000   1.000000
   20        3.612062      3.436173   1.000000   1.000000
   21        3.811286      3.663089   1.000000   1.000000
   22        3.900047      3.712610   1.000000   1.000000
   23        3.902982      3.762170   1.000000   1.000000
   24        4.082091      3.943552   1.000000   1.000000
   25        4.108930      3.964337   1.000000   1.000000
   26        4.196141      4.057328   1.000000   1.000000
   27        4.268999      4.085088   1.000000   1.000000
   28        4.359363      4.140676   1.000000   1.000000
   29        4.398744      4.214177   1.000000   1.000000
   30        4.564374      4.358532   1.000000   1.000000
   31        4.634105      4.377450   1.000000   1.000000
   32        4.660735      4.537095   1.000000   1.000000
   33        4.818073      4.616922   1.000000   1.000000
   34        4.852317      4.653605   1.000000   1.000000
   35        4.934318      4.762749   1.000000   1.000000
   36        5.110402      4.799247   1.000000   1.000000
   37        5.136375      4.844811   1.000000   1.000000
   38        5.139374      4.980065   1.000000   1.000000
   39        5.143494      5.017852   1.000000   1.000000
   40        5.206326      5.052404   1.000000   1.000000
   41        5.223953      5.078001   1.000000   1.000000
   42        5.276680      5.104207   1.000000   1.000000
   43        5.410673      5.191698   1.000000   1.000000
   44        5.518628      5.281500   1.000000   1.000000
   45        5.549063      5.304133   1.000000   1.000000
   46        5.576975      5.319485   1.000000   1.000000
   47        5.632867      5.352199   1.000000   1.000000
   48        5.653711      5.433773   1.000000   1.000000
   49        5.760802      5.443062   1.000000   1.000000
   50        5.813366      5.511533   1.000000   1.000000
   51        5.895770      5.512133   1.000000   1.000000
   52        5.925860      5.594303   1.000000   1.000000
   53        6.157550      5.662004   1.000000   1.000000
   54        6.201477      5.697624   1.000000   1.000000
   55        6.226204      5.743046   1.000000   1.000000
   56        6.241451      5.772823   1.000000   1.000000
   57        6.278794      5.838012   1.000000   1.000000
   58        6.332877      5.911293   1.000000   1.000000
   59        6.345187      5.922658   1.000000   1.000000
   60        6.393553      6.019704   1.000000   1.000000
   61        6.435612      6.028153   1.000000   1.000000
   62        6.460554      6.045508   1.000000   1.000000
   63        6.519731      6.151386   1.000000   1.000000
   64        6.630261      6.170565   1.000000   1.000000
   65        6.633053      6.203609   1.000000   1.000000
   66        6.703695      6.249381   1.000000   1.000000
   67        6.756563      6.291832   1.000000   1.000000
   68        6.844011      6.321389   1.000000   1.000000
   69        6.903232      6.346687   1.000000   1.000000
   70        6.925284      6.387648   1.000000   1.000000
   71        6.936278      6.415719   1.000000   1.000000
   72        6.956373      6.461122   1.000000   1.000000
   73        7.036373      6.485784   1.000006   1.000000
   74        7.083690      6.504265   1.000023   1.000000
   75        7.235805      6.509061   1.001363   1.000000
   76        7.310320      6.575133   1.005469   1.000000
   77        7.404173      6.673841   1.022098   1.000000
   78        7.425583      6.707772   1.026697   1.000000
   79        7.450995      6.710561   1.031807   1.000000
   80        7.507636      6.712168   1.033829   1.000000
   81        7.574291      6.751376   0.983340   1.000000
   82        7.589934      6.753709   0.967784   1.000000
   83        7.710014      6.791630   0.577061   1.000000
   84        7.769139      6.824487   0.326926   1.000000
   85        7.829183      6.848324   0.152392   1.000000
   86        7.878338      6.912076   0.030065   1.000000
   87        7.976771      6.969163  -0.035435   1.000000
   88        8.060351      7.050109  -0.021113   1.000008
   89        8.081212      7.087457  -0.016726   1.000029
   90        8.117814      7.121279  -0.009517   1.000079
   91        8.182334      7.224515  -0.003105   1.001082
   92        8.244110      7.288365  -0.000851   1.004164
   93        8.278971      7.430677  -0.000375   1.027591
   94        8.301119      7.532474  -0.000211   1.023943
   95        8.377710      7.534051  -0.000023   1.021719
   96        8.464788      7.763391  -0.000001   0.344793
   97        8.575632      7.774596  -0.000000   0.306558
   98        8.684025      7.967872  -0.000000  -0.035094
   99        8.703483      7.980524  -0.000000  -0.034696
  100        8.725376      8.085486  -0.000000  -0.015371
  101        8.801218      8.102087  -0.000000  -0.011225
  102        8.862459      8.126619  -0.000000  -0.007884
 
  0.0000000E+00  0.2000000E+00  0.0000000E+00  0.1333333E-01
    1       -2.417925     -2.441689   1.000000   1.000000
    2       -1.091302     -1.115811   1.000000   1.000000
    3       -0.249469     -0.273597   1.000000   1.000000
    4       -0.232931     -0.262707   1.000000   1.000000
    5       -0.065551     -0.049710   1.000000   1.000000
    6        0.584044      0.551109   1.000000   1.000000
    7        0.889457      0.873918   1.000000   1.000000
    8        0.948027      0.910351   1.000000   1.000000
    9        0.959678      0.917774   1.000000   1.000000
   10        1.468684      1.432187   1.000000   1.000000
   11        1.480656      1.435365   1.000000   1.000000
   12        1.537025      1.439739   1.000000   1.000000
   13        1.964657      1.886468   1.000000   1.000000
   14        2.355159      2.276700   1.000000   1.000000
   15        2.361997      2.280567   1.000000   1.000000
   16        2.364412      2.288202   1.000000   1.000000
   17        2.377965      2.294542   1.000000   1.000000
   18        2.884555      2.785178   1.000000   1.000000
   19        3.315513      3.171378   1.000000   1.000000
   20        3.326545      3.181031   1.000000   1.000000
   21        3.656392      3.557695   1.000000   1.000000
   22        3.676163      3.568990   1.000000   1.000000
   23        3.777796      3.703488   1.000000   1.000000
   24        4.150006      4.004044   1.000000   1.000000
   25        4.237465      4.072883   1.000000   1.000000
   26        4.389343      4.232954   1.000000   1.000000
   27        4.514405      4.261758   1.000000   1.000000
   28        4.537165      4.290455   1.000000   1.000000
   29        4.687271      4.475178   1.000000   1.000000
   30        4.704902      4.478280   1.000000   1.000000
   31        4.708076      4.498894   1.000000   1.000000
   32        4.738716      4.507747   1.000000   1.000000
   33        4.823387      4.612271   1.000000   1.000000
   34        4.850803      4.613550   1.000000   1.000000
   35        4.941981      4.695887   1.000000   1.000000
   36        4.962927      4.862246   1.000000   1.000000
   37        5.156561      4.884315   1.000000   1.000000
   38        5.182569      4.906269   1.000000   1.000000
   39        5.189027      4.906445   1.000000   1.000000
   40        5.192818      4.977391   1.000000   1.000000
   41        5.251540      5.038474   1.000000   1.000000
   42        5.455666      5.214310   1.000000   1.000000
   43        5.489793      5.228128   1.000000   1.000000
   44        5.503417      5.265392   1.000000   1.000000
   45        5.510299      5.319624   1.000000   1.000000
   46        5.558228      5.361592   1.000000   1.000000
   47        5.698033      5.396878   1.000000   1.000000
   48        5.699263      5.434630   1.000000   1.000000
   49        5.708034      5.470545   1.000000   1.000000
   50        5.774615      5.472537   1.000000   1.000000
   51        5.847153      5.475863   1.000000   1.000000
   52        5.961814      5.603462   1.000000   1.000000
   53        5.980603      5.631027   1.000000   1.000000
   54        6.119943      5.698957   1.000000   1.000000
   55        6.234144      5.719315   1.000000   1.000000
   56        6.238229      5.741435   1.000000   1.000000
   57        6.275502      5.801490   1.000000   1.000000
   58        6.371952      5.855348   1.000000   1.000000
   59        6.431815      5.864109   1.000000   1.000000
   60        6.432028      5.936149   1.000000   1.000000
   61        6.472310      5.969854   1.000000   1.000000
   62        6.494150      6.039850   1.000000   1.000000
   63        6.553883      6.122696   1.000000   1.000000
   64        6.615184      6.269620   1.000000   1.000000
   65        6.637045      6.323419   1.000000   1.000000
   66        6.719088      6.323614   1.000000   1.000000
   67        6.754730      6.325037   1.000000   1.000000
   68        6.755343      6.355684   1.000000   1.000000
   69        6.842589      6.387026   1.000000   1.000000
   70        6.874289      6.388453   1.000000   1.000000
   71        6.963579      6.460471   1.000000   1.000000
   72        6.978614      6.514506   1.000001   1.000000
   73        7.149133      6.533107   1.000145   1.000000
   74        7.282320      6.582817   1.003455   1.000000
   75        7.295611      6.616476   1.004210   1.000000
   76        7.319952      6.618096   1.006824   1.000000
   77        7.323966      6.623616   1.007222   1.000000
   78        7.431437      6.703926   1.028092   1.000000
   79        7.461657      6.705163   1.033531   1.000000
   80        7.463258      6.736293   1.034140   1.000000
   81        7.473784      6.786836   1.035226   1.000000
   82        7.501087      6.858234   1.034247   1.000000
   83        7.682845      6.860120   0.704601   1.000000
   84        7.730074      6.864091   0.518685   1.000000
   85        7.799919      6.913728   0.229832   1.000000
   86        7.889120      6.922280   0.014892   1.000000
   87        7.962684      6.929598  -0.034733   1.000000
   88        8.015410      7.017398  -0.030727   1.000003
   89        8.091642      7.029861  -0.015065   1.000004
   90        8.145256      7.180092  -0.006257   1.000378
   91        8.245557      7.200842  -0.000808   1.000597
   92        8.343746      7.386402  -0.000060   1.017778
   93        8.371328      7.491226  -0.000028   1.035198
   94        8.464006      7.528689  -0.000001   1.026042
   95        8.478329      7.567991  -0.000001   0.990726
   96        8.527526      7.721088  -0.000000   0.536095
   97        8.587998      7.810737  -0.000000   0.193045
   98        8.600425      7.836117  -0.000000   0.103430
   99        8.774668      8.007216  -0.000000  -0.031967
  100        8.817201      8.029460  -0.000000  -0.026418
  101        8.872328      8.050655  -0.000000  -0.022573
  102        8.884296      8.288742  -0.000000  -0.000249
 
  0.2000000E+00  0.2000000E+00  0.0000000E+00  0.2666667E-01
    1       -2.327651     -2.351397   1.000000   1.000000
    2       -1.018705     -1.035046   1.000000   1.000000
    3       -0.991827     -1.025341   1.000000   1.000000
    4        0.001052      0.015291   1.000000   1.000000
    5        0.242327      0.210719   1.000000   1.000000
    6        0.651050      0.626741   1.000000   1.000000
    7        0.674869      0.633930   1.000000   1.000000
    8        0.948053      0.926930   1.000000   1.000000
    9        0.961325      0.949240   1.000000   1.000000
   10        1.631009      1.532980   1.000000   1.000000
   11        1.752805      1.697381   1.000000   1.000000
   12        1.796766      1.745740   1.000000   1.000000
   13        1.866215      1.815455   1.000000   1.000000
   14        2.022426      1.946027   1.000000   1.000000
   15        2.040044      1.955461   1.000000   1.000000
   16        2.855111      2.746172   1.000000   1.000000
   17        2.924915      2.800333   1.000000   1.000000
   18        2.932442      2.813231   1.000000   1.000000
   19        2.945372      2.841622   1.000000   1.000000
   20        3.001104      2.886828   1.000000   1.000000
   21        3.745514      3.567904   1.000000   1.000000
   22        3.826962      3.739787   1.000000   1.000000
   23        3.835007      3.755033   1.000000   1.000000
   24        3.922677      3.792303   1.000000   1.000000
   25        4.212777      4.033627   1.000000   1.000000
   26        4.402961      4.207380   1.000000   1.000000
   27        4.439647      4.289881   1.000000   1.000000
   28        4.478689      4.298380   1.000000   1.000000
   29        4.528385      4.335214   1.000000   1.000000
   30        4.602856      4.371754   1.000000   1.000000
   31        4.622468      4.374896   1.000000   1.000000
   32        4.762255      4.495005   1.000000   1.000000
   33        4.802980      4.567813   1.000000   1.000000
   34        4.915884      4.637946   1.000000   1.000000
   35        4.925348      4.690049   1.000000   1.000000
   36        4.979870      4.741132   1.000000   1.000000
   37        5.013125      4.858353   1.000000   1.000000
   38        5.105877      4.912585   1.000000   1.000000
   39        5.147161      4.988747   1.000000   1.000000
   40        5.242411      5.065320   1.000000   1.000000
   41        5.258981      5.130451   1.000000   1.000000
   42        5.359139      5.136644   1.000000   1.000000
   43        5.459204      5.234743   1.000000   1.000000
   44        5.532153      5.249237   1.000000   1.000000
   45        5.557222      5.275847   1.000000   1.000000
   46        5.584085      5.325591   1.000000   1.000000
   47        5.679664      5.379606   1.000000   1.000000
   48        5.755153      5.482506   1.000000   1.000000
   49        5.765961      5.484321   1.000000   1.000000
   50        5.861388      5.538401   1.000000   1.000000
   51        5.896392      5.560261   1.000000   1.000000
   52        5.942927      5.631875   1.000000   1.000000
   53        6.028759      5.674841   1.000000   1.000000
   54        6.141384      5.686425   1.000000   1.000000
   55        6.239491      5.750878   1.000000   1.000000
   56        6.301851      5.757566   1.000000   1.000000
   57        6.312118      5.814526   1.000000   1.000000
   58        6.342687      5.872815   1.000000   1.000000
   59        6.393159      5.891081   1.000000   1.000000
   60        6.441682      5.965976   1.000000   1.000000
   61        6.483164      5.973252   1.000000   1.000000
   62        6.530052      6.065640   1.000000   1.000000
   63        6.558266      6.081950   1.000000   1.000000
   64        6.592316      6.196598   1.000000   1.000000
   65        6.632825      6.301783   1.000000   1.000000
   66        6.698042      6.311733   1.000000   1.000000
   67        6.772031      6.331898   1.000000   1.000000
   68        6.824522      6.339834   1.000000   1.000000
   69        6.831502      6.376211   1.000000   1.000000
   70        6.905861      6.417176   1.000000   1.000000
   71        6.947797      6.442796   1.000000   1.000000
   72        6.989764      6.491293   1.000001   1.000000
   73        7.055199      6.541279   1.000009   1.000000
   74        7.172473      6.589500   1.000291   1.000000
   75        7.239939      6.591086   1.001471   1.000000
   76        7.247715      6.627399   1.001720   1.000000
   77        7.325732      6.645336   1.007300   1.000000
   78        7.378195      6.678843   1.016419   1.000000
   79        7.402623      6.695088   1.021931   1.000000
   80        7.436692      6.739520   1.028881   1.000000
   81        7.561180      6.758923   0.999990   1.000000
   82        7.603127      6.800959   0.943471   1.000000
   83        7.706267      6.805934   0.615654   1.000000
   84        7.711242      6.838072   0.582437   1.000000
   85        7.748784      6.876903   0.430920   1.000000
   86        7.883578      6.905176   0.023951   1.000000
   87        7.892544      6.951686   0.009157   1.000000
   88        7.979093      6.998574  -0.035404   1.000001
   89        8.076982      7.074041  -0.017197   1.000019
   90        8.183243      7.112062  -0.003009   1.000059
   91        8.281039      7.158944  -0.000339   1.000214
   92        8.294135      7.325984  -0.000249   1.007674
   93        8.406671      7.328196  -0.000009   1.007982
   94        8.412154      7.490257  -0.000008   1.035325
   95        8.500218      7.510752  -0.000000   1.032198
   96        8.574404      7.807197  -0.000000   0.201754
   97        8.612389      7.935050  -0.000000  -0.027778
   98        8.701833      7.968182  -0.000000  -0.035308
   99        8.710291      8.027159  -0.000000  -0.027502
  100        8.757493      8.042194  -0.000000  -0.023566