       N       E                     dE             d eps       ncg     rms          ort
DAV:   1     0.138167704063E+04    0.13817E+04   -0.57614E+04  3672   0.153E+03
DAV:   2    -0.262166635436E+02   -0.14079E+04   -0.13918E+04  3672   0.479E+02
DAV:   3    -0.228785889835E+03   -0.20257E+03   -0.19040E+03  3672   0.192E+02
DAV:   4    -0.263293399245E+03   -0.34508E+02   -0.31927E+02  3672   0.830E+01
DAV:   5    -0.268168265746E+03   -0.48749E+01   -0.45807E+01  3672   0.241E+01
DAV:   6    -0.268996515171E+03   -0.82825E+00   -0.77752E+00  3672   0.733E+00
DAV:   7    -0.269204998099E+03   -0.20848E+00   -0.19674E+00  3672   0.276E+00
DAV:   8    -0.269270588396E+03   -0.65590E-01   -0.62685E-01  3672   0.112E+00
SDA:   9    -0.649812684206E+02    0.20429E+03   -0.62685E-01  3672   0.230E+04 0.000E+00
CGA:  10    -0.209220262553E+03   -0.14424E+03   -0.14704E+03  3672   0.107E+03 0.341E+03
CGA:  11    -0.218253210920E+03   -0.90329E+01   -0.89795E+01  3672   0.553E+02 0.163E+01
CGA:  12    -0.229022602172E+03   -0.10769E+02   -0.10764E+02  3672   0.666E+02 0.595E+00
CGA:  13    -0.233148759394E+03   -0.41262E+01   -0.41641E+01  3672   0.917E+01 0.454E+00
CGA:  14    -0.233972638727E+03   -0.82388E+00   -0.82975E+00  3672   0.573E+01-0.247E-01
CGA:  15    -0.234915373950E+03   -0.94274E+00   -0.94268E+00  3672   0.496E+01 0.120E-02
CGA:  16    -0.235290880837E+03   -0.37551E+00   -0.37606E+00  3672   0.152E+01 0.235E-02
CGA:  17    -0.235519008695E+03   -0.22813E+00   -0.22802E+00  3672   0.169E+01-0.229E-02
CGA:  18    -0.235760617461E+03   -0.24161E+00   -0.24179E+00  3672   0.767E+00 0.102E-02
CGA:  19    -0.235844574082E+03   -0.83957E-01   -0.84076E-01  3672   0.549E+00-0.582E-03
CGA:  20    -0.235953835551E+03   -0.10926E+00   -0.10921E+00  3672   0.778E+00 0.892E-03
CGA:  21    -0.236036575961E+03   -0.82740E-01   -0.82657E-01  3672   0.352E+00-0.759E-03
CGA:  22    -0.236079624172E+03   -0.43048E-01   -0.43006E-01  3672   0.278E+00-0.722E-03
CGA:  23    -0.236123772884E+03   -0.44149E-01   -0.44149E-01  3672   0.278E+00-0.543E-03
CGA:  24    -0.236166847088E+03   -0.43074E-01   -0.43061E-01  3672   0.291E+00-0.124E-02
CGA:  25    -0.236210637401E+03   -0.43790E-01   -0.43784E-01  3672   0.188E+00-0.327E-03
CGA:  26    -0.236233431585E+03   -0.22794E-01   -0.22756E-01  3672   0.117E+00 0.172E-03
CGA:  27    -0.236254498780E+03   -0.21067E-01   -0.21065E-01  3672   0.122E+00 0.467E-03
CGA:  28    -0.236269288977E+03   -0.14790E-01   -0.14809E-01  3672   0.719E-01 0.725E-03
CGA:  29    -0.236279157629E+03   -0.98687E-02   -0.98819E-02  3672   0.763E-01 0.567E-03
CGA:  30    -0.236296217181E+03   -0.17060E-01   -0.17049E-01  3672   0.745E-01 0.448E-03
CGA:  31    -0.236304563292E+03   -0.83461E-02   -0.83801E-02  3672   0.343E-01 0.721E-03
CGA:  32    -0.236309665172E+03   -0.51019E-02   -0.51056E-02  3672   0.364E-01 0.454E-03
CGA:  33    -0.236316393804E+03   -0.67286E-02   -0.67114E-02  3672   0.249E-01 0.577E-03
CGA:  34    -0.236320060493E+03   -0.36667E-02   -0.36692E-02  3672   0.232E-01 0.201E-03
CGA:  35    -0.236324211474E+03   -0.41510E-02   -0.41454E-02  3672   0.297E-01 0.162E-03
CGA:  36    -0.236328109289E+03   -0.38978E-02   -0.38990E-02  3672   0.112E-01 0.833E-04
CGA:  37    -0.236329761726E+03   -0.16524E-02   -0.16529E-02  3672   0.112E-01 0.488E-04
CGA:  38    -0.236332014689E+03   -0.22530E-02   -0.22519E-02  3672   0.152E-01-0.654E-05
CGA:  39    -0.236333998493E+03   -0.19838E-02   -0.19820E-02  3672   0.794E-02-0.513E-04
SDA:  40    -0.236335405681E+03   -0.14072E-02   -0.14082E-02  3672   0.930E-02-0.788E-04
CGA:  41    -0.236336292212E+03   -0.88653E-03   -0.88728E-03  3672   0.653E-02 0.153E-04
CGA:  42    -0.236337125709E+03   -0.83350E-03   -0.83384E-03  3672   0.352E-02 0.136E-04
CGA:  43    -0.236337940523E+03   -0.81481E-03   -0.81522E-03  3672   0.329E-02-0.512E-05
CGA:  44    -0.236338328114E+03   -0.38759E-03   -0.38761E-03  3672   0.289E-02-0.507E-06
CGA:  45    -0.236339088393E+03   -0.76028E-03   -0.75909E-03  3672   0.497E-02 0.103E-04
CGA:  46    -0.236339584929E+03   -0.49654E-03   -0.49647E-03  3672   0.135E-02 0.116E-04
CGA:  47    -0.236340167603E+03   -0.58267E-03   -0.58059E-03  3672   0.248E-02 0.650E-05
CGA:  48    -0.236340402661E+03   -0.23506E-03   -0.23492E-03  3672   0.133E-02 0.218E-05
CGA:  49    -0.236340850238E+03   -0.44758E-03   -0.44947E-03  3672   0.289E-02-0.136E-04
CGA:  50    -0.236341105645E+03   -0.25541E-03   -0.25422E-03  3672   0.696E-03 0.268E-05
CGA:  51    -0.236341316537E+03   -0.21089E-03   -0.21395E-03  3672   0.137E-02-0.207E-04
CGA:  52    -0.236341415807E+03   -0.99269E-04   -0.99041E-04  3672   0.382E-03 0.128E-05
CGA:  53    -0.236341648701E+03   -0.23289E-03   -0.77249E-05  3672   0.805E-02-0.272E-03
CGA:  54    -0.236342108038E+03   -0.45934E-03   -0.25847E-03  3672  -0.229E-02 0.219E-03
CGA:  55    -0.236341730604E+03    0.37743E-03    0.47676E-03  3672   0.429E-03 0.575E-06
CGA:  56    -0.236341769226E+03   -0.38623E-04   -0.39761E-04  3672   0.401E-03-0.731E-05
CGA:  57    -0.236342076005E+03   -0.30678E-03   -0.17771E-03  3672  -0.160E-02 0.678E-03
CGA:  58    -0.236341280803E+03    0.79520E-03    0.59255E-03  3672   0.179E-01-0.184E-02
CGA:  59    -0.236342117244E+03   -0.83644E-03   -0.83093E-03  3672  -0.144E-03 0.530E-04
CGA:  60    -0.236341503713E+03    0.61353E-03   -0.32393E-05  3672   0.928E-02-0.205E-02
CGA:  61    -0.236341973786E+03   -0.47007E-03   -0.47072E-03  3672   0.316E-03-0.189E-04
CGA:  62    -0.236341990098E+03   -0.16312E-04   -0.16267E-04  3672  -0.307E-05-0.643E-06
CGA:  63    -0.236341975399E+03    0.14699E-04   -0.49658E-07  3672   0.230E-04-0.530E-04
CGA:  64    -0.236341976318E+03   -0.91906E-06   -0.95938E-06  3672  -0.439E-05 0.116E-06
CGA:  65    -0.236341971546E+03    0.47727E-05   -0.48600E-06  3672   0.149E-05-0.141E-04
CGA:  66    -0.236341971563E+03   -0.17097E-07   -0.12344E-07  3672   0.154E-05-0.229E-07
   1 F= -.23634197E+03 E0= -.23635081E+03  d E =0.265122E-01  mag=   -12.4812
