 vasp.5.4.4.18Apr17-6-g9f103f2a35 (build Dec 20 2018 12:05:58) complex          
  
 executed on             LinuxIFC date 2019.06.20  13:59:04
 running on   32 total cores
 distrk:  each k-point on    8 cores,    4 groups
 distr:  one band on NCORES_PER_BAND=   4 cores,    2 groups


--------------------------------------------------------------------------------------------------------


 INCAR:
 POTCAR:    PAW_PBE Al 04Jan2001                  
 POTCAR:    PAW_PBE Mn 06Sep2000                  

 ----------------------------------------------------------------------------- 
|                                                                             |
|           W    W    AA    RRRRR   N    N  II  N    N   GGGG   !!!           |
|           W    W   A  A   R    R  NN   N  II  NN   N  G    G  !!!           |
|           W    W  A    A  R    R  N N  N  II  N N  N  G       !!!           |
|           W WW W  AAAAAA  RRRRR   N  N N  II  N  N N  G  GGG   !            |
|           WW  WW  A    A  R   R   N   NN  II  N   NN  G    G                |
|           W    W  A    A  R    R  N    N  II  N    N   GGGG   !!!           |
|                                                                             |
|      You have enabled k-point parallelism (KPAR>1).                         |
|      This developmental code was originally  written by Paul Kent at ORNL,  |
|      and carefully double checked in Vienna.                                |
|      GW as well as linear response parallelism added by Martijn Marsman     |
|      and Georg Kresse.                                                      |
|      Carefully verify results versus KPAR=1.                                |
|      Report problems to Paul Kent and Vienna.                               |
|                                                                             |
 ----------------------------------------------------------------------------- 

 POTCAR:    PAW_PBE Al 04Jan2001                  
   VRHFIN =Al: s2p1                                                             
   LEXCH  = PE                                                                  
   EATOM  =    53.5387 eV,    3.9350 Ry                                         
                                                                                
   TITEL  = PAW_PBE Al 04Jan2001                                                
   LULTRA =        F    use ultrasoft PP ?                                      
   IUNSCR =        1    unscreen: 0-lin 1-nonlin 2-no                           
   RPACOR =    1.500    partial core radius                                     
   POMASS =   26.981; ZVAL   =    3.000    mass and valenz                      
   RCORE  =    1.900    outmost cutoff radius                                   
   RWIGS  =    2.650; RWIGS  =    1.402    wigner-seitz radius (au A)           
   ENMAX  =  240.300; ENMIN  =  180.225 eV                                      
   ICORE  =        2    local potential                                         
   LCOR   =        T    correct aug charges                                     
   LPAW   =        T    paw PP                                                  
   EAUG   =  291.052                                                            
   DEXC   =    0.000                                                            
   RMAX   =    1.939    core radius for proj-oper                               
   RAUG   =    1.300    factor for augmentation sphere                          
   RDEP   =    1.966    radius for radial grids                                 
   RDEPT  =    1.856    core radius for aug-charge                              
                                                                                
   Atomic configuration                                                         
    6 entries                                                                   
     n  l   j            E        occ.                                          
     1  0  0.50     -1511.1048   2.0000                                         
     2  0  0.50      -108.1629   2.0000                                         
     2  1  1.50       -69.6402   6.0000                                         
     3  0  0.50        -7.7528   2.0000                                         
     3  1  1.50        -2.7121   1.0000                                         
     3  2  2.50        -2.7212   0.0000                                         
   Description                                                                  
     l       E           TYP  RCUT    TYP  RCUT                                 
     0     -7.7528455     23  1.900                                             
     0     -3.3096929     23  1.900                                             
     1     -2.7120682     23  1.900                                             
     1     13.6058260     23  1.900                                             
     2     -2.7211652      7  1.900                                             
  local pseudopotential read in
  partial core-charges read in
  partial kinetic energy density read in
  atomic valenz-charges read in
  non local Contribution for L=           0  read in
    real space projection operators read in
  non local Contribution for L=           0  read in
    real space projection operators read in
  non local Contribution for L=           1  read in
    real space projection operators read in
  non local Contribution for L=           1  read in
    real space projection operators read in
    PAW grid and wavefunctions read in
 
   number of l-projection  operators is LMAX  =           4
   number of lm-projection operators is LMMAX =           8
 
 POTCAR:    PAW_PBE Mn 06Sep2000                  
   VRHFIN =Mn: d6 s1                                                            
   LEXCH  = PE                                                                  
   EATOM  =   416.7541 eV,   30.6306 Ry                                         
                                                                                
   TITEL  = PAW_PBE Mn 06Sep2000                                                
   LULTRA =        F    use ultrasoft PP ?                                      
   IUNSCR =        1    unscreen: 0-lin 1-nonlin 2-no                           
   RPACOR =    2.000    partial core radius                                     
   POMASS =   54.938; ZVAL   =    7.000    mass and valenz                      
   RCORE  =    2.300    outmost cutoff radius                                   
   RWIGS  =    2.500; RWIGS  =    1.323    wigner-seitz radius (au A)           
   ENMAX  =  269.864; ENMIN  =  202.398 eV                                      
   RCLOC  =    1.725    cutoff for local pot                                    
   LCOR   =        T    correct aug charges                                     
   LPAW   =        T    paw PP                                                  
   EAUG   =  500.711                                                            
   DEXC   =    0.000                                                            
   RMAX   =    2.343    core radius for proj-oper                               
   RAUG   =    1.300    factor for augmentation sphere                          
   RDEP   =    2.338    radius for radial grids                                 
   RDEPT  =    1.911    core radius for aug-charge                              
                                                                                
   Atomic configuration                                                         
    9 entries                                                                   
     n  l   j            E        occ.                                          
     1  0  0.50     -6424.8288   2.0000                                         
     2  0  0.50      -739.1154   2.0000                                         
     2  1  1.50      -625.3949   6.0000                                         
     3  0  0.50       -81.6100   2.0000                                         
     3  1  1.50       -50.4667   6.0000                                         
     3  2  2.50        -3.3745   6.0000                                         
     4  0  0.50        -4.1331   1.0000                                         
     4  1  0.50        -4.0817   0.0000                                         
     4  3  2.50        -1.3606   0.0000                                         
   Description                                                                  
     l       E           TYP  RCUT    TYP  RCUT                                 
     2     -3.3744664     23  2.300                                             
     2     -4.7350490     23  2.300                                             
     0     -4.1331408     23  2.300                                             
     0      7.6656614     23  2.300                                             
     1     -2.7211652     23  2.300                                             
     1     20.4087390     23  2.300                                             
  local pseudopotential read in
  partial core-charges read in
  partial kinetic energy density read in
  atomic valenz-charges read in
  non local Contribution for L=           2  read in
    real space projection operators read in
  non local Contribution for L=           2  read in
    real space projection operators read in
  non local Contribution for L=           0  read in
    real space projection operators read in
  non local Contribution for L=           0  read in
    real space projection operators read in
  non local Contribution for L=           1  read in
    real space projection operators read in
  non local Contribution for L=           1  read in
    real space projection operators read in
    PAW grid and wavefunctions read in
 
   number of l-projection  operators is LMAX  =           6
   number of lm-projection operators is LMMAX =          18
 

 ----------------------------------------------------------------------------- 
|                                                                             |
|  ADVICE TO THIS USER RUNNING 'VASP/VAMP'   (HEAR YOUR MASTER'S VOICE ...):  |
|                                                                             |
|      You have a (more or less) 'large supercell' and for larger cells       |
|      it might be more efficient to use real space projection opertators     |
|      So try LREAL= Auto  in the INCAR   file.                               |
|      Mind:          For very  accurate calculation you might also keep the  |
|      reciprocal projection scheme          (i.e. LREAL=.FALSE.)             |
|                                                                             |
 ----------------------------------------------------------------------------- 

  PAW_PBE Al 04Jan2001                  :
 energy of atom  1       EATOM=  -53.5387
 kinetic energy error for atom=    0.0005 (will be added to EATOM!!)
  PAW_PBE Mn 06Sep2000                  :
 energy of atom  2       EATOM= -416.7541
 kinetic energy error for atom=    0.0080 (will be added to EATOM!!)
 
 
 POSCAR: NewRef: 18, @ ['Mn', array([1.37502469, 
  positions in cartesian coordinates
  velocities in cartesian coordinates
  No initial velocities read in
 exchange correlation table for  LEXCH =        8
   RHO(1)=    0.500       N(1)  =     2000
   RHO(2)=  100.500       N(2)  =     4000
 


--------------------------------------------------------------------------------------------------------


 ion  position               nearest neighbor table
   1  0.000  0.000  0.000-  20 2.61  24 2.61  32 2.61  36 2.61  31 2.61  23 2.61  35 2.61  19 2.61
                             3 2.75   7 2.75   5 2.75  13 2.75
   2  0.000  0.000  0.500-  19 2.61  23 2.61  31 2.61  35 2.61  20 2.61  32 2.61  24 2.61  36 2.61
                             4 2.75   8 2.75   6 2.75  14 2.75
   3  0.000  0.333  0.000-  20 2.61  32 2.61  22 2.61  34 2.61  19 2.61  31 2.61  33 2.61  21 2.61
                             9 2.75   1 2.75   5 2.75  15 2.75
   4  0.000  0.333  0.500-  19 2.61  31 2.61  21 2.61  33 2.61  32 2.61  20 2.61  22 2.61  34 2.61
                            10 2.75   2 2.75   6 2.75  16 2.75
   5  0.000  0.667  0.000-  22 2.61  34 2.61  24 2.61  36 2.61  21 2.61  33 2.61  35 2.61  23 2.61
                             3 2.75  11 2.75   1 2.75  17 2.75
   6  0.000  0.667  0.500-  21 2.61  33 2.61  23 2.61  35 2.61  34 2.61  22 2.61  24 2.61  36 2.61
                             4 2.75  12 2.75   2 2.75  18 2.75
   7  0.333  0.000  0.000-  20 2.61  24 2.61  26 2.61  30 2.61  23 2.61  19 2.61  29 2.61  25 2.61
                            13 2.75   1 2.75   9 2.75  11 2.75
   8  0.333  0.000  0.500-  19 2.61  23 2.61  25 2.61  29 2.61  20 2.61  24 2.61  26 2.61  30 2.61
                            14 2.75   2 2.75  10 2.75  12 2.75
   9  0.333  0.333  0.000-  20 2.61  22 2.61  26 2.61  19 2.61  28 2.61  21 2.61  25 2.61  27 2.61
                             3 2.75   7 2.75  11 2.75  15 2.75
  10  0.333  0.333  0.500-  19 2.61  21 2.61  25 2.61  20 2.61  27 2.61  26 2.61  22 2.61  28 2.61
                             4 2.75   8 2.75  12 2.75  16 2.75
  11  0.333  0.667  0.000-  22 2.61  24 2.61  28 2.61  21 2.61  30 2.61  23 2.61  27 2.61  29 2.61
                            17 2.75   5 2.75   9 2.75   7 2.75
  12  0.333  0.667  0.500-  21 2.61  23 2.61  27 2.61  22 2.61  29 2.61  28 2.61  24 2.61  30 2.61
                            18 2.75   6 2.75  10 2.75   8 2.75
  13  0.667  0.000  0.000-  26 2.61  30 2.61  32 2.61  36 2.61  29 2.61  25 2.61  35 2.61  31 2.61
                             7 2.75  15 2.75   1 2.75  17 2.75
  14  0.667  0.000  0.500-  25 2.61  29 2.61  31 2.61  35 2.61  26 2.61  30 2.61  32 2.61  36 2.61
                             8 2.75  16 2.75   2 2.75  18 2.75
  15  0.667  0.333  0.000-  26 2.61  28 2.61  32 2.61  25 2.61  34 2.61  27 2.61  31 2.61  33 2.61
                            17 2.75   9 2.75  13 2.75   3 2.75
  16  0.667  0.333  0.500-  25 2.61  27 2.61  31 2.61  26 2.61  33 2.61  32 2.61  28 2.61  34 2.61
                            18 2.75  10 2.75  14 2.75   4 2.75
  17  0.667  0.667  0.000-  28 2.61  30 2.61  34 2.61  27 2.61  36 2.61  29 2.61  33 2.61  35 2.61
                            11 2.75  15 2.75  13 2.75   5 2.75
  18  0.667  0.667  0.500-  27 2.61  29 2.61  33 2.61  28 2.61  35 2.61  34 2.61  30 2.61  36 2.61
                            12 2.75  16 2.75  14 2.75   6 2.75
  19  0.167  0.167  0.250-  10 2.61   8 2.61   4 2.61   9 2.61   2 2.61   7 2.61   3 2.61   1 2.61
                            21 2.75  25 2.75  23 2.75  31 2.75
  20  0.167  0.167  0.750-   9 2.61   7 2.61   3 2.61  10 2.61   1 2.61   4 2.61   8 2.61   2 2.61
                            22 2.75  26 2.75  24 2.75  32 2.75
  21  0.167  0.500  0.250-  12 2.61  10 2.61   6 2.61  11 2.61   4 2.61   9 2.61   5 2.61   3 2.61
                            19 2.75  23 2.75  27 2.75  33 2.75
  22  0.167  0.500  0.750-  11 2.61   9 2.61   5 2.61  12 2.61   3 2.61   6 2.61  10 2.61   4 2.61
                            20 2.75  24 2.75  28 2.75  34 2.75
  23  0.167  0.833  0.250-   8 2.61  12 2.61   2 2.61   6 2.61  11 2.61   7 2.61   5 2.61   1 2.61
                            21 2.75  29 2.75  19 2.75  35 2.75
  24  0.167  0.833  0.750-   7 2.61  11 2.61   1 2.61   5 2.61   8 2.61  12 2.61   2 2.61   6 2.61
                            22 2.75  30 2.75  20 2.75  36 2.75
  25  0.500  0.167  0.250-  16 2.61  14 2.61  10 2.61  15 2.61   8 2.61  13 2.61   9 2.61   7 2.61
                            19 2.75  27 2.75  31 2.75  29 2.75
  26  0.500  0.167  0.750-  15 2.61  13 2.61   9 2.61  16 2.61   7 2.61  10 2.61  14 2.61   8 2.61
                            20 2.75  28 2.75  32 2.75  30 2.75
  27  0.500  0.500  0.250-  18 2.61  16 2.61  12 2.61  17 2.61  10 2.61  15 2.61  11 2.61   9 2.61
                            21 2.75  25 2.75  29 2.75  33 2.75
  28  0.500  0.500  0.750-  17 2.61  15 2.61  11 2.61  18 2.61   9 2.61  12 2.61  16 2.61  10 2.61
                            22 2.75  26 2.75  30 2.75  34 2.75
  29  0.500  0.833  0.250-  14 2.61  18 2.61   8 2.61  12 2.61  17 2.61  13 2.61  11 2.61   7 2.61
                            23 2.75  27 2.75  35 2.75  25 2.75
  30  0.500  0.833  0.750-  13 2.61  17 2.61   7 2.61  11 2.61  14 2.61  18 2.61   8 2.61  12 2.61
                            24 2.75  28 2.75  36 2.75  26 2.75
  31  0.833  0.167  0.250-   4 2.61  16 2.61  14 2.61   2 2.61  15 2.61   3 2.61  13 2.61   1 2.61
                            25 2.75  33 2.75  19 2.75  35 2.75
  32  0.833  0.167  0.750-   3 2.61  15 2.61  13 2.61   1 2.61   4 2.61  16 2.61   2 2.61  14 2.61
                            26 2.75  34 2.75  20 2.75  36 2.75
  33  0.833  0.500  0.250-   6 2.61  18 2.61  16 2.61   4 2.61  17 2.61   5 2.61  15 2.61   3 2.61
                            27 2.75  31 2.75  35 2.75  21 2.75
  34  0.833  0.500  0.750-   5 2.61  17 2.61  15 2.61   3 2.61   6 2.61  18 2.61   4 2.61  16 2.61
                            28 2.75  32 2.75  36 2.75  22 2.75
  35  0.833  0.833  0.250-   2 2.61   6 2.61  14 2.61  18 2.61  13 2.61   5 2.61  17 2.61   1 2.61
                            29 2.75  33 2.75  31 2.75  23 2.75
  36  0.833  0.833  0.750-   1 2.61   5 2.61  13 2.61  17 2.61   2 2.61  14 2.61   6 2.61  18 2.61
                            30 2.75  34 2.75  32 2.75  24 2.75
 
  LATTYP: Found a simple tetragonal cell.
 ALAT       =     8.2501481662
 C/A-ratio  =     0.8428059861
  
  Lattice vectors:
  
 A1 = (   8.2501481662,   0.0000000000,   0.0000000000)
 A2 = (   0.0000000000,   8.2501481662,   0.0000000000)
 A3 = (   0.0000000000,   0.0000000000,   6.9532742610)


Analysis of symmetry for initial positions (statically):
=====================================================================
 Subroutine PRICEL returns following result:
 
  LATTYP: Found a simple tetragonal cell.
 ALAT       =     2.7500493888
 C/A-ratio  =     1.2642089792
  
  Lattice vectors:
  
 A1 = (   2.7500493888,   0.0000000000,   0.0000000000)
 A2 = (   0.0000000000,   2.7500493888,   0.0000000000)
 A3 = (   0.0000000000,   0.0000000000,   3.4766371305)
 
  18 primitive cells build up your supercell.
 

 Routine SETGRP: Setting up the symmetry group for a 
 simple tetragonal supercell.


 Subroutine GETGRP returns: Found 16 space group operations
 (whereof 16 operations were pure point group operations)
 out of a pool of 16 trial point group operations.


The static configuration has the point symmetry D_4h.


Analysis of symmetry for dynamics (positions and initial velocities):
=====================================================================
 Subroutine PRICEL returns following result:
 
  LATTYP: Found a simple tetragonal cell.
 ALAT       =     2.7500493888
 C/A-ratio  =     1.2642089792
  
  Lattice vectors:
  
 A1 = (   2.7500493888,   0.0000000000,   0.0000000000)
 A2 = (   0.0000000000,   2.7500493888,   0.0000000000)
 A3 = (   0.0000000000,   0.0000000000,   3.4766371305)
 
  18 primitive cells build up your supercell.
 

 Routine SETGRP: Setting up the symmetry group for a 
 simple tetragonal supercell.


 Subroutine GETGRP returns: Found 16 space group operations
 (whereof 16 operations were pure point group operations)
 out of a pool of 16 trial point group operations.


The dynamic configuration has the point symmetry D_4h.


Analysis of structural, dynamic, and magnetic symmetry:
=====================================================================
 Subroutine PRICEL returns:
 Original cell was already a primitive cell.
 

 Routine SETGRP: Setting up the symmetry group for a 
 simple tetragonal supercell.


 Subroutine GETGRP returns: Found  4 space group operations
 (whereof  1 operations were pure point group operations)
 out of a pool of 16 trial point group operations.


The magnetic configuration has the point symmetry C_1 .
 The point group associated with its full space group is C_2v.


 Subroutine INISYM returns: Found  4 space group operations
 (whereof  1 operations are pure point group operations),
 and found     1 'primitive' translations

 
 
 KPOINTS: automatic KPOINTS                       

Automatic generation of k-mesh.
 generate k-points for:    5    5    6
Space group operators:
 irot       det(A)        alpha          n_x          n_y          n_z        tau_x        tau_y        tau_z
    1     1.000000     0.000001     1.000000     0.000000     0.000000     0.000000     0.000000     0.000000
    2    -1.000000   179.999999     0.000000     0.000000     1.000000     0.000000     0.000000     0.500000
    3     1.000000   180.000000     0.000000     1.000000     0.000000     0.666667     0.000000     0.000000
    4    -1.000000   180.000000     1.000000     0.000000     0.000000     0.666667     0.000000     0.500000
 
 Subroutine IBZKPT returns following result:
 ===========================================
 
 Found     36 irreducible k-points:
 
 Following reciprocal coordinates:
            Coordinates               Weight
  0.000000  0.000000  0.000000      1.000000
  0.200000  0.000000  0.000000      2.000000
  0.400000  0.000000  0.000000      2.000000
  0.000000  0.200000  0.000000      2.000000
  0.200000  0.200000  0.000000      4.000000
  0.400000  0.200000  0.000000      4.000000
  0.000000  0.400000  0.000000      2.000000
  0.200000  0.400000  0.000000      4.000000
  0.400000  0.400000  0.000000      4.000000
  0.000000  0.000000  0.166667      2.000000
  0.200000  0.000000  0.166667      4.000000
  0.400000  0.000000  0.166667      4.000000
  0.000000  0.200000  0.166667      4.000000
  0.200000  0.200000  0.166667      8.000000
  0.400000  0.200000  0.166667      8.000000
  0.000000  0.400000  0.166667      4.000000
  0.200000  0.400000  0.166667      8.000000
  0.400000  0.400000  0.166667      8.000000
  0.000000  0.000000  0.333333      2.000000
  0.200000  0.000000  0.333333      4.000000
  0.400000  0.000000  0.333333      4.000000
  0.000000  0.200000  0.333333      4.000000
  0.200000  0.200000  0.333333      8.000000
  0.400000  0.200000  0.333333      8.000000
  0.000000  0.400000  0.333333      4.000000
  0.200000  0.400000  0.333333      8.000000
  0.400000  0.400000  0.333333      8.000000
  0.000000  0.000000  0.500000      1.000000
  0.200000  0.000000  0.500000      2.000000
  0.400000  0.000000  0.500000      2.000000
  0.000000  0.200000  0.500000      2.000000
  0.200000  0.200000  0.500000      4.000000
  0.400000  0.200000  0.500000      4.000000
  0.000000  0.400000  0.500000      2.000000
  0.200000  0.400000  0.500000      4.000000
  0.400000  0.400000  0.500000      4.000000
 
 Following cartesian coordinates:
            Coordinates               Weight
  0.000000  0.000000  0.000000      1.000000
  0.024242  0.000000  0.000000      2.000000
  0.048484  0.000000  0.000000      2.000000
  0.000000  0.024242  0.000000      2.000000
  0.024242  0.024242  0.000000      4.000000
  0.048484  0.024242  0.000000      4.000000
  0.000000  0.048484  0.000000      2.000000
  0.024242  0.048484  0.000000      4.000000
  0.048484  0.048484  0.000000      4.000000
  0.000000  0.000000  0.023970      2.000000
  0.024242  0.000000  0.023970      4.000000
  0.048484  0.000000  0.023970      4.000000
  0.000000  0.024242  0.023970      4.000000
  0.024242  0.024242  0.023970      8.000000
  0.048484  0.024242  0.023970      8.000000
  0.000000  0.048484  0.023970      4.000000
  0.024242  0.048484  0.023970      8.000000
  0.048484  0.048484  0.023970      8.000000
  0.000000  0.000000  0.047939      2.000000
  0.024242  0.000000  0.047939      4.000000
  0.048484  0.000000  0.047939      4.000000
  0.000000  0.024242  0.047939      4.000000
  0.024242  0.024242  0.047939      8.000000
  0.048484  0.024242  0.047939      8.000000
  0.000000  0.048484  0.047939      4.000000
  0.024242  0.048484  0.047939      8.000000
  0.048484  0.048484  0.047939      8.000000
  0.000000  0.000000  0.071909      1.000000
  0.024242  0.000000  0.071909      2.000000
  0.048484  0.000000  0.071909      2.000000
  0.000000  0.024242  0.071909      2.000000
  0.024242  0.024242  0.071909      4.000000
  0.048484  0.024242  0.071909      4.000000
  0.000000  0.048484  0.071909      2.000000
  0.024242  0.048484  0.071909      4.000000
  0.048484  0.048484  0.071909      4.000000
 


--------------------------------------------------------------------------------------------------------




 Dimension of arrays:
   k-points           NKPTS =     36   k-points in BZ     NKDIM =     36   number of bands    NBANDS=    102
   number of dos      NEDOS =    301   number of ions     NIONS =     36
   non local maximal  LDIM  =      6   non local SUM 2l+1 LMDIM =     18
   total plane-waves  NPLWV = 139968
   max r-space proj   IRMAX =      1   max aug-charges    IRDMAX=  92271
   dimension x,y,z NGX =    54 NGY =   54 NGZ =   48
   dimension x,y,z NGXF=   108 NGYF=  108 NGZF=   96
   support grid    NGXF=   216 NGYF=  216 NGZF=  192
   ions per type =              18  18
   NGX,Y,Z   is equivalent  to a cutoff of  10.88, 10.88, 11.48 a.u.
   NGXF,Y,Z  is equivalent  to a cutoff of  21.76, 21.76, 22.95 a.u.

 SYSTEM =  AlMn_pv                                 
 POSCAR =  NewRef: 18, @ ['Mn', array([1.37502469, 

 Startparameter for this run:
   NWRITE =      2    write-flag & timer
   PREC   = accura    normal or accurate (medium, high low for compatibility)
   ISTART =      0    job   : 0-new  1-cont  2-samecut
   ICHARG =      2    charge: 1-file 2-atom 10-const
   ISPIN  =      2    spin polarized calculation?
   LNONCOLLINEAR =      F non collinear calculations
   LSORBIT =      F    spin-orbit coupling
   INIWAV =      1    electr: 0-lowe 1-rand  2-diag
   LASPH  =      F    aspherical Exc in radial PAW
   METAGGA=      F    non-selfconsistent MetaGGA calc.

 Electronic Relaxation 1
   ENCUT  =  404.8 eV  29.75 Ry    5.45 a.u.  13.53 13.53 11.41*2*pi/ulx,y,z
   ENINI  =  404.8     initial cutoff
   ENAUG  =  500.7 eV  augmentation charge cutoff
   NELM   =    100;   NELMIN=  4; NELMDL= -8     # of ELM steps 
   EDIFF  = 0.1E-06   stopping-criterion for ELM
   LREAL  =      F    real-space projection
   NLSPLINE    = F    spline interpolate recip. space projectors
   LCOMPAT=      F    compatible to vasp.4.4
   GGA_COMPAT  = T    GGA compatible to vasp.4.4-vasp.4.6
   LMAXPAW     = -100 max onsite density
   LMAXMIX     =    2 max onsite mixed and CHGCAR
   VOSKOWN=      0    Vosko Wilk Nusair interpolation
   ROPT   =    0.00000   0.00000
 Ionic relaxation
   EDIFFG = 0.1E-05   stopping-criterion for IOM
   NSW    =      0    number of steps for IOM
   NBLOCK =      1;   KBLOCK =      1    inner block; outer block 
   IBRION =     -1    ionic relax: 0-MD 1-quasi-New 2-CG
   NFREE  =      0    steps in history (QN), initial steepest desc. (CG)
   ISIF   =      2    stress and relaxation
   IWAVPR =     10    prediction:  0-non 1-charg 2-wave 3-comb
   ISYM   =      2    0-nonsym 1-usesym 2-fastsym
   LCORR  =      T    Harris-Foulkes like correction to forces

   POTIM  = 0.2000    time-step for ionic-motion
   TEIN   =    0.0    initial temperature
   TEBEG  =    0.0;   TEEND  =   0.0 temperature during run
   SMASS  =  -3.00    Nose mass-parameter (am)
   estimated Nose-frequenzy (Omega)   =  0.10E-29 period in steps =****** mass=  -0.156E-26a.u.
   SCALEE = 1.0000    scale energy and forces
   NPACO  =    256;   APACO  = 16.0  distance and # of slots for P.C.
   PSTRESS=    0.0 pullay stress

  Mass of Ions in am
   POMASS =  26.98 54.94
  Ionic Valenz
   ZVAL   =   3.00  7.00
  Atomic Wigner-Seitz radii
   RWIGS  =  -1.00 -1.00
  virtual crystal weights 
   VCA    =   1.00  1.00
   NELECT =     180.0000    total number of electrons
   NUPDOWN=      -1.0000    fix difference up-down

 DOS related values:
   EMIN   =  10.00;   EMAX   =-10.00  energy-range for DOS
   EFERMI =   0.00
   ISMEAR =     1;   SIGMA  =   0.20  broadening in eV -4-tet -1-fermi 0-gaus

 Electronic relaxation 2 (details)
   IALGO  =     58    algorithm
   LDIAG  =      T    sub-space diagonalisation (order eigenvalues)
   LSUBROT=      F    optimize rotation matrix (better conditioning)
   TURBO    =      0    0=normal 1=particle mesh
   IRESTART =      0    0=no restart 2=restart with 2 vectors
   NREBOOT  =      0    no. of reboots
   NMIN     =      0    reboot dimension
   EREF     =   0.00    reference energy to select bands
   IMIX   =      4    mixing-type and parameters
     AMIX     =   0.40;   BMIX     =  1.00
     AMIX_MAG =   1.60;   BMIX_MAG =  1.00
     AMIN     =   0.10
     WC   =   100.;   INIMIX=   1;  MIXPRE=   1;  MAXMIX= -45

 Intra band minimization:
   WEIMIN = 0.0000     energy-eigenvalue tresh-hold
   EBREAK =  0.25E-09  absolut break condition
   DEPER  =   0.30     relativ break condition  

   TIME   =   0.40     timestep for ELM

  volume/ion in A,a.u.               =      13.15        88.72
  Fermi-wavevector in a.u.,A,eV,Ry     =   1.186118  2.241439 19.141722  1.406877
  Thomas-Fermi vector in A             =   2.322298
 
 Write flags
   LWAVE        =      F    write WAVECAR
   LDOWNSAMPLE  =      F    k-point downsampling of WAVECAR
   LCHARG       =      F    write CHGCAR
   LVTOT        =      F    write LOCPOT, total local potential
   LVHAR        =      F    write LOCPOT, Hartree potential only
   LELF         =      F    write electronic localiz. function (ELF)
   LORBIT       =     10    0 simple, 1 ext, 2 COOP (PROOUT), +10 PAW based schemes


 Dipole corrections
   LMONO  =      F    monopole corrections only (constant potential shift)
   LDIPOL =      F    correct potential (dipole corrections)
   IDIPOL =      0    1-x, 2-y, 3-z, 4-all directions 
   EPSILON=  1.0000000 bulk dielectric constant

 Exchange correlation treatment:
   GGA     =    --    GGA type
   LEXCH   =     8    internal setting for exchange type
   VOSKOWN=      0    Vosko Wilk Nusair interpolation
   LHFCALC =     F    Hartree Fock is set to
   LHFONE  =     F    Hartree Fock one center treatment
   AEXX    =    0.0000 exact exchange contribution

 Linear response parameters
   LEPSILON=     F    determine dielectric tensor
   LRPA    =     F    only Hartree local field effects (RPA)
   LNABLA  =     F    use nabla operator in PAW spheres
   LVEL    =     F    velocity operator in full k-point grid
   LINTERFAST=   F  fast interpolation
   KINTER  =     0    interpolate to denser k-point grid
   CSHIFT  =0.1000    complex shift for real part using Kramers Kronig
   OMEGAMAX=  -1.0    maximum frequency
   DEG_THRESHOLD= 0.2000000E-02 threshold for treating states as degnerate
   RTIME   =   -0.100 relaxation time in fs
  (WPLASMAI=    0.000 imaginary part of plasma frequency in eV, 0.658/RTIME)
   DFIELD  = 0.0000000 0.0000000 0.0000000 field for delta impulse in time
 
 Orbital magnetization related:
   ORBITALMAG=     F  switch on orbital magnetization
   LCHIMAG   =     F  perturbation theory with respect to B field
   DQ        =  0.001000  dq finite difference perturbation B field
   LLRAUG    =     F  two centre corrections for induced B field



--------------------------------------------------------------------------------------------------------


 Static calculation
 charge density and potential will be updated during run
 spin polarized calculation
 Conjugate gradient for all bands (Freysoldt, et al. PRB 79, 241103 (2009))
 preconditioned conjugated gradient                                        
 perform sub-space diagonalisation
    before iterative eigenvector-optimisation
 modified Broyden-mixing scheme, WC =      100.0
 initial mixing is a Kerker type mixing with AMIX =  0.4000 and BMIX =      1.0000
 Hartree-type preconditioning will be used
 using additional bands           12
 reciprocal scheme for non local part
 use partial core corrections
 no Harris-corrections to forces 
 use gradient corrections 
 use of overlap-Matrix (Vanderbilt PP)
 Methfessel and Paxton  Order N= 1 SIGMA  =   0.20


--------------------------------------------------------------------------------------------------------


  energy-cutoff  :      404.80
  volume of cell :      473.27
      direct lattice vectors                 reciprocal lattice vectors
     8.250148166  0.000000000  0.000000000     0.121209944  0.000000000  0.000000000
     0.000000000  8.250148166  0.000000000     0.000000000  0.121209944  0.000000000
     0.000000000  0.000000000  6.953274261     0.000000000  0.000000000  0.143817137

  length of vectors
     8.250148166  8.250148166  6.953274261     0.121209944  0.121209944  0.143817137


 
 k-points in units of 2pi/SCALE and weight: automatic KPOINTS                       
   0.00000000  0.00000000  0.00000000       0.007
   0.02424199  0.00000000  0.00000000       0.013
   0.04848398  0.00000000  0.00000000       0.013
   0.00000000  0.02424199  0.00000000       0.013
   0.02424199  0.02424199  0.00000000       0.027
   0.04848398  0.02424199  0.00000000       0.027
   0.00000000  0.04848398  0.00000000       0.013
   0.02424199  0.04848398  0.00000000       0.027
   0.04848398  0.04848398  0.00000000       0.027
   0.00000000  0.00000000  0.02396952       0.013
   0.02424199  0.00000000  0.02396952       0.027
   0.04848398  0.00000000  0.02396952       0.027
   0.00000000  0.02424199  0.02396952       0.027
   0.02424199  0.02424199  0.02396952       0.053
   0.04848398  0.02424199  0.02396952       0.053
   0.00000000  0.04848398  0.02396952       0.027
   0.02424199  0.04848398  0.02396952       0.053
   0.04848398  0.04848398  0.02396952       0.053
   0.00000000  0.00000000  0.04793905       0.013
   0.02424199  0.00000000  0.04793905       0.027
   0.04848398  0.00000000  0.04793905       0.027
   0.00000000  0.02424199  0.04793905       0.027
   0.02424199  0.02424199  0.04793905       0.053
   0.04848398  0.02424199  0.04793905       0.053
   0.00000000  0.04848398  0.04793905       0.027
   0.02424199  0.04848398  0.04793905       0.053
   0.04848398  0.04848398  0.04793905       0.053
   0.00000000  0.00000000  0.07190857       0.007
   0.02424199  0.00000000  0.07190857       0.013
   0.04848398  0.00000000  0.07190857       0.013
   0.00000000  0.02424199  0.07190857       0.013
   0.02424199  0.02424199  0.07190857       0.027
   0.04848398  0.02424199  0.07190857       0.027
   0.00000000  0.04848398  0.07190857       0.013
   0.02424199  0.04848398  0.07190857       0.027
   0.04848398  0.04848398  0.07190857       0.027
 
 k-points in reciprocal lattice and weights: automatic KPOINTS                       
   0.00000000  0.00000000  0.00000000       0.007
   0.20000000  0.00000000  0.00000000       0.013
   0.40000000  0.00000000  0.00000000       0.013
   0.00000000  0.20000000  0.00000000       0.013
   0.20000000  0.20000000  0.00000000       0.027
   0.40000000  0.20000000  0.00000000       0.027
   0.00000000  0.40000000  0.00000000       0.013
   0.20000000  0.40000000  0.00000000       0.027
   0.40000000  0.40000000  0.00000000       0.027
   0.00000000  0.00000000  0.16666667       0.013
   0.20000000  0.00000000  0.16666667       0.027
   0.40000000  0.00000000  0.16666667       0.027
   0.00000000  0.20000000  0.16666667       0.027
   0.20000000  0.20000000  0.16666667       0.053
   0.40000000  0.20000000  0.16666667       0.053
   0.00000000  0.40000000  0.16666667       0.027
   0.20000000  0.40000000  0.16666667       0.053
   0.40000000  0.40000000  0.16666667       0.053
   0.00000000  0.00000000  0.33333333       0.013
   0.20000000  0.00000000  0.33333333       0.027
   0.40000000  0.00000000  0.33333333       0.027
   0.00000000  0.20000000  0.33333333       0.027
   0.20000000  0.20000000  0.33333333       0.053
   0.40000000  0.20000000  0.33333333       0.053
   0.00000000  0.40000000  0.33333333       0.027
   0.20000000  0.40000000  0.33333333       0.053
   0.40000000  0.40000000  0.33333333       0.053
   0.00000000  0.00000000  0.50000000       0.007
   0.20000000  0.00000000  0.50000000       0.013
   0.40000000  0.00000000  0.50000000       0.013
   0.00000000  0.20000000  0.50000000       0.013
   0.20000000  0.20000000  0.50000000       0.027
   0.40000000  0.20000000  0.50000000       0.027
   0.00000000  0.40000000  0.50000000       0.013
   0.20000000  0.40000000  0.50000000       0.027
   0.40000000  0.40000000  0.50000000       0.027
 
 position of ions in fractional coordinates (direct lattice) 
   0.00000000  0.00000000  0.00000000
   0.00000000  0.00000000  0.50000000
   0.00000000  0.33333333  0.00000000
   0.00000000  0.33333333  0.50000000
   0.00000000  0.66666667  0.00000000
   0.00000000  0.66666667  0.50000000
   0.33333333  0.00000000  0.00000000
   0.33333333  0.00000000  0.50000000
   0.33333333  0.33333333  0.00000000
   0.33333333  0.33333333  0.50000000
   0.33333333  0.66666667  0.00000000
   0.33333333  0.66666667  0.50000000
   0.66666667  0.00000000  0.00000000
   0.66666667  0.00000000  0.50000000
   0.66666667  0.33333333  0.00000000
   0.66666667  0.33333333  0.50000000
   0.66666667  0.66666667  0.00000000
   0.66666667  0.66666667  0.50000000
   0.16666667  0.16666667  0.25000000
   0.16666667  0.16666667  0.75000000
   0.16666667  0.50000000  0.25000000
   0.16666667  0.50000000  0.75000000
   0.16666667  0.83333333  0.25000000
   0.16666667  0.83333333  0.75000000
   0.50000000  0.16666667  0.25000000
   0.50000000  0.16666667  0.75000000
   0.50000000  0.50000000  0.25000000
   0.50000000  0.50000000  0.75000000
   0.50000000  0.83333333  0.25000000
   0.50000000  0.83333333  0.75000000
   0.83333333  0.16666667  0.25000000
   0.83333333  0.16666667  0.75000000
   0.83333333  0.50000000  0.25000000
   0.83333333  0.50000000  0.75000000
   0.83333333  0.83333333  0.25000000
   0.83333333  0.83333333  0.75000000
 
 position of ions in cartesian coordinates  (Angst):
   0.00000000  0.00000000  0.00000000
   0.00000000  0.00000000  3.47663713
   0.00000000  2.75004939  0.00000000
   0.00000000  2.75004939  3.47663713
   0.00000000  5.50009878  0.00000000
   0.00000000  5.50009878  3.47663713
   2.75004939  0.00000000  0.00000000
   2.75004939  0.00000000  3.47663713
   2.75004939  2.75004939  0.00000000
   2.75004939  2.75004939  3.47663713
   2.75004939  5.50009878  0.00000000
   2.75004939  5.50009878  3.47663713
   5.50009878  0.00000000  0.00000000
   5.50009878  0.00000000  3.47663713
   5.50009878  2.75004939  0.00000000
   5.50009878  2.75004939  3.47663713
   5.50009878  5.50009878  0.00000000
   5.50009878  5.50009878  3.47663713
   1.37502469  1.37502469  1.73831857
   1.37502469  1.37502469  5.21495570
   1.37502469  4.12507408  1.73831857
   1.37502469  4.12507408  5.21495570
   1.37502469  6.87512347  1.73831857
   1.37502469  6.87512347  5.21495570
   4.12507408  1.37502469  1.73831857
   4.12507408  1.37502469  5.21495570
   4.12507408  4.12507408  1.73831857
   4.12507408  4.12507408  5.21495570
   4.12507408  6.87512347  1.73831857
   4.12507408  6.87512347  5.21495570
   6.87512347  1.37502469  1.73831857
   6.87512347  1.37502469  5.21495570
   6.87512347  4.12507408  1.73831857
   6.87512347  4.12507408  5.21495570
   6.87512347  6.87512347  1.73831857
   6.87512347  6.87512347  5.21495570
 


--------------------------------------------------------------------------------------------------------


 k-point  1 :   0.0000 0.0000 0.0000  plane waves:    8799
 k-point  2 :   0.2000 0.0000 0.0000  plane waves:    8753
 k-point  3 :   0.4000 0.0000 0.0000  plane waves:    8757
 k-point  4 :   0.0000 0.2000 0.0000  plane waves:    8753
 k-point  5 :   0.2000 0.2000 0.0000  plane waves:    8767
 k-point  6 :   0.4000 0.2000 0.0000  plane waves:    8761
 k-point  7 :   0.0000 0.4000 0.0000  plane waves:    8757
 k-point  8 :   0.2000 0.4000 0.0000  plane waves:    8761
 k-point  9 :   0.4000 0.4000 0.0000  plane waves:    8731
 k-point 10 :   0.0000 0.0000 0.1667  plane waves:    8763
 k-point 11 :   0.2000 0.0000 0.1667  plane waves:    8771
 k-point 12 :   0.4000 0.0000 0.1667  plane waves:    8747
 k-point 13 :   0.0000 0.2000 0.1667  plane waves:    8771
 k-point 14 :   0.2000 0.2000 0.1667  plane waves:    8764
 k-point 15 :   0.4000 0.2000 0.1667  plane waves:    8768
 k-point 16 :   0.0000 0.4000 0.1667  plane waves:    8747
 k-point 17 :   0.2000 0.4000 0.1667  plane waves:    8768
 k-point 18 :   0.4000 0.4000 0.1667  plane waves:    8740
 k-point 19 :   0.0000 0.0000 0.3333  plane waves:    8743
 k-point 20 :   0.2000 0.0000 0.3333  plane waves:    8736
 k-point 21 :   0.4000 0.0000 0.3333  plane waves:    8753
 k-point 22 :   0.0000 0.2000 0.3333  plane waves:    8736
 k-point 23 :   0.2000 0.2000 0.3333  plane waves:    8753
 k-point 24 :   0.4000 0.2000 0.3333  plane waves:    8743
 k-point 25 :   0.0000 0.4000 0.3333  plane waves:    8753
 k-point 26 :   0.2000 0.4000 0.3333  plane waves:    8743
 k-point 27 :   0.4000 0.4000 0.3333  plane waves:    8755
 k-point 28 :   0.0000 0.0000 0.5000  plane waves:    8742
 k-point 29 :   0.2000 0.0000 0.5000  plane waves:    8756
 k-point 30 :   0.4000 0.0000 0.5000  plane waves:    8744
 k-point 31 :   0.0000 0.2000 0.5000  plane waves:    8756
 k-point 32 :   0.2000 0.2000 0.5000  plane waves:    8762
 k-point 33 :   0.4000 0.2000 0.5000  plane waves:    8732
 k-point 34 :   0.0000 0.4000 0.5000  plane waves:    8744
 k-point 35 :   0.2000 0.4000 0.5000  plane waves:    8732
 k-point 36 :   0.4000 0.4000 0.5000  plane waves:    8736

 maximum and minimum number of plane-waves per node :      2208     2165

 maximum number of plane-waves:      8799
 maximum index in each direction: 
   IXMAX=   13   IYMAX=   13   IZMAX=   11
   IXMIN=  -13   IYMIN=  -13   IZMIN=  -11


 parallel 3D FFT for wavefunctions:
    minimum data exchange during FFTs selected (reduces bandwidth)
 parallel 3D FFT for charge:
    minimum data exchange during FFTs selected (reduces bandwidth)


 total amount of memory used by VASP MPI-rank0   501577. kBytes
=======================================================================

   base      :      30000. kBytes
   nonl-proj :      24164. kBytes
   fftplans  :      21726. kBytes
   grid      :      14732. kBytes
   one-center:        279. kBytes
   wavefun   :     410676. kBytes
 
     INWAV:  cpu time    0.0000: real time    0.0000
 Broyden mixing: mesh for mixing (old mesh)
   NGX = 27   NGY = 27   NGZ = 23
  (NGX  =108   NGY  =108   NGZ  = 96)
  gives a total of  16767 points

 initial charge density was supplied:
 charge density of overlapping atoms calculated
 number of electron     180.0000000 magnetization     -18.0000000
 keeping initial charge density in first step


--------------------------------------------------------------------------------------------------------


 Maximum index for augmentation-charges        11261 (set IRDMAX)


--------------------------------------------------------------------------------------------------------


 First call to EWALD:  gamma=   0.227
 Maximum number of real-space cells 3x 3x 3
 Maximum number of reciprocal cells 3x 3x 3

    FEWALD:  cpu time    0.0077: real time    0.0077


--------------------------------------- Iteration      1(   1)  ---------------------------------------


    POTLOK:  cpu time    0.2510: real time    0.2510
    SETDIJ:  cpu time    0.3208: real time    0.3209
    TRIAL :  cpu time   12.9909: real time   13.1283
    CORREC:  cpu time    0.0552: real time    0.0557
    --------------------------------------------
      LOOP:  cpu time   13.7571: real time   13.9013

 eigenvalue-minimisations  : 14688
 total energy-change (2. order) : 0.1381677E+04  (-0.5761351E+04)
 number of electron     180.0000000 magnetization     -18.0000000
 augmentation part      180.0000000 magnetization     -18.0000000

 Free energy of the ion-electron system (eV)
  ---------------------------------------------------
  alpha Z        PSCENC =       532.25742704
  Ewald energy   TEWEN  =     -8601.05107233
  -Hartree energ DENC   =     -1903.73857242
  -exchange      EXHF   =         0.00000000
  -V(xc)+E(xc)   XCENC  =      -664.51731919
  PAW double counting   =      8494.55058411    -7650.81563588
  entropy T*S    EENTRO =         0.00426352
  eigenvalues    EBANDS =      2709.87135733
  atomic energy  EATOM  =      8465.11600846
  ---------------------------------------------------
  free energy    TOTEN  =      1381.67704063 eV

  energy without entropy =     1381.67277712  energy(sigma->0) =     1381.67561946


--------------------------------------------------------------------------------------------------------




--------------------------------------- Iteration      1(   2)  ---------------------------------------


    TRIAL :  cpu time   11.4392: real time   11.5445
    CORREC:  cpu time    0.0053: real time    0.0055
    --------------------------------------------
      LOOP:  cpu time   11.4454: real time   11.5532

 eigenvalue-minimisations  : 14688
 total energy-change (2. order) :-0.1407894E+04  (-0.1391764E+04)
 number of electron     180.0000000 magnetization     -18.0000000
 augmentation part      180.0000000 magnetization     -18.0000000

 Free energy of the ion-electron system (eV)
  ---------------------------------------------------
  alpha Z        PSCENC =       532.25742704
  Ewald energy   TEWEN  =     -8601.05107233
  -Hartree energ DENC   =     -1903.73857242
  -exchange      EXHF   =         0.00000000
  -V(xc)+E(xc)   XCENC  =      -664.51731919
  PAW double counting   =      8494.55058411    -7650.81563588
  entropy T*S    EENTRO =        -0.00094747
  eigenvalues    EBANDS =      1301.98286413
  atomic energy  EATOM  =      8465.11600846
  ---------------------------------------------------
  free energy    TOTEN  =       -26.21666354 eV

  energy without entropy =      -26.21571607  energy(sigma->0) =      -26.21634772


--------------------------------------------------------------------------------------------------------




--------------------------------------- Iteration      1(   3)  ---------------------------------------


    TRIAL :  cpu time   16.2700: real time   16.3442
    CORREC:  cpu time    0.0060: real time    0.0062
    --------------------------------------------
      LOOP:  cpu time   16.2787: real time   16.3536

 eigenvalue-minimisations  : 22992
 total energy-change (2. order) :-0.2025692E+03  (-0.1904046E+03)
 number of electron     180.0000000 magnetization     -18.0000000
 augmentation part      180.0000000 magnetization     -18.0000000

 Free energy of the ion-electron system (eV)
  ---------------------------------------------------
  alpha Z        PSCENC =       532.25742704
  Ewald energy   TEWEN  =     -8601.05107233
  -Hartree energ DENC   =     -1903.73857242
  -exchange      EXHF   =         0.00000000
  -V(xc)+E(xc)   XCENC  =      -664.51731919
  PAW double counting   =      8494.55058411    -7650.81563588
  entropy T*S    EENTRO =         0.00578465
  eigenvalues    EBANDS =      1099.40690573
  atomic energy  EATOM  =      8465.11600846
  ---------------------------------------------------
  free energy    TOTEN  =      -228.78588983 eV

  energy without entropy =     -228.79167448  energy(sigma->0) =     -228.78781805


--------------------------------------------------------------------------------------------------------




--------------------------------------- Iteration      1(   4)  ---------------------------------------


    TRIAL :  cpu time   17.0220: real time   17.1572
    CORREC:  cpu time    0.0063: real time    0.0072
    --------------------------------------------
      LOOP:  cpu time   17.0292: real time   17.1676

 eigenvalue-minimisations  : 24440
 total energy-change (2. order) :-0.3450751E+02  (-0.3192693E+02)
 number of electron     180.0000000 magnetization     -18.0000000
 augmentation part      180.0000000 magnetization     -18.0000000

 Free energy of the ion-electron system (eV)
  ---------------------------------------------------
  alpha Z        PSCENC =       532.25742704
  Ewald energy   TEWEN  =     -8601.05107233
  -Hartree energ DENC   =     -1903.73857242
  -exchange      EXHF   =         0.00000000
  -V(xc)+E(xc)   XCENC  =      -664.51731919
  PAW double counting   =      8494.55058411    -7650.81563588
  entropy T*S    EENTRO =         0.02133168
  eigenvalues    EBANDS =      1064.88384928
  atomic energy  EATOM  =      8465.11600846
  ---------------------------------------------------
  free energy    TOTEN  =      -263.29339924 eV

  energy without entropy =     -263.31473093  energy(sigma->0) =     -263.30050981


--------------------------------------------------------------------------------------------------------




--------------------------------------- Iteration      1(   5)  ---------------------------------------


    TRIAL :  cpu time   18.2932: real time   18.4570
    CORREC:  cpu time    0.0066: real time    0.0067
    --------------------------------------------
      LOOP:  cpu time   18.3005: real time   18.4672

 eigenvalue-minimisations  : 25120
 total energy-change (2. order) :-0.4874867E+01  (-0.4580703E+01)
 number of electron     180.0000000 magnetization     -18.0000000
 augmentation part      180.0000000 magnetization     -18.0000000

 Free energy of the ion-electron system (eV)
  ---------------------------------------------------
  alpha Z        PSCENC =       532.25742704
  Ewald energy   TEWEN  =     -8601.05107233
  -Hartree energ DENC   =     -1903.73857242
  -exchange      EXHF   =         0.00000000
  -V(xc)+E(xc)   XCENC  =      -664.51731919
  PAW double counting   =      8494.55058411    -7650.81563588
  entropy T*S    EENTRO =         0.03794187
  eigenvalues    EBANDS =      1059.99237259
  atomic energy  EATOM  =      8465.11600846
  ---------------------------------------------------
  free energy    TOTEN  =      -268.16826575 eV

  energy without entropy =     -268.20620762  energy(sigma->0) =     -268.18091304


--------------------------------------------------------------------------------------------------------




--------------------------------------- Iteration      1(   6)  ---------------------------------------


    TRIAL :  cpu time   17.4550: real time   17.5435
    CORREC:  cpu time    0.0065: real time    0.0067
    --------------------------------------------
      LOOP:  cpu time   17.4623: real time   17.5535

 eigenvalue-minimisations  : 24960
 total energy-change (2. order) :-0.8282494E+00  (-0.7775194E+00)
 number of electron     180.0000000 magnetization     -18.0000000
 augmentation part      180.0000000 magnetization     -18.0000000

 Free energy of the ion-electron system (eV)
  ---------------------------------------------------
  alpha Z        PSCENC =       532.25742704
  Ewald energy   TEWEN  =     -8601.05107233
  -Hartree energ DENC   =     -1903.73857242
  -exchange      EXHF   =         0.00000000
  -V(xc)+E(xc)   XCENC  =      -664.51731919
  PAW double counting   =      8494.55058411    -7650.81563588
  entropy T*S    EENTRO =         0.04207465
  eigenvalues    EBANDS =      1059.15999039
  atomic energy  EATOM  =      8465.11600846
  ---------------------------------------------------
  free energy    TOTEN  =      -268.99651517 eV

  energy without entropy =     -269.03858982  energy(sigma->0) =     -269.01054005


--------------------------------------------------------------------------------------------------------




--------------------------------------- Iteration      1(   7)  ---------------------------------------


    TRIAL :  cpu time   17.5364: real time   17.7596
    CORREC:  cpu time    0.0066: real time    0.0075
    --------------------------------------------
      LOOP:  cpu time   17.5438: real time   17.7709

 eigenvalue-minimisations  : 25360
 total energy-change (2. order) :-0.2084829E+00  (-0.1967437E+00)
 number of electron     180.0000000 magnetization     -18.0000000
 augmentation part      180.0000000 magnetization     -18.0000000

 Free energy of the ion-electron system (eV)
  ---------------------------------------------------
  alpha Z        PSCENC =       532.25742704
  Ewald energy   TEWEN  =     -8601.05107233
  -Hartree energ DENC   =     -1903.73857242
  -exchange      EXHF   =         0.00000000
  -V(xc)+E(xc)   XCENC  =      -664.51731919
  PAW double counting   =      8494.55058411    -7650.81563588
  entropy T*S    EENTRO =         0.04500987
  eigenvalues    EBANDS =      1058.94857224
  atomic energy  EATOM  =      8465.11600846
  ---------------------------------------------------
  free energy    TOTEN  =      -269.20499810 eV

  energy without entropy =     -269.25000797  energy(sigma->0) =     -269.22000139


--------------------------------------------------------------------------------------------------------




--------------------------------------- Iteration      1(   8)  ---------------------------------------


    TRIAL :  cpu time   18.1643: real time   18.3006
    CORREC:  cpu time    0.0068: real time    0.0077
    CHARGE:  cpu time    0.8267: real time    0.8523
    --------------------------------------------
      LOOP:  cpu time   18.9993: real time   19.1643

 eigenvalue-minimisations  : 24592
 total energy-change (2. order) :-0.6559030E-01  (-0.6268523E-01)
 number of electron     179.9999997 magnetization     -12.8763552
 augmentation part       42.6833955 magnetization      -7.5011480

 Free energy of the ion-electron system (eV)
  ---------------------------------------------------
  alpha Z        PSCENC =       532.25742704
  Ewald energy   TEWEN  =     -8601.05107233
  -Hartree energ DENC   =     -1903.73857242
  -exchange      EXHF   =         0.00000000
  -V(xc)+E(xc)   XCENC  =      -664.51731919
  PAW double counting   =      8494.55058411    -7650.81563588
  entropy T*S    EENTRO =         0.04659973
  eigenvalues    EBANDS =      1058.88139208
  atomic energy  EATOM  =      8465.11600846
  ---------------------------------------------------
  free energy    TOTEN  =      -269.27058840 eV

  energy without entropy =     -269.31718813  energy(sigma->0) =     -269.28612164


--------------------------------------------------------------------------------------------------------




--------------------------------------- Iteration      1(   9)  ---------------------------------------


    POTLOK:  cpu time    0.2523: real time    0.2528
    SETDIJ:  cpu time    0.3079: real time    0.3304
    TRIAL :  cpu time    6.2799: real time    6.2976
    CORREC:  cpu time    2.4974: real time    2.5689
    CHARGE:  cpu time    0.8457: real time    0.8534
    --------------------------------------------
      LOOP:  cpu time   10.1984: real time   10.3197

 eigenvalue-minimisations  :     0
 total energy-change (2. order) : 0.2042893E+03  (-0.1470412E+03)
 number of electron     179.9999997 magnetization     -13.1343285
 augmentation part       54.7133142 magnetization      -8.5775397

 Free energy of the ion-electron system (eV)
  ---------------------------------------------------
  alpha Z        PSCENC =       532.25742704
  Ewald energy   TEWEN  =     -8601.05107233
  -Hartree energ DENC   =      -845.80622210
  -exchange      EXHF   =         0.00000000
  -V(xc)+E(xc)   XCENC  =      -694.71160506
  PAW double counting   =     12767.84526903   -11821.37237272
  entropy T*S    EENTRO =         0.04529996
  eigenvalues    EBANDS =       132.69469953
  atomic energy  EATOM  =      8465.11600846
  ---------------------------------------------------
  free energy    TOTEN  =       -64.98126842 eV

  energy without entropy =      -65.02656838  energy(sigma->0) =      -64.99636841


--------------------------------------------------------------------------------------------------------




--------------------------------------- Iteration      1(  10)  ---------------------------------------


    POTLOK:  cpu time    0.2469: real time    0.2472
    SETDIJ:  cpu time    0.3215: real time    0.3217
    TRIAL :  cpu time    5.7300: real time    5.7363
    CORREC:  cpu time    2.4444: real time    2.4484
    CHARGE:  cpu time    0.8690: real time    0.8737
    --------------------------------------------
      LOOP:  cpu time    9.6155: real time    9.6322

 eigenvalue-minimisations  :     0
 total energy-change (2. order) :-0.1442390E+03  (-0.8979479E+01)
 number of electron     179.9999996 magnetization     -13.0075168
 augmentation part       57.9279828 magnetization      -8.8776154

 Free energy of the ion-electron system (eV)
  ---------------------------------------------------
  alpha Z        PSCENC =       532.25742704
  Ewald energy   TEWEN  =     -8601.05107233
  -Hartree energ DENC   =     -1388.42640412
  -exchange      EXHF   =         0.00000000
  -V(xc)+E(xc)   XCENC  =      -676.01070491
  PAW double counting   =     13705.77971214   -12877.99309875
  entropy T*S    EENTRO =         0.03496087
  eigenvalues    EBANDS =       631.06256995
  atomic energy  EATOM  =      8465.11600846
  ---------------------------------------------------
  free energy    TOTEN  =      -209.22026255 eV

  energy without entropy =     -209.25522342  energy(sigma->0) =     -209.23191618


--------------------------------------------------------------------------------------------------------




--------------------------------------- Iteration      1(  11)  ---------------------------------------


    POTLOK:  cpu time    0.2474: real time    0.2478
    SETDIJ:  cpu time    0.3213: real time    0.3219
    TRIAL :  cpu time    5.7041: real time    5.7160
    CORREC:  cpu time    2.4686: real time    2.5123
    CHARGE:  cpu time    0.8238: real time    0.8238
    --------------------------------------------
      LOOP:  cpu time    9.5799: real time    9.6379

 eigenvalue-minimisations  :     0
 total energy-change (2. order) :-0.9032948E+01  (-0.1076395E+02)
 number of electron     179.9999996 magnetization     -12.8213657
 augmentation part       59.1725393 magnetization      -8.9352786

 Free energy of the ion-electron system (eV)
  ---------------------------------------------------
  alpha Z        PSCENC =       532.25742704
  Ewald energy   TEWEN  =     -8601.05107233
  -Hartree energ DENC   =     -1575.19929377
  -exchange      EXHF   =         0.00000000
  -V(xc)+E(xc)   XCENC  =      -669.45080835
  PAW double counting   =     14463.42064490   -13668.24053859
  entropy T*S    EENTRO =         0.02633546
  eigenvalues    EBANDS =       834.85946086
  atomic energy  EATOM  =      8465.11600846
  ---------------------------------------------------
  free energy    TOTEN  =      -218.25321092 eV

  energy without entropy =     -218.27954638  energy(sigma->0) =     -218.26198941


--------------------------------------------------------------------------------------------------------




--------------------------------------- Iteration      1(  12)  ---------------------------------------


    POTLOK:  cpu time    0.2480: real time    0.2479
    SETDIJ:  cpu time    0.3418: real time    0.3417
    TRIAL :  cpu time    5.5891: real time    5.6511
    CORREC:  cpu time    2.5427: real time    2.5470
    CHARGE:  cpu time    0.8387: real time    0.8391
    --------------------------------------------
      LOOP:  cpu time    9.5650: real time    9.6319

 eigenvalue-minimisations  :     0
 total energy-change (2. order) :-0.1076939E+02  (-0.4164147E+01)
 number of electron     179.9999996 magnetization     -12.4287551
 augmentation part       57.9634362 magnetization      -8.7294513

 Free energy of the ion-electron system (eV)
  ---------------------------------------------------
  alpha Z        PSCENC =       532.25742704
  Ewald energy   TEWEN  =     -8601.05107233
  -Hartree energ DENC   =     -1719.92558279
  -exchange      EXHF   =         0.00000000
  -V(xc)+E(xc)   XCENC  =      -664.86500814
  PAW double counting   =     14453.36708016   -13653.34965098
  entropy T*S    EENTRO =         0.01851654
  eigenvalues    EBANDS =       959.40186096
  atomic energy  EATOM  =      8465.11600846
  ---------------------------------------------------
  free energy    TOTEN  =      -229.02260217 eV

  energy without entropy =     -229.04111871  energy(sigma->0) =     -229.02877435


--------------------------------------------------------------------------------------------------------




--------------------------------------- Iteration      1(  13)  ---------------------------------------


    POTLOK:  cpu time    0.2470: real time    0.2474
    SETDIJ:  cpu time    0.3224: real time    0.3225
    TRIAL :  cpu time    5.7174: real time    5.7722
    CORREC:  cpu time    2.4508: real time    2.4550
    CHARGE:  cpu time    0.8421: real time    0.8426
    --------------------------------------------
      LOOP:  cpu time    9.5931: real time    9.6553

 eigenvalue-minimisations  :     0
 total energy-change (2. order) :-0.4126157E+01  (-0.8297523E+00)
 number of electron     179.9999997 magnetization     -12.4067400
 augmentation part       57.2127718 magnetization      -8.6035844

 Free energy of the ion-electron system (eV)
  ---------------------------------------------------
  alpha Z        PSCENC =       532.25742704
  Ewald energy   TEWEN  =     -8601.05107233
  -Hartree energ DENC   =     -1686.22142618
  -exchange      EXHF   =         0.00000000
  -V(xc)+E(xc)   XCENC  =      -666.52869130
  PAW double counting   =     14190.02983012   -13366.44825515
  entropy T*S    EENTRO =         0.01967206
  eigenvalues    EBANDS =       899.67890342
  atomic energy  EATOM  =      8465.11600846
  ---------------------------------------------------
  free energy    TOTEN  =      -233.14875939 eV

  energy without entropy =     -233.16843146  energy(sigma->0) =     -233.15531675


--------------------------------------------------------------------------------------------------------




--------------------------------------- Iteration      1(  14)  ---------------------------------------


    POTLOK:  cpu time    0.2471: real time    0.2474
    SETDIJ:  cpu time    0.3210: real time    0.3223
    TRIAL :  cpu time    6.5616: real time    6.6771
    CORREC:  cpu time    2.4922: real time    2.5310
    CHARGE:  cpu time    0.8235: real time    0.8237
    --------------------------------------------
      LOOP:  cpu time   10.4472: real time   10.6054

 eigenvalue-minimisations  :     0
 total energy-change (2. order) :-0.8238793E+00  (-0.9426773E+00)
 number of electron     179.9999996 magnetization     -12.1565832
 augmentation part       57.3523146 magnetization      -8.3394107

 Free energy of the ion-electron system (eV)
  ---------------------------------------------------
  alpha Z        PSCENC =       532.25742704
  Ewald energy   TEWEN  =     -8601.05107233
  -Hartree energ DENC   =     -1645.88499212
  -exchange      EXHF   =         0.00000000
  -V(xc)+E(xc)   XCENC  =      -668.06123492
  PAW double counting   =     13839.76775843   -13004.79319833
  entropy T*S    EENTRO =         0.01760841
  eigenvalues    EBANDS =       848.65699299
  atomic energy  EATOM  =      8465.11600846
  ---------------------------------------------------
  free energy    TOTEN  =      -233.97263873 eV

  energy without entropy =     -233.99024714  energy(sigma->0) =     -233.97850820


--------------------------------------------------------------------------------------------------------




--------------------------------------- Iteration      1(  15)  ---------------------------------------


    POTLOK:  cpu time    0.2477: real time    0.2478
    SETDIJ:  cpu time    0.3316: real time    0.3573
    TRIAL :  cpu time    6.2812: real time    6.3071
    CORREC:  cpu time    2.5503: real time    2.5601
    CHARGE:  cpu time    0.8281: real time    0.8905
    --------------------------------------------
      LOOP:  cpu time   10.2421: real time   10.3666

 eigenvalue-minimisations  :     0
 total energy-change (2. order) :-0.9427352E+00  (-0.3760634E+00)
 number of electron     179.9999996 magnetization     -12.0895736
 augmentation part       57.8790588 magnetization      -8.2932140

 Free energy of the ion-electron system (eV)
  ---------------------------------------------------
  alpha Z        PSCENC =       532.25742704
  Ewald energy   TEWEN  =     -8601.05107233
  -Hartree energ DENC   =     -1641.86000140
  -exchange      EXHF   =         0.00000000
  -V(xc)+E(xc)   XCENC  =      -668.34532970
  PAW double counting   =     13239.07756921   -12401.52809723
  entropy T*S    EENTRO =         0.01782937
  eigenvalues    EBANDS =       841.40051359
  atomic energy  EATOM  =      8465.11600846
  ---------------------------------------------------
  free energy    TOTEN  =      -234.91537395 eV

  energy without entropy =     -234.93320332  energy(sigma->0) =     -234.92131707


--------------------------------------------------------------------------------------------------------




--------------------------------------- Iteration      1(  16)  ---------------------------------------


    POTLOK:  cpu time    0.2489: real time    0.2489
    SETDIJ:  cpu time    0.3227: real time    0.3227
    TRIAL :  cpu time    5.7228: real time    5.7247
    CORREC:  cpu time    2.4891: real time    2.4905
    CHARGE:  cpu time    0.8464: real time    0.8533
    --------------------------------------------
      LOOP:  cpu time    9.6310: real time    9.6428

 eigenvalue-minimisations  :     0
 total energy-change (2. order) :-0.3755069E+00  (-0.2280175E+00)
 number of electron     179.9999996 magnetization     -11.9309372
 augmentation part       58.2755703 magnetization      -8.2746781

 Free energy of the ion-electron system (eV)
  ---------------------------------------------------
  alpha Z        PSCENC =       532.25742704
  Ewald energy   TEWEN  =     -8601.05107233
  -Hartree energ DENC   =     -1663.43099302
  -exchange      EXHF   =         0.00000000
  -V(xc)+E(xc)   XCENC  =      -667.53082479
  PAW double counting   =     13051.44772139   -12218.41093270
  entropy T*S    EENTRO =         0.01689930
  eigenvalues    EBANDS =       866.29395576
  atomic energy  EATOM  =      8465.11600846
  ---------------------------------------------------
  free energy    TOTEN  =      -235.29088084 eV

  energy without entropy =     -235.30778013  energy(sigma->0) =     -235.29651394


--------------------------------------------------------------------------------------------------------




--------------------------------------- Iteration      1(  17)  ---------------------------------------


    POTLOK:  cpu time    0.2480: real time    0.2480
    SETDIJ:  cpu time    0.3460: real time    0.3460
    TRIAL :  cpu time    5.7177: real time    5.7256
    CORREC:  cpu time    2.4514: real time    2.5070
    CHARGE:  cpu time    0.8394: real time    0.8394
    --------------------------------------------
      LOOP:  cpu time    9.6037: real time    9.6685

 eigenvalue-minimisations  :     0
 total energy-change (2. order) :-0.2281279E+00  (-0.2417929E+00)
 number of electron     179.9999996 magnetization     -11.8361349
 augmentation part       58.1276934 magnetization      -8.2811459

 Free energy of the ion-electron system (eV)
  ---------------------------------------------------
  alpha Z        PSCENC =       532.25742704
  Ewald energy   TEWEN  =     -8601.05107233
  -Hartree energ DENC   =     -1680.46853758
  -exchange      EXHF   =         0.00000000
  -V(xc)+E(xc)   XCENC  =      -666.75369408
  PAW double counting   =     12984.96643430   -12156.12028043
  entropy T*S    EENTRO =         0.01690170
  eigenvalues    EBANDS =       886.51780664
  atomic energy  EATOM  =      8465.11600846
  ---------------------------------------------------
  free energy    TOTEN  =      -235.51900869 eV

  energy without entropy =     -235.53591040  energy(sigma->0) =     -235.52464260


--------------------------------------------------------------------------------------------------------




--------------------------------------- Iteration      1(  18)  ---------------------------------------


    POTLOK:  cpu time    0.2481: real time    0.2482
    SETDIJ:  cpu time    0.3203: real time    0.3203
    TRIAL :  cpu time    5.6373: real time    5.7043
    CORREC:  cpu time    2.5413: real time    2.5434
    CHARGE:  cpu time    0.8323: real time    0.8326
    --------------------------------------------
      LOOP:  cpu time    9.5825: real time    9.6536

 eigenvalue-minimisations  :     0
 total energy-change (2. order) :-0.2416088E+00  (-0.8407574E-01)
 number of electron     179.9999996 magnetization     -11.7724112
 augmentation part       57.8763050 magnetization      -8.2670887

 Free energy of the ion-electron system (eV)
  ---------------------------------------------------
  alpha Z        PSCENC =       532.25742704
  Ewald energy   TEWEN  =     -8601.05107233
  -Hartree energ DENC   =     -1669.55026448
  -exchange      EXHF   =         0.00000000
  -V(xc)+E(xc)   XCENC  =      -666.86420987
  PAW double counting   =     12925.29426679   -12095.00597994
  entropy T*S    EENTRO =         0.01633773
  eigenvalues    EBANDS =       874.02630517
  atomic energy  EATOM  =      8465.11600846
  ---------------------------------------------------
  free energy    TOTEN  =      -235.76061746 eV

  energy without entropy =     -235.77695519  energy(sigma->0) =     -235.76606337


--------------------------------------------------------------------------------------------------------




--------------------------------------- Iteration      1(  19)  ---------------------------------------


    POTLOK:  cpu time    0.2479: real time    0.2479
    SETDIJ:  cpu time    0.3695: real time    0.3695
    TRIAL :  cpu time    5.6553: real time    5.7374
    CORREC:  cpu time    2.4642: real time    2.4656
    CHARGE:  cpu time    0.8441: real time    0.8441
    --------------------------------------------
      LOOP:  cpu time    9.5938: real time    9.6773

 eigenvalue-minimisations  :     0
 total energy-change (2. order) :-0.8395662E-01  (-0.1092079E+00)
 number of electron     179.9999996 magnetization     -11.7491776
 augmentation part       57.7431744 magnetization      -8.2856443

 Free energy of the ion-electron system (eV)
  ---------------------------------------------------
  alpha Z        PSCENC =       532.25742704
  Ewald energy   TEWEN  =     -8601.05107233
  -Hartree energ DENC   =     -1656.88691658
  -exchange      EXHF   =         0.00000000
  -V(xc)+E(xc)   XCENC  =      -667.21277571
  PAW double counting   =     12905.67381532   -12072.80647759
  entropy T*S    EENTRO =         0.01658658
  eigenvalues    EBANDS =       859.04907958
  atomic energy  EATOM  =      8465.11600846
  ---------------------------------------------------
  free energy    TOTEN  =      -235.84457408 eV

  energy without entropy =     -235.86116066  energy(sigma->0) =     -235.85010294


--------------------------------------------------------------------------------------------------------




--------------------------------------- Iteration      1(  20)  ---------------------------------------


    POTLOK:  cpu time    0.2474: real time    0.2474
    SETDIJ:  cpu time    0.3232: real time    0.3232
    TRIAL :  cpu time    6.5386: real time    6.6460
    CORREC:  cpu time    2.5273: real time    2.5688
    CHARGE:  cpu time    0.8255: real time    0.8256
    --------------------------------------------
      LOOP:  cpu time   10.4638: real time   10.6149

 eigenvalue-minimisations  :     0
 total energy-change (2. order) :-0.1092615E+00  (-0.8265690E-01)
 number of electron     179.9999996 magnetization     -11.6754700
 augmentation part       57.8813713 magnetization      -8.2749959

 Free energy of the ion-electron system (eV)
  ---------------------------------------------------
  alpha Z        PSCENC =       532.25742704
  Ewald energy   TEWEN  =     -8601.05107233
  -Hartree energ DENC   =     -1653.20322953
  -exchange      EXHF   =         0.00000000
  -V(xc)+E(xc)   XCENC  =      -667.19267383
  PAW double counting   =     12916.38391633   -12082.58843418
  entropy T*S    EENTRO =         0.01598566
  eigenvalues    EBANDS =       854.30763591
  atomic energy  EATOM  =      8465.11600846
  ---------------------------------------------------
  free energy    TOTEN  =      -235.95383555 eV

  energy without entropy =     -235.96982121  energy(sigma->0) =     -235.95916410


--------------------------------------------------------------------------------------------------------




--------------------------------------- Iteration      1(  21)  ---------------------------------------


    POTLOK:  cpu time    0.2469: real time    0.2473
    SETDIJ:  cpu time    0.3212: real time    0.3217
    TRIAL :  cpu time    6.2949: real time    6.3397
    CORREC:  cpu time    2.5188: real time    2.5294
    CHARGE:  cpu time    0.8589: real time    0.9223
    --------------------------------------------
      LOOP:  cpu time   10.2425: real time   10.3628

 eigenvalue-minimisations  :     0
 total energy-change (2. order) :-0.8274041E-01  (-0.4300619E-01)
 number of electron     179.9999996 magnetization     -11.6618843
 augmentation part       57.9969336 magnetization      -8.2688411

 Free energy of the ion-electron system (eV)
  ---------------------------------------------------
  alpha Z        PSCENC =       532.25742704
  Ewald energy   TEWEN  =     -8601.05107233
  -Hartree energ DENC   =     -1663.56097353
  -exchange      EXHF   =         0.00000000
  -V(xc)+E(xc)   XCENC  =      -666.72662546
  PAW double counting   =     12953.21504343   -12121.35872346
  entropy T*S    EENTRO =         0.01618557
  eigenvalues    EBANDS =       866.05635423
  atomic energy  EATOM  =      8465.11600846
  ---------------------------------------------------
  free energy    TOTEN  =      -236.03657596 eV

  energy without entropy =     -236.05276153  energy(sigma->0) =     -236.04197115


--------------------------------------------------------------------------------------------------------




--------------------------------------- Iteration      1(  22)  ---------------------------------------


    POTLOK:  cpu time    0.2470: real time    0.2661
    SETDIJ:  cpu time    0.3198: real time    0.3198
    TRIAL :  cpu time    5.6954: real time    5.6969
    CORREC:  cpu time    2.4606: real time    2.4621
    CHARGE:  cpu time    0.8358: real time    0.8358
    --------------------------------------------
      LOOP:  cpu time    9.5640: real time    9.5885

 eigenvalue-minimisations  :     0
 total energy-change (2. order) :-0.4304821E-01  (-0.4414869E-01)
 number of electron     179.9999996 magnetization     -11.6225581
 augmentation part       57.9631365 magnetization      -8.2323511

 Free energy of the ion-electron system (eV)
  ---------------------------------------------------
  alpha Z        PSCENC =       532.25742704
  Ewald energy   TEWEN  =     -8601.05107233
  -Hartree energ DENC   =     -1670.94920200
  -exchange      EXHF   =         0.00000000
  -V(xc)+E(xc)   XCENC  =      -666.40156208
  PAW double counting   =     12972.68927727   -12142.22546639
  entropy T*S    EENTRO =         0.01633117
  eigenvalues    EBANDS =       874.46878030
  atomic energy  EATOM  =      8465.11600846
  ---------------------------------------------------
  free energy    TOTEN  =      -236.07962417 eV

  energy without entropy =     -236.09595534  energy(sigma->0) =     -236.08506789


--------------------------------------------------------------------------------------------------------




--------------------------------------- Iteration      1(  23)  ---------------------------------------


    POTLOK:  cpu time    0.2482: real time    0.2482
    SETDIJ:  cpu time    0.3474: real time    0.3599
    TRIAL :  cpu time    5.6619: real time    5.6658
    CORREC:  cpu time    2.4561: real time    2.4634
    CHARGE:  cpu time    0.8215: real time    0.8673
    --------------------------------------------
      LOOP:  cpu time    9.5406: real time    9.6114

 eigenvalue-minimisations  :     0
 total energy-change (2. order) :-0.4414871E-01  (-0.4306097E-01)
 number of electron     179.9999996 magnetization     -11.6758400
 augmentation part       57.8510893 magnetization      -8.2432237

 Free energy of the ion-electron system (eV)
  ---------------------------------------------------
  alpha Z        PSCENC =       532.25742704
  Ewald energy   TEWEN  =     -8601.05107233
  -Hartree energ DENC   =     -1669.76490732
  -exchange      EXHF   =         0.00000000
  -V(xc)+E(xc)   XCENC  =      -666.36665326
  PAW double counting   =     12972.07388120   -12141.11697385
  entropy T*S    EENTRO =         0.01682786
  eigenvalues    EBANDS =       872.71218601
  atomic energy  EATOM  =      8465.11600846
  ---------------------------------------------------
  free energy    TOTEN  =      -236.12377288 eV

  energy without entropy =     -236.14060074  energy(sigma->0) =     -236.12938217


--------------------------------------------------------------------------------------------------------




--------------------------------------- Iteration      1(  24)  ---------------------------------------


    POTLOK:  cpu time    0.2486: real time    0.2487
    SETDIJ:  cpu time    0.3219: real time    0.3219
    TRIAL :  cpu time    5.6045: real time    5.6720
    CORREC:  cpu time    2.5240: real time    2.5252
    CHARGE:  cpu time    0.8231: real time    0.8231
    --------------------------------------------
      LOOP:  cpu time    9.5397: real time    9.6086

 eigenvalue-minimisations  :     0
 total energy-change (2. order) :-0.4307420E-01  (-0.4378430E-01)
 number of electron     179.9999996 magnetization     -11.7246393
 augmentation part       57.8661213 magnetization      -8.2988624

 Free energy of the ion-electron system (eV)
  ---------------------------------------------------
  alpha Z        PSCENC =       532.25742704
  Ewald energy   TEWEN  =     -8601.05107233
  -Hartree energ DENC   =     -1663.53818378
  -exchange      EXHF   =         0.00000000
  -V(xc)+E(xc)   XCENC  =      -666.45744505
  PAW double counting   =     12961.26532621   -12128.80244248
  entropy T*S    EENTRO =         0.01745731
  eigenvalues    EBANDS =       865.02670699
  atomic energy  EATOM  =      8465.11600846
  ---------------------------------------------------
  free energy    TOTEN  =      -236.16684709 eV

  energy without entropy =     -236.18430440  energy(sigma->0) =     -236.17266619


--------------------------------------------------------------------------------------------------------




--------------------------------------- Iteration      1(  25)  ---------------------------------------


    POTLOK:  cpu time    0.2478: real time    0.2479
    SETDIJ:  cpu time    0.3428: real time    0.3428
    TRIAL :  cpu time    5.6509: real time    5.6925
    CORREC:  cpu time    2.5553: real time    2.5630
    CHARGE:  cpu time    0.8250: real time    0.8250
    --------------------------------------------
      LOOP:  cpu time    9.6243: real time    9.6755

 eigenvalue-minimisations  :     0
 total energy-change (2. order) :-0.4379031E-01  (-0.2275567E-01)
 number of electron     179.9999996 magnetization     -11.7872983
 augmentation part       57.9802364 magnetization      -8.3699063

 Free energy of the ion-electron system (eV)
  ---------------------------------------------------
  alpha Z        PSCENC =       532.25742704
  Ewald energy   TEWEN  =     -8601.05107233
  -Hartree energ DENC   =     -1663.32990819
  -exchange      EXHF   =         0.00000000
  -V(xc)+E(xc)   XCENC  =      -666.29049953
  PAW double counting   =     12961.51179960   -12128.90687326
  entropy T*S    EENTRO =         0.01779442
[...]
|                                                                             |
|  ADVICE TO THIS USER RUNNING 'VASP/VAMP'   (HEAR YOUR MASTER'S VOICE ...):  |
|                                                                             |
|      Your highest band is occupied at some k-points! Unless you are         |
|      performing a calculation for an insulator or semiconductor, without    |
|      unoccupied bands, you have included TOO FEW BANDS!! Please increase    |
|      the parameter NBANDS in file INCAR to ensure that the highest band     |
|      is unoccupied at all k-points. It is always recommended to             |
|      include a few unoccupied bands to accelerate the convergence of        |
|      molecular dynamics runs (even for insulators or semiconductors).       |
|      Because the presence of unoccupied bands improves wavefunction         |
|      prediction, and helps to suppress 'band-crossings.'                    |
|      Following all k-points will be listed (with the Fermi weights of       |
|      the highest band given in paranthesis) ... :                           |
|                                                                             |
|                         10       (-0.01444)                                 |
|                         19       (-0.01565)                                 |
|                         28       (-0.02680)                                 |
|                         29       (-0.01070)                                 |
|                                                                             |
|      The total occupancy of band no.   102 is  -0.00072 electrons ...       |
|                                                                             |
 ----------------------------------------------------------------------------- 

 


 total charge     
 
# of ion       s       p       d       tot
------------------------------------------
    1        0.404   0.429   0.000   0.833
    2        0.405   0.428   0.000   0.833
    3        0.406   0.425   0.000   0.830
    4        0.405   0.424   0.000   0.830
    5        0.405   0.427   0.000   0.832
    6        0.405   0.427   0.000   0.832
    7        0.405   0.432   0.000   0.837
    8        0.405   0.432   0.000   0.836
    9        0.405   0.429   0.000   0.834
   10        0.405   0.429   0.000   0.834
   11        0.406   0.428   0.000   0.834
   12        0.406   0.429   0.000   0.835
   13        0.405   0.428   0.000   0.833
   14        0.405   0.428   0.000   0.833
   15        0.405   0.425   0.000   0.831
   16        0.405   0.425   0.000   0.830
   17        0.405   0.428   0.000   0.833
   18        0.405   0.428   0.000   0.833
   19        0.334   0.353   5.133   5.820
   20        0.332   0.358   5.122   5.812
   21        0.334   0.362   5.114   5.810
   22        0.331   0.348   5.146   5.824
   23        0.335   0.355   5.117   5.807
   24        0.329   0.354   5.151   5.833
   25        0.332   0.358   5.122   5.813
   26        0.334   0.353   5.138   5.824
   27        0.330   0.347   5.159   5.837
   28        0.334   0.361   5.129   5.825
   29        0.329   0.354   5.139   5.822
   30        0.334   0.355   5.129   5.818
   31        0.336   0.352   5.125   5.814
   32        0.336   0.353   5.131   5.820
   33        0.333   0.351   5.142   5.827
   34        0.333   0.352   5.143   5.828
   35        0.339   0.355   5.113   5.808
   36        0.339   0.355   5.117   5.812
--------------------------------------------------
tot         13.296  14.078  92.372 119.746
 


 magnetization (x)
 
# of ion       s       p       d       tot
------------------------------------------
    1        0.001  -0.001   0.000  -0.000
    2        0.001  -0.000   0.000   0.001
    3        0.013   0.025   0.000   0.039
    4        0.014   0.026   0.000   0.039
    5        0.006   0.010   0.000   0.016
    6        0.006   0.010   0.000   0.016
    7        0.002   0.002   0.000   0.003
    8        0.001   0.001   0.000   0.002
    9        0.012   0.021   0.000   0.033
   10        0.011   0.021   0.000   0.032
   11        0.009   0.018   0.000   0.027
   12        0.008   0.018   0.000   0.026
   13        0.001  -0.000   0.000   0.000
   14        0.001   0.000   0.000   0.001
   15        0.014   0.025   0.000   0.039
   16        0.014   0.026   0.000   0.039
   17        0.006   0.010   0.000   0.016
   18        0.006   0.011   0.000   0.017
   19        0.026   0.023   2.304   2.353
   20       -0.013  -0.020  -2.326  -2.359
   21       -0.025  -0.038  -2.205  -2.268
   22       -0.010   0.006  -2.246  -2.249
   23        0.013   0.018   2.433   2.464
   24       -0.022  -0.022  -2.077  -2.121
   25       -0.013  -0.020  -2.327  -2.361
   26        0.025   0.024   2.302   2.351
   27       -0.010   0.005  -2.241  -2.246
   28       -0.024  -0.039  -2.214  -2.277
   29       -0.022  -0.022  -2.078  -2.122
   30        0.013   0.018   2.429   2.460
   31       -0.033  -0.019  -2.490  -2.541
   32       -0.033  -0.019  -2.496  -2.548
   33       -0.016  -0.014  -2.224  -2.254
   34       -0.016  -0.013  -2.216  -2.246
   35        0.033   0.019   2.567   2.619
   36        0.032   0.019   2.570   2.622
--------------------------------------------------
tot          0.029   0.129 -12.533 -12.375
 
    FORLOC:  cpu time    0.0293: real time    0.0293
    FORNL :  cpu time    8.9670: real time    9.0688
    STRESS:  cpu time   14.6153: real time   14.7531
    FORCOR:  cpu time    0.2716: real time    0.2717
    OFIELD:  cpu time    0.0016: real time    0.0016

  FORCE on cell =-STRESS in cart. coord.  units (eV):
  Direction    XX          YY          ZZ          XY          YZ          ZX
  --------------------------------------------------------------------------------------
  Alpha Z   532.25743   532.25743   532.25743
  Ewald   -2702.40749 -2702.40749 -3196.26924    -0.00000    -0.00000    -0.00000
  Hartree   722.27688   720.50838   224.01809     0.00000    -0.00000    -0.00000
  E(xc)    -760.79796  -760.35101  -760.15151    -0.00000    -0.00000    -0.00000
  Local     244.85753   251.38161  1265.38790    -0.00000     0.00000    -0.00000
  n-local  -111.84009  -109.97835  -118.74957     0.03660     0.02606    -0.38923
  augment   523.17686   520.70271   513.71790     0.00000     0.00001     0.00001
  Kinetic  1559.06024  1553.65556  1540.60840    -0.44415     0.67516     0.95723
  Fock        0.00000     0.00000     0.00000     0.00000     0.00000     0.00000
  -------------------------------------------------------------------------------------
  Total       6.58339     5.76884     0.81939     0.00000     0.00000     0.00000
  in kB      22.28679    19.52928     2.77389     0.00000     0.00000     0.00000
  external pressure =       14.86 kB  Pullay stress =        0.00 kB


 VOLUME and BASIS-vectors are now :
 -----------------------------------------------------------------------------
  energy-cutoff  :      404.80
  volume of cell :      473.27
      direct lattice vectors                 reciprocal lattice vectors
     8.250148166  0.000000000  0.000000000     0.121209944  0.000000000  0.000000000
     0.000000000  8.250148166  0.000000000     0.000000000  0.121209944  0.000000000
     0.000000000  0.000000000  6.953274261     0.000000000  0.000000000  0.143817137

  length of vectors
     8.250148166  8.250148166  6.953274261     0.121209944  0.121209944  0.143817137


 FORCES acting on ions:
    Electron-Ion                     Ewald-Force                    Non-Local-Force
 -----------------------------------------------------------------------------------------------
   0.138E+00 0.744E-01 -.295E-01   -.239E-08 -.239E-08 0.411E-08   -.130E-01 -.796E-01 0.119E-01
   0.138E+00 0.744E-01 0.295E-01   -.239E-08 -.239E-08 0.411E-08   -.130E-01 -.796E-01 -.119E-01
   0.371E-01 0.129E-01 0.508E-02   -.239E-08 -.802E-09 0.411E-08   -.776E-01 0.502E-01 -.897E-01
   0.371E-01 0.129E-01 -.508E-02   -.239E-08 -.802E-09 0.411E-08   -.776E-01 0.502E-01 0.897E-01
   0.723E-01 -.122E+00 0.346E-01   -.239E-08 0.631E-08 0.411E-08   -.118E-01 0.274E-01 -.733E-01
   0.723E-01 -.122E+00 -.346E-01   -.239E-08 0.631E-08 0.411E-08   -.118E-01 0.274E-01 0.733E-01
   0.465E-09 -.296E-01 -.180E-08   -.802E-09 -.239E-08 0.411E-08   0.434E-18 0.187E-02 -.217E-18
   0.284E-09 -.296E-01 -.180E-08   -.802E-09 -.239E-08 0.411E-08   0.867E-18 0.187E-02 0.000E+00
   0.462E-09 0.260E+00 -.180E-08   -.802E-09 -.802E-09 0.411E-08   0.000E+00 0.242E-02 0.000E+00
   0.284E-09 0.260E+00 -.180E-08   -.802E-09 -.802E-09 0.411E-08   0.312E-18 0.242E-02 0.000E+00
   0.462E-09 -.203E+00 -.180E-08   -.802E-09 0.631E-08 0.411E-08   0.000E+00 0.818E-02 0.000E+00
   0.284E-09 -.203E+00 -.180E-08   -.802E-09 0.631E-08 0.411E-08   0.000E+00 0.818E-02 0.434E-18
   -.138E+00 0.744E-01 0.295E-01   0.631E-08 -.239E-08 0.411E-08   0.130E-01 -.796E-01 -.119E-01
   -.138E+00 0.744E-01 -.295E-01   0.631E-08 -.239E-08 0.411E-08   0.130E-01 -.796E-01 0.119E-01
   -.371E-01 0.129E-01 -.508E-02   0.631E-08 -.802E-09 0.411E-08   0.776E-01 0.502E-01 0.897E-01
   -.371E-01 0.129E-01 0.508E-02   0.631E-08 -.802E-09 0.411E-08   0.776E-01 0.502E-01 -.897E-01
   -.723E-01 -.122E+00 -.346E-01   0.631E-08 0.631E-08 0.411E-08   0.118E-01 0.274E-01 0.733E-01
   -.723E-01 -.122E+00 0.346E-01   0.631E-08 0.631E-08 0.411E-08   0.118E-01 0.274E-01 -.733E-01
   -.257E+00 -.662E+00 0.156E-08   -.169E-07 -.169E-07 -.411E-08   0.165E+00 0.451E+00 0.000E+00
   -.431E+00 -.208E+00 -.569E-08   -.169E-07 -.169E-07 -.411E-08   0.244E+00 0.177E+00 0.000E+00
   0.905E-01 -.262E-01 -.119E-08   -.169E-07 0.802E-09 -.411E-08   -.411E-01 -.365E-02 0.000E+00
   -.202E-01 0.128E+00 -.274E-08   -.169E-07 0.802E-09 -.411E-08   -.320E-02 -.160E+00 0.000E+00
   -.519E+00 0.551E+00 -.412E-08   -.169E-07 0.130E-07 -.411E-08   0.258E+00 -.440E+00 0.000E+00
   -.163E+00 0.650E-01 -.190E-10   -.169E-07 0.130E-07 -.411E-08   0.305E-01 -.496E-01 0.000E+00
   0.431E+00 -.208E+00 0.267E-09   0.802E-09 -.169E-07 -.411E-08   -.244E+00 0.177E+00 0.000E+00
   0.257E+00 -.662E+00 -.440E-08   0.802E-09 -.169E-07 -.411E-08   -.165E+00 0.451E+00 0.000E+00
   0.202E-01 0.128E+00 -.242E-08   0.802E-09 0.802E-09 -.411E-08   0.320E-02 -.160E+00 0.000E+00
   -.905E-01 -.262E-01 -.151E-08   0.802E-09 0.802E-09 -.411E-08   0.411E-01 -.365E-02 0.000E+00
   0.163E+00 0.650E-01 -.519E-08   0.802E-09 0.130E-07 -.411E-08   -.305E-01 -.496E-01 0.000E+00
   0.519E+00 0.551E+00 0.106E-08   0.802E-09 0.130E-07 -.411E-08   -.258E+00 -.440E+00 0.000E+00
   -.460E+00 0.425E+00 -.285E-09   0.130E-07 -.169E-07 -.411E-08   0.114E+00 -.184E+00 0.000E+00
   0.460E+00 0.425E+00 -.626E-08   0.130E-07 -.169E-07 -.411E-08   -.114E+00 -.184E+00 0.000E+00
   -.115E+00 -.318E+00 -.317E-08   0.130E-07 0.802E-09 -.411E-08   0.893E-01 0.295E+00 0.000E+00
   0.115E+00 -.318E+00 -.350E-08   0.130E-07 0.802E-09 -.411E-08   -.893E-01 0.295E+00 0.000E+00
   0.587E+00 0.133E+00 -.578E-08   0.130E-07 0.130E-07 -.411E-08   -.208E+00 -.143E+00 0.000E+00
   -.587E+00 0.133E+00 -.611E-09   0.130E-07 0.130E-07 -.411E-08   0.208E+00 -.143E+00 0.000E+00
 -----------------------------------------------------------------------------------------------
   -.240E-07 0.973E-01 -.806E-07   -.197E-14 0.275E-13 0.265E-14   0.555E-16 -.979E-01 -.139E-16
 
 
 POSITION                                       TOTAL-FORCE (eV/Angst)
 -----------------------------------------------------------------------------------
      0.00000      0.00000      0.00000         0.127340      0.001616     -0.018707
      0.00000      0.00000      3.47664         0.127340      0.001616      0.018707
      0.00000      2.75005      0.00000        -0.033088      0.058060     -0.076107
      0.00000      2.75005      3.47664        -0.033088      0.058060      0.076107
      0.00000      5.50010      0.00000         0.062124     -0.096310     -0.031776
      0.00000      5.50010      3.47664         0.062124     -0.096310      0.031776
      2.75005      0.00000      0.00000         0.000000     -0.027949     -0.000000
      2.75005      0.00000      3.47664         0.000000     -0.027949     -0.000000
      2.75005      2.75005      0.00000         0.000000      0.262719     -0.000000
      2.75005      2.75005      3.47664        -0.000000      0.262719     -0.000000
      2.75005      5.50010      0.00000         0.000000     -0.194663     -0.000000
      2.75005      5.50010      3.47664         0.000000     -0.194663     -0.000000
      5.50010      0.00000      0.00000        -0.127340      0.001616      0.018707
      5.50010      0.00000      3.47664        -0.127340      0.001616     -0.018707
      5.50010      2.75005      0.00000         0.033088      0.058060      0.076107
      5.50010      2.75005      3.47664         0.033088      0.058060     -0.076107
      5.50010      5.50010      0.00000        -0.062124     -0.096310      0.031776
      5.50010      5.50010      3.47664        -0.062124     -0.096310     -0.031776
      1.37502      1.37502      1.73832        -0.099373     -0.220750     -0.000000
      1.37502      1.37502      5.21496        -0.190523     -0.029714     -0.000000
      1.37502      4.12507      1.73832         0.049850     -0.031027     -0.000000
      1.37502      4.12507      5.21496        -0.024071     -0.030773     -0.000000
      1.37502      6.87512      1.73832        -0.270709      0.114686     -0.000000
      1.37502      6.87512      5.21496        -0.139671      0.012643     -0.000000
      4.12507      1.37502      1.73832         0.190523     -0.029714     -0.000000
      4.12507      1.37502      5.21496         0.099373     -0.220750     -0.000000
      4.12507      4.12507      1.73832         0.024071     -0.030773     -0.000000
      4.12507      4.12507      5.21496        -0.049850     -0.031027     -0.000000
      4.12507      6.87512      1.73832         0.139671      0.012643     -0.000000
      4.12507      6.87512      5.21496         0.270709      0.114686     -0.000000
      6.87512      1.37502      1.73832        -0.356109      0.248809     -0.000000
      6.87512      1.37502      5.21496         0.356109      0.248809     -0.000000
      6.87512      4.12507      1.73832        -0.028911     -0.026013     -0.000000
      6.87512      4.12507      5.21496         0.028911     -0.026013     -0.000000
      6.87512      6.87512      1.73832         0.394415     -0.004700     -0.000000
      6.87512      6.87512      5.21496        -0.394415     -0.004700     -0.000000
 -----------------------------------------------------------------------------------
    total drift:                               -0.000000     -0.000534     -0.000000


--------------------------------------------------------------------------------------------------------



  FREE ENERGIE OF THE ION-ELECTRON SYSTEM (eV)
  ---------------------------------------------------
  free  energy   TOTEN  =      -236.34197156 eV

  energy  without entropy=     -236.36848381  energy(sigma->0) =     -236.35080898
 


--------------------------------------------------------------------------------------------------------


    POTLOK:  cpu time    1.4902: real time    1.5029


--------------------------------------------------------------------------------------------------------


     LOOP+:  cpu time  733.1123: real time  739.0382
    4ORBIT:  cpu time    0.0000: real time    0.0000
 


 total charge     
 
# of ion       s       p       d       tot
------------------------------------------
    1        0.404   0.429   0.000   0.833
    2        0.405   0.428   0.000   0.833
    3        0.406   0.425   0.000   0.830
    4        0.405   0.424   0.000   0.830
    5        0.405   0.427   0.000   0.832
    6        0.405   0.427   0.000   0.832
    7        0.405   0.432   0.000   0.837
    8        0.405   0.432   0.000   0.836
    9        0.405   0.429   0.000   0.834
   10        0.405   0.429   0.000   0.834
   11        0.406   0.428   0.000   0.834
   12        0.406   0.429   0.000   0.835
   13        0.405   0.428   0.000   0.833
   14        0.405   0.428   0.000   0.833
   15        0.405   0.425   0.000   0.831
   16        0.405   0.425   0.000   0.830
   17        0.405   0.428   0.000   0.833
   18        0.405   0.428   0.000   0.833
   19        0.334   0.353   5.133   5.820
   20        0.332   0.358   5.122   5.812
   21        0.334   0.362   5.114   5.810
   22        0.331   0.348   5.146   5.824
   23        0.335   0.355   5.117   5.807
   24        0.329   0.354   5.151   5.833
   25        0.332   0.358   5.122   5.813
   26        0.334   0.353   5.138   5.824
   27        0.330   0.347   5.159   5.837
   28        0.334   0.361   5.129   5.825
   29        0.329   0.354   5.139   5.822
   30        0.334   0.355   5.129   5.818
   31        0.336   0.352   5.125   5.814
   32        0.336   0.353   5.131   5.820
   33        0.333   0.351   5.142   5.827
   34        0.333   0.352   5.143   5.828
   35        0.339   0.355   5.113   5.808
   36        0.339   0.355   5.117   5.812
--------------------------------------------------
tot         13.296  14.078  92.372 119.746
 


 magnetization (x)
 
# of ion       s       p       d       tot
------------------------------------------
    1        0.001  -0.001   0.000  -0.000
    2        0.001  -0.000   0.000   0.001
    3        0.013   0.025   0.000   0.039
    4        0.014   0.026   0.000   0.039
    5        0.006   0.010   0.000   0.016
    6        0.006   0.010   0.000   0.016
    7        0.002   0.002   0.000   0.003
    8        0.001   0.001   0.000   0.002
    9        0.012   0.021   0.000   0.033
   10        0.011   0.021   0.000   0.032
   11        0.009   0.018   0.000   0.027
   12        0.008   0.018   0.000   0.026
   13        0.001  -0.000   0.000   0.000
   14        0.001   0.000   0.000   0.001
   15        0.014   0.025   0.000   0.039
   16        0.014   0.026   0.000   0.039
   17        0.006   0.010   0.000   0.016
   18        0.006   0.011   0.000   0.017
   19        0.026   0.023   2.304   2.353
   20       -0.013  -0.020  -2.326  -2.359
   21       -0.025  -0.038  -2.205  -2.268
   22       -0.010   0.006  -2.246  -2.249
   23        0.013   0.018   2.433   2.464
   24       -0.022  -0.022  -2.077  -2.121
   25       -0.013  -0.020  -2.327  -2.361
   26        0.025   0.024   2.302   2.351
   27       -0.010   0.005  -2.241  -2.246
   28       -0.024  -0.039  -2.214  -2.277
   29       -0.022  -0.022  -2.078  -2.122
   30        0.013   0.018   2.429   2.460
   31       -0.033  -0.019  -2.490  -2.541
   32       -0.033  -0.019  -2.496  -2.548
   33       -0.016  -0.014  -2.224  -2.254
   34       -0.016  -0.013  -2.216  -2.246
   35        0.033   0.019   2.567   2.619
   36        0.032   0.019   2.570   2.622
--------------------------------------------------
tot          0.029   0.129 -12.533 -12.375
 

 total amount of memory used by VASP MPI-rank0   501577. kBytes
=======================================================================

   base      :      30000. kBytes
   nonl-proj :      24164. kBytes
   fftplans  :      21726. kBytes
   grid      :      14732. kBytes
   one-center:        279. kBytes
   wavefun   :     410676. kBytes
 
  
  
 General timing and accounting informations for this job:
 ========================================================
  
                  Total CPU time used (sec):      750.366
                            User time (sec):      734.173
                          System time (sec):       16.192
                         Elapsed time (sec):      759.010
  
                   Maximum memory used (kb):      626928.
                   Average memory used (kb):           0.
  
                          Minor page faults:       296085
                          Major page faults:           20
                 Voluntary context switches:         3960
