 vasp.5.4.4.18Apr17-6-g9f103f2a35 (build Dec 20 2018 12:05:58) complex          
  
 executed on             LinuxIFC date 2019.06.20  19:12:20
 running on   32 total cores
 distrk:  each k-point on    8 cores,    4 groups
 distr:  one band on NCORES_PER_BAND=   4 cores,    2 groups


--------------------------------------------------------------------------------------------------------


 INCAR:
 POTCAR:    PAW_PBE Al 04Jan2001                  
 POTCAR:    PAW_PBE Mn 06Sep2000                  

 ----------------------------------------------------------------------------- 
|                                                                             |
|           W    W    AA    RRRRR   N    N  II  N    N   GGGG   !!!           |
|           W    W   A  A   R    R  NN   N  II  NN   N  G    G  !!!           |
|           W    W  A    A  R    R  N N  N  II  N N  N  G       !!!           |
|           W WW W  AAAAAA  RRRRR   N  N N  II  N  N N  G  GGG   !            |
|           WW  WW  A    A  R   R   N   NN  II  N   NN  G    G                |
|           W    W  A    A  R    R  N    N  II  N    N   GGGG   !!!           |
|                                                                             |
|      You have enabled k-point parallelism (KPAR>1).                         |
|      This developmental code was originally  written by Paul Kent at ORNL,  |
|      and carefully double checked in Vienna.                                |
|      GW as well as linear response parallelism added by Martijn Marsman     |
|      and Georg Kresse.                                                      |
|      Carefully verify results versus KPAR=1.                                |
|      Report problems to Paul Kent and Vienna.                               |
|                                                                             |
 ----------------------------------------------------------------------------- 

 POTCAR:    PAW_PBE Al 04Jan2001                  
   VRHFIN =Al: s2p1                                                             
   LEXCH  = PE                                                                  
   EATOM  =    53.5387 eV,    3.9350 Ry                                         
                                                                                
   TITEL  = PAW_PBE Al 04Jan2001                                                
   LULTRA =        F    use ultrasoft PP ?                                      
   IUNSCR =        1    unscreen: 0-lin 1-nonlin 2-no                           
   RPACOR =    1.500    partial core radius                                     
   POMASS =   26.981; ZVAL   =    3.000    mass and valenz                      
   RCORE  =    1.900    outmost cutoff radius                                   
   RWIGS  =    2.650; RWIGS  =    1.402    wigner-seitz radius (au A)           
   ENMAX  =  240.300; ENMIN  =  180.225 eV                                      
   ICORE  =        2    local potential                                         
   LCOR   =        T    correct aug charges                                     
   LPAW   =        T    paw PP                                                  
   EAUG   =  291.052                                                            
   DEXC   =    0.000                                                            
   RMAX   =    1.939    core radius for proj-oper                               
   RAUG   =    1.300    factor for augmentation sphere                          
   RDEP   =    1.966    radius for radial grids                                 
   RDEPT  =    1.856    core radius for aug-charge                              
                                                                                
   Atomic configuration                                                         
    6 entries                                                                   
     n  l   j            E        occ.                                          
     1  0  0.50     -1511.1048   2.0000                                         
     2  0  0.50      -108.1629   2.0000                                         
     2  1  1.50       -69.6402   6.0000                                         
     3  0  0.50        -7.7528   2.0000                                         
     3  1  1.50        -2.7121   1.0000                                         
     3  2  2.50        -2.7212   0.0000                                         
   Description                                                                  
     l       E           TYP  RCUT    TYP  RCUT                                 
     0     -7.7528455     23  1.900                                             
     0     -3.3096929     23  1.900                                             
     1     -2.7120682     23  1.900                                             
     1     13.6058260     23  1.900                                             
     2     -2.7211652      7  1.900                                             
  local pseudopotential read in
  partial core-charges read in
  partial kinetic energy density read in
  atomic valenz-charges read in
  non local Contribution for L=           0  read in
    real space projection operators read in
  non local Contribution for L=           0  read in
    real space projection operators read in
  non local Contribution for L=           1  read in
    real space projection operators read in
  non local Contribution for L=           1  read in
    real space projection operators read in
    PAW grid and wavefunctions read in
 
   number of l-projection  operators is LMAX  =           4
   number of lm-projection operators is LMMAX =           8
 
 POTCAR:    PAW_PBE Mn 06Sep2000                  
   VRHFIN =Mn: d6 s1                                                            
   LEXCH  = PE                                                                  
   EATOM  =   416.7541 eV,   30.6306 Ry                                         
                                                                                
   TITEL  = PAW_PBE Mn 06Sep2000                                                
   LULTRA =        F    use ultrasoft PP ?                                      
   IUNSCR =        1    unscreen: 0-lin 1-nonlin 2-no                           
   RPACOR =    2.000    partial core radius                                     
   POMASS =   54.938; ZVAL   =    7.000    mass and valenz                      
   RCORE  =    2.300    outmost cutoff radius                                   
   RWIGS  =    2.500; RWIGS  =    1.323    wigner-seitz radius (au A)           
   ENMAX  =  269.864; ENMIN  =  202.398 eV                                      
   RCLOC  =    1.725    cutoff for local pot                                    
   LCOR   =        T    correct aug charges                                     
   LPAW   =        T    paw PP                                                  
   EAUG   =  500.711                                                            
   DEXC   =    0.000                                                            
   RMAX   =    2.343    core radius for proj-oper                               
   RAUG   =    1.300    factor for augmentation sphere                          
   RDEP   =    2.338    radius for radial grids                                 
   RDEPT  =    1.911    core radius for aug-charge                              
                                                                                
   Atomic configuration                                                         
    9 entries                                                                   
     n  l   j            E        occ.                                          
     1  0  0.50     -6424.8288   2.0000                                         
     2  0  0.50      -739.1154   2.0000                                         
     2  1  1.50      -625.3949   6.0000                                         
     3  0  0.50       -81.6100   2.0000                                         
     3  1  1.50       -50.4667   6.0000                                         
     3  2  2.50        -3.3745   6.0000                                         
     4  0  0.50        -4.1331   1.0000                                         
     4  1  0.50        -4.0817   0.0000                                         
     4  3  2.50        -1.3606   0.0000                                         
   Description                                                                  
     l       E           TYP  RCUT    TYP  RCUT                                 
     2     -3.3744664     23  2.300                                             
     2     -4.7350490     23  2.300                                             
     0     -4.1331408     23  2.300                                             
     0      7.6656614     23  2.300                                             
     1     -2.7211652     23  2.300                                             
     1     20.4087390     23  2.300                                             
  local pseudopotential read in
  partial core-charges read in
  partial kinetic energy density read in
  atomic valenz-charges read in
  non local Contribution for L=           2  read in
    real space projection operators read in
  non local Contribution for L=           2  read in
    real space projection operators read in
  non local Contribution for L=           0  read in
    real space projection operators read in
  non local Contribution for L=           0  read in
    real space projection operators read in
  non local Contribution for L=           1  read in
    real space projection operators read in
  non local Contribution for L=           1  read in
    real space projection operators read in
    PAW grid and wavefunctions read in
 
   number of l-projection  operators is LMAX  =           6
   number of lm-projection operators is LMMAX =          18
 

 ----------------------------------------------------------------------------- 
|                                                                             |
|  ADVICE TO THIS USER RUNNING 'VASP/VAMP'   (HEAR YOUR MASTER'S VOICE ...):  |
|                                                                             |
|      You have a (more or less) 'large supercell' and for larger cells       |
|      it might be more efficient to use real space projection opertators     |
|      So try LREAL= Auto  in the INCAR   file.                               |
|      Mind:          For very  accurate calculation you might also keep the  |
|      reciprocal projection scheme          (i.e. LREAL=.FALSE.)             |
|                                                                             |
 ----------------------------------------------------------------------------- 

  PAW_PBE Al 04Jan2001                  :
 energy of atom  1       EATOM=  -53.5387
 kinetic energy error for atom=    0.0005 (will be added to EATOM!!)
  PAW_PBE Mn 06Sep2000                  :
 energy of atom  2       EATOM= -416.7541
 kinetic energy error for atom=    0.0080 (will be added to EATOM!!)
 
 
 POSCAR: NewRef: 27, @ ['Mn', array([1.37502469, 
  positions in cartesian coordinates
  velocities in cartesian coordinates
  No initial velocities read in
 exchange correlation table for  LEXCH =        8
   RHO(1)=    0.500       N(1)  =     2000
   RHO(2)=  100.500       N(2)  =     4000
 


--------------------------------------------------------------------------------------------------------


 ion  position               nearest neighbor table
   1  0.000  0.000  0.000-  28 2.61  30 2.61  34 2.61  36 2.61  46 2.61  48 2.61  52 2.61  54 2.61
                             4 2.75  10 2.75   7 2.75  19 2.75
   2  0.000  0.000  0.333-  28 2.61  34 2.61  46 2.61  52 2.61  29 2.61  47 2.61  35 2.61  53 2.61
                             5 2.75  11 2.75   8 2.75  20 2.75
   3  0.000  0.000  0.667-  29 2.61  35 2.61  47 2.61  53 2.61  30 2.61  48 2.61  36 2.61  54 2.61
                             6 2.75  12 2.75   9 2.75  21 2.75
   4  0.000  0.333  0.000-  28 2.61  30 2.61  46 2.61  48 2.61  31 2.61  33 2.61  49 2.61  51 2.61
                            13 2.75   1 2.75   7 2.75  22 2.75
   5  0.000  0.333  0.333-  28 2.61  46 2.61  31 2.61  49 2.61  47 2.61  29 2.61  32 2.61  50 2.61
                            14 2.75   2 2.75   8 2.75  23 2.75
   6  0.000  0.333  0.667-  29 2.61  47 2.61  32 2.61  50 2.61  48 2.61  30 2.61  33 2.61  51 2.61
                            15 2.75   3 2.75   9 2.75  24 2.75
   7  0.000  0.667  0.000-  31 2.61  33 2.61  49 2.61  51 2.61  34 2.61  36 2.61  52 2.61  54 2.61
                             4 2.75  16 2.75   1 2.75  25 2.75
   8  0.000  0.667  0.333-  31 2.61  49 2.61  34 2.61  52 2.61  50 2.61  32 2.61  35 2.61  53 2.61
                             5 2.75  17 2.75   2 2.75  26 2.75
   9  0.000  0.667  0.667-  32 2.61  50 2.61  35 2.61  53 2.61  51 2.61  33 2.61  36 2.61  54 2.61
                             6 2.75  18 2.75   3 2.75  27 2.75
  10  0.333  0.000  0.000-  28 2.61  30 2.61  34 2.61  36 2.61  37 2.61  39 2.61  43 2.61  45 2.61
                            19 2.75   1 2.75  13 2.75  16 2.75
  11  0.333  0.000  0.333-  28 2.61  34 2.61  37 2.61  43 2.61  29 2.61  35 2.61  38 2.61  44 2.61
                            20 2.75   2 2.75  14 2.75  17 2.75
  12  0.333  0.000  0.667-  29 2.61  35 2.61  38 2.61  44 2.61  30 2.61  36 2.61  39 2.61  45 2.61
                            21 2.75   3 2.75  15 2.75  18 2.75
  13  0.333  0.333  0.000-  28 2.61  30 2.61  31 2.61  33 2.61  37 2.61  39 2.61  40 2.61  42 2.61
                             4 2.75  10 2.75  16 2.75  22 2.75
  14  0.333  0.333  0.333-  28 2.61  31 2.61  37 2.61  29 2.61  40 2.61  38 2.61  32 2.61  41 2.61
                             5 2.75  11 2.75  17 2.75  23 2.75
  15  0.333  0.333  0.667-  29 2.61  32 2.61  38 2.61  30 2.61  41 2.61  39 2.61  33 2.61  42 2.61
                             6 2.75  12 2.75  18 2.75  24 2.75
  16  0.333  0.667  0.000-  31 2.61  33 2.61  34 2.61  36 2.61  40 2.61  42 2.61  43 2.61  45 2.61
                            25 2.75   7 2.75  13 2.75  10 2.75
  17  0.333  0.667  0.333-  31 2.61  34 2.61  40 2.61  32 2.61  43 2.61  41 2.61  35 2.61  44 2.61
                            26 2.75   8 2.75  14 2.75  11 2.75
  18  0.333  0.667  0.667-  32 2.61  35 2.61  41 2.61  33 2.61  44 2.61  42 2.61  36 2.61  45 2.61
                            27 2.75   9 2.75  15 2.75  12 2.75
  19  0.667  0.000  0.000-  37 2.61  39 2.61  43 2.61  45 2.61  46 2.61  48 2.61  52 2.61  54 2.61
                            10 2.75  22 2.75   1 2.75  25 2.75
  20  0.667  0.000  0.333-  37 2.61  43 2.61  46 2.61  52 2.61  38 2.61  44 2.61  47 2.61  53 2.61
                            11 2.75  23 2.75   2 2.75  26 2.75
  21  0.667  0.000  0.667-  38 2.61  44 2.61  47 2.61  53 2.61  39 2.61  45 2.61  48 2.61  54 2.61
                            12 2.75  24 2.75   3 2.75  27 2.75
  22  0.667  0.333  0.000-  37 2.61  39 2.61  40 2.61  42 2.61  46 2.61  48 2.61  49 2.61  51 2.61
                            25 2.75  13 2.75  19 2.75   4 2.75
  23  0.667  0.333  0.333-  37 2.61  40 2.61  46 2.61  38 2.61  49 2.61  47 2.61  41 2.61  50 2.61
                            26 2.75  14 2.75  20 2.75   5 2.75
  24  0.667  0.333  0.667-  38 2.61  41 2.61  47 2.61  39 2.61  50 2.61  48 2.61  42 2.61  51 2.61
                            27 2.75  15 2.75  21 2.75   6 2.75
  25  0.667  0.667  0.000-  40 2.61  42 2.61  43 2.61  45 2.61  49 2.61  51 2.61  52 2.61  54 2.61
                            16 2.75  22 2.75  19 2.75   7 2.75
  26  0.667  0.667  0.333-  40 2.61  43 2.61  49 2.61  41 2.61  52 2.61  50 2.61  44 2.61  53 2.61
                            17 2.75  23 2.75  20 2.75   8 2.75
  27  0.667  0.667  0.667-  41 2.61  44 2.61  50 2.61  42 2.61  53 2.61  51 2.61  45 2.61  54 2.61
                            18 2.75  24 2.75  21 2.75   9 2.75
  28  0.167  0.167  0.167-  14 2.61  11 2.61   5 2.61  13 2.61   2 2.61  10 2.61   4 2.61   1 2.61
                            31 2.75  37 2.75  34 2.75  46 2.75
  29  0.167  0.167  0.500-  15 2.61  12 2.61   6 2.61  14 2.61   3 2.61  11 2.61   5 2.61   2 2.61
                            32 2.75  38 2.75  35 2.75  47 2.75
  30  0.167  0.167  0.833-  13 2.61  15 2.61  10 2.61  12 2.61   4 2.61   6 2.61   1 2.61   3 2.61
                            33 2.75  39 2.75  36 2.75  48 2.75
  31  0.167  0.500  0.167-  17 2.61  14 2.61   8 2.61  16 2.61   5 2.61  13 2.61   7 2.61   4 2.61
                            28 2.75  34 2.75  40 2.75  49 2.75
  32  0.167  0.500  0.500-  18 2.61  15 2.61   9 2.61  17 2.61   6 2.61  14 2.61   8 2.61   5 2.61
                            29 2.75  35 2.75  41 2.75  50 2.75
  33  0.167  0.500  0.833-  16 2.61  18 2.61  13 2.61  15 2.61   7 2.61   9 2.61   4 2.61   6 2.61
                            30 2.75  36 2.75  42 2.75  51 2.75
  34  0.167  0.833  0.167-  11 2.61  17 2.61   2 2.61   8 2.61  16 2.61  10 2.61   7 2.61   1 2.61
                            31 2.75  43 2.75  28 2.75  52 2.75
  35  0.167  0.833  0.500-  12 2.61  18 2.61   3 2.61   9 2.61  17 2.61  11 2.61   8 2.61   2 2.61
                            32 2.75  44 2.75  29 2.75  53 2.75
  36  0.167  0.833  0.833-  10 2.61  12 2.61  16 2.61  18 2.61   1 2.61   3 2.61   7 2.61   9 2.61
                            33 2.75  45 2.75  30 2.75  54 2.75
  37  0.500  0.167  0.167-  23 2.61  20 2.61  14 2.61  22 2.61  11 2.61  19 2.61  13 2.61  10 2.61
                            28 2.75  40 2.75  46 2.75  43 2.75
  38  0.500  0.167  0.500-  24 2.61  21 2.61  15 2.61  23 2.61  12 2.61  20 2.61  14 2.61  11 2.61
                            29 2.75  41 2.75  47 2.75  44 2.75
  39  0.500  0.167  0.833-  22 2.61  24 2.61  19 2.61  21 2.61  13 2.61  15 2.61  10 2.61  12 2.61
                            30 2.75  42 2.75  48 2.75  45 2.75
  40  0.500  0.500  0.167-  26 2.61  23 2.61  17 2.61  25 2.61  14 2.61  22 2.61  16 2.61  13 2.61
                            31 2.75  37 2.75  43 2.75  49 2.75
  41  0.500  0.500  0.500-  27 2.61  24 2.61  18 2.61  26 2.61  15 2.61  23 2.61  17 2.61  14 2.61
                            32 2.75  38 2.75  44 2.75  50 2.75
  42  0.500  0.500  0.833-  25 2.61  27 2.61  22 2.61  24 2.61  16 2.61  18 2.61  13 2.61  15 2.61
                            33 2.75  39 2.75  45 2.75  51 2.75
  43  0.500  0.833  0.167-  20 2.61  26 2.61  11 2.61  17 2.61  25 2.61  19 2.61  16 2.61  10 2.61
                            34 2.75  40 2.75  52 2.75  37 2.75
  44  0.500  0.833  0.500-  21 2.61  27 2.61  12 2.61  18 2.61  26 2.61  20 2.61  17 2.61  11 2.61
                            35 2.75  41 2.75  53 2.75  38 2.75
  45  0.500  0.833  0.833-  19 2.61  21 2.61  25 2.61  27 2.61  10 2.61  12 2.61  16 2.61  18 2.61
                            36 2.75  42 2.75  54 2.75  39 2.75
  46  0.833  0.167  0.167-   5 2.61  23 2.61  20 2.61   2 2.61  22 2.61   4 2.61  19 2.61   1 2.61
                            37 2.75  49 2.75  28 2.75  52 2.75
  47  0.833  0.167  0.500-   6 2.61  24 2.61  21 2.61   3 2.61  23 2.61   5 2.61  20 2.61   2 2.61
                            38 2.75  50 2.75  29 2.75  53 2.75
  48  0.833  0.167  0.833-   4 2.61   6 2.61  22 2.61  24 2.61  19 2.61  21 2.61   1 2.61   3 2.61
                            39 2.75  51 2.75  30 2.75  54 2.75
  49  0.833  0.500  0.167-   8 2.61  26 2.61  23 2.61   5 2.61  25 2.61   7 2.61  22 2.61   4 2.61
                            40 2.75  46 2.75  52 2.75  31 2.75
  50  0.833  0.500  0.500-   9 2.61  27 2.61  24 2.61   6 2.61  26 2.61   8 2.61  23 2.61   5 2.61
                            41 2.75  47 2.75  53 2.75  32 2.75
  51  0.833  0.500  0.833-   7 2.61   9 2.61  25 2.61  27 2.61  22 2.61  24 2.61   4 2.61   6 2.61
                            42 2.75  48 2.75  54 2.75  33 2.75
  52  0.833  0.833  0.167-   2 2.61   8 2.61  20 2.61  26 2.61  19 2.61   7 2.61  25 2.61   1 2.61
                            43 2.75  49 2.75  46 2.75  34 2.75
  53  0.833  0.833  0.500-   3 2.61   9 2.61  21 2.61  27 2.61  20 2.61   8 2.61  26 2.61   2 2.61
                            44 2.75  50 2.75  47 2.75  35 2.75
  54  0.833  0.833  0.833-   1 2.61   3 2.61   7 2.61   9 2.61  19 2.61  21 2.61  25 2.61  27 2.61
                            45 2.75  51 2.75  48 2.75  36 2.75
 
  LATTYP: Found a simple tetragonal cell.
 ALAT       =     8.2501481662
 C/A-ratio  =     1.2642089792
  
  Lattice vectors:
  
 A1 = (   8.2501481662,   0.0000000000,   0.0000000000)
 A2 = (   0.0000000000,   8.2501481662,   0.0000000000)
 A3 = (   0.0000000000,   0.0000000000,  10.4299113916)


Analysis of symmetry for initial positions (statically):
=====================================================================
 Subroutine PRICEL returns following result:
 
  LATTYP: Found a simple tetragonal cell.
 ALAT       =     2.7500493888
 C/A-ratio  =     1.2642089792
  
  Lattice vectors:
  
 A1 = (   2.7500493888,   0.0000000000,   0.0000000000)
 A2 = (   0.0000000000,   2.7500493888,   0.0000000000)
 A3 = (   0.0000000000,   0.0000000000,   3.4766371306)
 
  27 primitive cells build up your supercell.
 

 Routine SETGRP: Setting up the symmetry group for a 
 simple tetragonal supercell.


 Subroutine GETGRP returns: Found 16 space group operations
 (whereof 16 operations were pure point group operations)
 out of a pool of 16 trial point group operations.


The static configuration has the point symmetry D_4h.


Analysis of symmetry for dynamics (positions and initial velocities):
=====================================================================
 Subroutine PRICEL returns following result:
 
  LATTYP: Found a simple tetragonal cell.
 ALAT       =     2.7500493888
 C/A-ratio  =     1.2642089792
  
  Lattice vectors:
  
 A1 = (   2.7500493888,   0.0000000000,   0.0000000000)
 A2 = (   0.0000000000,   2.7500493888,   0.0000000000)
 A3 = (   0.0000000000,   0.0000000000,   3.4766371306)
 
  27 primitive cells build up your supercell.
 

 Routine SETGRP: Setting up the symmetry group for a 
 simple tetragonal supercell.


 Subroutine GETGRP returns: Found 16 space group operations
 (whereof 16 operations were pure point group operations)
 out of a pool of 16 trial point group operations.


The dynamic configuration has the point symmetry D_4h.


Analysis of structural, dynamic, and magnetic symmetry:
=====================================================================
 Subroutine PRICEL returns:
 Original cell was already a primitive cell.
 

 Routine SETGRP: Setting up the symmetry group for a 
 simple tetragonal supercell.


 Subroutine GETGRP returns: Found  2 space group operations
 (whereof  1 operations were pure point group operations)
 out of a pool of 16 trial point group operations.


The magnetic configuration has the point symmetry C_1 .
 The point group associated with its full space group is C_1h.


 Subroutine INISYM returns: Found  2 space group operations
 (whereof  1 operations are pure point group operations),
 and found     1 'primitive' translations

 
 
 KPOINTS: automatic KPOINTS                       

Automatic generation of k-mesh.
 generate k-points for:    5    5    4
Space group operators:
 irot       det(A)        alpha          n_x          n_y          n_z        tau_x        tau_y        tau_z
    1     1.000000     0.000001     1.000000     0.000000     0.000000     0.000000     0.000000     0.000000
    2    -1.000000   180.000000     0.000000     1.000000     0.000000     0.000000     0.666667     0.000000
 
 Subroutine IBZKPT returns following result:
 ===========================================
 
 Found     33 irreducible k-points:
 
 Following reciprocal coordinates:
            Coordinates               Weight
  0.000000  0.000000  0.000000      1.000000
  0.200000  0.000000  0.000000      2.000000
  0.400000  0.000000  0.000000      2.000000
  0.000000  0.200000  0.000000      2.000000
  0.200000  0.200000  0.000000      4.000000
  0.400000  0.200000  0.000000      4.000000
  0.000000  0.400000  0.000000      2.000000
  0.200000  0.400000  0.000000      4.000000
  0.400000  0.400000  0.000000      4.000000
  0.000000  0.000000  0.250000      2.000000
  0.200000  0.000000  0.250000      2.000000
  0.400000  0.000000  0.250000      2.000000
 -0.400000  0.000000  0.250000      2.000000
 -0.200000  0.000000  0.250000      2.000000
  0.000000  0.200000  0.250000      4.000000
  0.200000  0.200000  0.250000      4.000000
  0.400000  0.200000  0.250000      4.000000
 -0.400000  0.200000  0.250000      4.000000
 -0.200000  0.200000  0.250000      4.000000
  0.000000  0.400000  0.250000      4.000000
  0.200000  0.400000  0.250000      4.000000
  0.400000  0.400000  0.250000      4.000000
 -0.400000  0.400000  0.250000      4.000000
 -0.200000  0.400000  0.250000      4.000000
  0.000000  0.000000  0.500000      1.000000
  0.200000  0.000000  0.500000      2.000000
  0.400000  0.000000  0.500000      2.000000
  0.000000  0.200000  0.500000      2.000000
  0.200000  0.200000  0.500000      4.000000
  0.400000  0.200000  0.500000      4.000000
  0.000000  0.400000  0.500000      2.000000
  0.200000  0.400000  0.500000      4.000000
  0.400000  0.400000  0.500000      4.000000
 
 Following cartesian coordinates:
            Coordinates               Weight
  0.000000  0.000000  0.000000      1.000000
  0.024242  0.000000  0.000000      2.000000
  0.048484  0.000000  0.000000      2.000000
  0.000000  0.024242  0.000000      2.000000
  0.024242  0.024242  0.000000      4.000000
  0.048484  0.024242  0.000000      4.000000
  0.000000  0.048484  0.000000      2.000000
  0.024242  0.048484  0.000000      4.000000
  0.048484  0.048484  0.000000      4.000000
  0.000000  0.000000  0.023970      2.000000
  0.024242  0.000000  0.023970      2.000000
  0.048484  0.000000  0.023970      2.000000
 -0.048484  0.000000  0.023970      2.000000
 -0.024242  0.000000  0.023970      2.000000
  0.000000  0.024242  0.023970      4.000000
  0.024242  0.024242  0.023970      4.000000
  0.048484  0.024242  0.023970      4.000000
 -0.048484  0.024242  0.023970      4.000000
 -0.024242  0.024242  0.023970      4.000000
  0.000000  0.048484  0.023970      4.000000
  0.024242  0.048484  0.023970      4.000000
  0.048484  0.048484  0.023970      4.000000
 -0.048484  0.048484  0.023970      4.000000
 -0.024242  0.048484  0.023970      4.000000
  0.000000  0.000000  0.047939      1.000000
  0.024242  0.000000  0.047939      2.000000
  0.048484  0.000000  0.047939      2.000000
  0.000000  0.024242  0.047939      2.000000
  0.024242  0.024242  0.047939      4.000000
  0.048484  0.024242  0.047939      4.000000
  0.000000  0.048484  0.047939      2.000000
  0.024242  0.048484  0.047939      4.000000
  0.048484  0.048484  0.047939      4.000000
 


--------------------------------------------------------------------------------------------------------




 Dimension of arrays:
   k-points           NKPTS =     33   k-points in BZ     NKDIM =     33   number of bands    NBANDS=    162
   number of dos      NEDOS =    301   number of ions     NIONS =     54
   non local maximal  LDIM  =      6   non local SUM 2l+1 LMDIM =     18
   total plane-waves  NPLWV = 204120
   max r-space proj   IRMAX =      1   max aug-charges    IRDMAX=  89713
   dimension x,y,z NGX =    54 NGY =   54 NGZ =   70
   dimension x,y,z NGXF=   108 NGYF=  108 NGZF=  140
   support grid    NGXF=   216 NGYF=  216 NGZF=  280
   ions per type =              27  27
   NGX,Y,Z   is equivalent  to a cutoff of  10.88, 10.88, 11.16 a.u.
   NGXF,Y,Z  is equivalent  to a cutoff of  21.76, 21.76, 22.32 a.u.

 SYSTEM =  AlMn_pv                                 
 POSCAR =  NewRef: 27, @ ['Mn', array([1.37502469, 

 Startparameter for this run:
   NWRITE =      2    write-flag & timer
   PREC   = accura    normal or accurate (medium, high low for compatibility)
   ISTART =      0    job   : 0-new  1-cont  2-samecut
   ICHARG =      2    charge: 1-file 2-atom 10-const
   ISPIN  =      2    spin polarized calculation?
   LNONCOLLINEAR =      F non collinear calculations
   LSORBIT =      F    spin-orbit coupling
   INIWAV =      1    electr: 0-lowe 1-rand  2-diag
   LASPH  =      F    aspherical Exc in radial PAW
   METAGGA=      F    non-selfconsistent MetaGGA calc.

 Electronic Relaxation 1
   ENCUT  =  404.8 eV  29.75 Ry    5.45 a.u.  13.53 13.53 17.11*2*pi/ulx,y,z
   ENINI  =  404.8     initial cutoff
   ENAUG  =  500.7 eV  augmentation charge cutoff
   NELM   =    100;   NELMIN=  4; NELMDL= -8     # of ELM steps 
   EDIFF  = 0.1E-06   stopping-criterion for ELM
   LREAL  =      F    real-space projection
   NLSPLINE    = F    spline interpolate recip. space projectors
   LCOMPAT=      F    compatible to vasp.4.4
   GGA_COMPAT  = T    GGA compatible to vasp.4.4-vasp.4.6
   LMAXPAW     = -100 max onsite density
   LMAXMIX     =    2 max onsite mixed and CHGCAR
   VOSKOWN=      0    Vosko Wilk Nusair interpolation
   ROPT   =    0.00000   0.00000
 Ionic relaxation
   EDIFFG = 0.1E-05   stopping-criterion for IOM
   NSW    =      0    number of steps for IOM
   NBLOCK =      1;   KBLOCK =      1    inner block; outer block 
   IBRION =     -1    ionic relax: 0-MD 1-quasi-New 2-CG
   NFREE  =      0    steps in history (QN), initial steepest desc. (CG)
   ISIF   =      2    stress and relaxation
   IWAVPR =     10    prediction:  0-non 1-charg 2-wave 3-comb
   ISYM   =      2    0-nonsym 1-usesym 2-fastsym
   LCORR  =      T    Harris-Foulkes like correction to forces

   POTIM  = 0.2000    time-step for ionic-motion
   TEIN   =    0.0    initial temperature
   TEBEG  =    0.0;   TEEND  =   0.0 temperature during run
   SMASS  =  -3.00    Nose mass-parameter (am)
   estimated Nose-frequenzy (Omega)   =  0.10E-29 period in steps =****** mass=  -0.156E-26a.u.
   SCALEE = 1.0000    scale energy and forces
   NPACO  =    256;   APACO  = 16.0  distance and # of slots for P.C.
   PSTRESS=    0.0 pullay stress

  Mass of Ions in am
   POMASS =  26.98 54.94
  Ionic Valenz
   ZVAL   =   3.00  7.00
  Atomic Wigner-Seitz radii
   RWIGS  =  -1.00 -1.00
  virtual crystal weights 
   VCA    =   1.00  1.00
   NELECT =     270.0000    total number of electrons
   NUPDOWN=      -1.0000    fix difference up-down

 DOS related values:
   EMIN   =  10.00;   EMAX   =-10.00  energy-range for DOS
   EFERMI =   0.00
   ISMEAR =     1;   SIGMA  =   0.20  broadening in eV -4-tet -1-fermi 0-gaus

 Electronic relaxation 2 (details)
   IALGO  =     58    algorithm
   LDIAG  =      T    sub-space diagonalisation (order eigenvalues)
   LSUBROT=      F    optimize rotation matrix (better conditioning)
   TURBO    =      0    0=normal 1=particle mesh
   IRESTART =      0    0=no restart 2=restart with 2 vectors
   NREBOOT  =      0    no. of reboots
   NMIN     =      0    reboot dimension
   EREF     =   0.00    reference energy to select bands
   IMIX   =      4    mixing-type and parameters
     AMIX     =   0.40;   BMIX     =  1.00
     AMIX_MAG =   1.60;   BMIX_MAG =  1.00
     AMIN     =   0.10
     WC   =   100.;   INIMIX=   1;  MIXPRE=   1;  MAXMIX= -45

 Intra band minimization:
   WEIMIN = 0.0000     energy-eigenvalue tresh-hold
   EBREAK =  0.15E-09  absolut break condition
   DEPER  =   0.30     relativ break condition  

   TIME   =   0.40     timestep for ELM

  volume/ion in A,a.u.               =      13.15        88.72
  Fermi-wavevector in a.u.,A,eV,Ry     =   1.186118  2.241439 19.141722  1.406877
  Thomas-Fermi vector in A             =   2.322298
 
 Write flags
   LWAVE        =      F    write WAVECAR
   LDOWNSAMPLE  =      F    k-point downsampling of WAVECAR
   LCHARG       =      F    write CHGCAR
   LVTOT        =      F    write LOCPOT, total local potential
   LVHAR        =      F    write LOCPOT, Hartree potential only
   LELF         =      F    write electronic localiz. function (ELF)
   LORBIT       =     10    0 simple, 1 ext, 2 COOP (PROOUT), +10 PAW based schemes


 Dipole corrections
   LMONO  =      F    monopole corrections only (constant potential shift)
   LDIPOL =      F    correct potential (dipole corrections)
   IDIPOL =      0    1-x, 2-y, 3-z, 4-all directions 
   EPSILON=  1.0000000 bulk dielectric constant

 Exchange correlation treatment:
   GGA     =    --    GGA type
   LEXCH   =     8    internal setting for exchange type
   VOSKOWN=      0    Vosko Wilk Nusair interpolation
   LHFCALC =     F    Hartree Fock is set to
   LHFONE  =     F    Hartree Fock one center treatment
   AEXX    =    0.0000 exact exchange contribution

 Linear response parameters
   LEPSILON=     F    determine dielectric tensor
   LRPA    =     F    only Hartree local field effects (RPA)
   LNABLA  =     F    use nabla operator in PAW spheres
   LVEL    =     F    velocity operator in full k-point grid
   LINTERFAST=   F  fast interpolation
   KINTER  =     0    interpolate to denser k-point grid
   CSHIFT  =0.1000    complex shift for real part using Kramers Kronig
   OMEGAMAX=  -1.0    maximum frequency
   DEG_THRESHOLD= 0.2000000E-02 threshold for treating states as degnerate
   RTIME   =   -0.100 relaxation time in fs
  (WPLASMAI=    0.000 imaginary part of plasma frequency in eV, 0.658/RTIME)
   DFIELD  = 0.0000000 0.0000000 0.0000000 field for delta impulse in time
 
 Orbital magnetization related:
   ORBITALMAG=     F  switch on orbital magnetization
   LCHIMAG   =     F  perturbation theory with respect to B field
   DQ        =  0.001000  dq finite difference perturbation B field
   LLRAUG    =     F  two centre corrections for induced B field



--------------------------------------------------------------------------------------------------------


 Static calculation
 charge density and potential will be updated during run
 spin polarized calculation
 Conjugate gradient for all bands (Freysoldt, et al. PRB 79, 241103 (2009))
 preconditioned conjugated gradient                                        
 perform sub-space diagonalisation
    before iterative eigenvector-optimisation
 modified Broyden-mixing scheme, WC =      100.0
 initial mixing is a Kerker type mixing with AMIX =  0.4000 and BMIX =      1.0000
 Hartree-type preconditioning will be used
 using additional bands           27
 reciprocal scheme for non local part
 use partial core corrections
 no Harris-corrections to forces 
 use gradient corrections 
 use of overlap-Matrix (Vanderbilt PP)
 Methfessel and Paxton  Order N= 1 SIGMA  =   0.20


--------------------------------------------------------------------------------------------------------


  energy-cutoff  :      404.80
  volume of cell :      709.91
      direct lattice vectors                 reciprocal lattice vectors
     8.250148166  0.000000000  0.000000000     0.121209944  0.000000000  0.000000000
     0.000000000  8.250148166  0.000000000     0.000000000  0.121209944  0.000000000
     0.000000000  0.000000000 10.429911392     0.000000000  0.000000000  0.095878092

  length of vectors
     8.250148166  8.250148166 10.429911392     0.121209944  0.121209944  0.095878092


 
 k-points in units of 2pi/SCALE and weight: automatic KPOINTS                       
   0.00000000  0.00000000  0.00000000       0.010
   0.02424199  0.00000000  0.00000000       0.020
   0.04848398  0.00000000  0.00000000       0.020
   0.00000000  0.02424199  0.00000000       0.020
   0.02424199  0.02424199  0.00000000       0.040
   0.04848398  0.02424199  0.00000000       0.040
   0.00000000  0.04848398  0.00000000       0.020
   0.02424199  0.04848398  0.00000000       0.040
   0.04848398  0.04848398  0.00000000       0.040
   0.00000000  0.00000000  0.02396952       0.020
   0.02424199  0.00000000  0.02396952       0.020
   0.04848398  0.00000000  0.02396952       0.020
  -0.04848398  0.00000000  0.02396952       0.020
  -0.02424199  0.00000000  0.02396952       0.020
   0.00000000  0.02424199  0.02396952       0.040
   0.02424199  0.02424199  0.02396952       0.040
   0.04848398  0.02424199  0.02396952       0.040
  -0.04848398  0.02424199  0.02396952       0.040
  -0.02424199  0.02424199  0.02396952       0.040
   0.00000000  0.04848398  0.02396952       0.040
   0.02424199  0.04848398  0.02396952       0.040
   0.04848398  0.04848398  0.02396952       0.040
  -0.04848398  0.04848398  0.02396952       0.040
  -0.02424199  0.04848398  0.02396952       0.040
   0.00000000  0.00000000  0.04793905       0.010
   0.02424199  0.00000000  0.04793905       0.020
   0.04848398  0.00000000  0.04793905       0.020
   0.00000000  0.02424199  0.04793905       0.020
   0.02424199  0.02424199  0.04793905       0.040
   0.04848398  0.02424199  0.04793905       0.040
   0.00000000  0.04848398  0.04793905       0.020
   0.02424199  0.04848398  0.04793905       0.040
   0.04848398  0.04848398  0.04793905       0.040
 
 k-points in reciprocal lattice and weights: automatic KPOINTS                       
   0.00000000  0.00000000  0.00000000       0.010
   0.20000000  0.00000000  0.00000000       0.020
   0.40000000  0.00000000  0.00000000       0.020
   0.00000000  0.20000000  0.00000000       0.020
   0.20000000  0.20000000  0.00000000       0.040
   0.40000000  0.20000000  0.00000000       0.040
   0.00000000  0.40000000  0.00000000       0.020
   0.20000000  0.40000000  0.00000000       0.040
   0.40000000  0.40000000  0.00000000       0.040
   0.00000000  0.00000000  0.25000000       0.020
   0.20000000  0.00000000  0.25000000       0.020
   0.40000000  0.00000000  0.25000000       0.020
  -0.40000000  0.00000000  0.25000000       0.020
  -0.20000000  0.00000000  0.25000000       0.020
   0.00000000  0.20000000  0.25000000       0.040
   0.20000000  0.20000000  0.25000000       0.040
   0.40000000  0.20000000  0.25000000       0.040
  -0.40000000  0.20000000  0.25000000       0.040
  -0.20000000  0.20000000  0.25000000       0.040
   0.00000000  0.40000000  0.25000000       0.040
   0.20000000  0.40000000  0.25000000       0.040
   0.40000000  0.40000000  0.25000000       0.040
  -0.40000000  0.40000000  0.25000000       0.040
  -0.20000000  0.40000000  0.25000000       0.040
   0.00000000  0.00000000  0.50000000       0.010
   0.20000000  0.00000000  0.50000000       0.020
   0.40000000  0.00000000  0.50000000       0.020
   0.00000000  0.20000000  0.50000000       0.020
   0.20000000  0.20000000  0.50000000       0.040
   0.40000000  0.20000000  0.50000000       0.040
   0.00000000  0.40000000  0.50000000       0.020
   0.20000000  0.40000000  0.50000000       0.040
   0.40000000  0.40000000  0.50000000       0.040
 
 position of ions in fractional coordinates (direct lattice) 
   0.00000000  0.00000000  0.00000000
   0.00000000  0.00000000  0.33333333
   0.00000000  0.00000000  0.66666667
   0.00000000  0.33333333  0.00000000
   0.00000000  0.33333333  0.33333333
   0.00000000  0.33333333  0.66666667
   0.00000000  0.66666667  0.00000000
   0.00000000  0.66666667  0.33333333
   0.00000000  0.66666667  0.66666667
   0.33333333  0.00000000  0.00000000
   0.33333333  0.00000000  0.33333333
   0.33333333  0.00000000  0.66666667
   0.33333333  0.33333333  0.00000000
   0.33333333  0.33333333  0.33333333
   0.33333333  0.33333333  0.66666667
   0.33333333  0.66666667  0.00000000
   0.33333333  0.66666667  0.33333333
   0.33333333  0.66666667  0.66666667
   0.66666667  0.00000000  0.00000000
   0.66666667  0.00000000  0.33333333
   0.66666667  0.00000000  0.66666667
   0.66666667  0.33333333  0.00000000
   0.66666667  0.33333333  0.33333333
   0.66666667  0.33333333  0.66666667
   0.66666667  0.66666667  0.00000000
   0.66666667  0.66666667  0.33333333
   0.66666667  0.66666667  0.66666667
   0.16666667  0.16666667  0.16666667
   0.16666667  0.16666667  0.50000000
   0.16666667  0.16666667  0.83333333
   0.16666667  0.50000000  0.16666667
   0.16666667  0.50000000  0.50000000
   0.16666667  0.50000000  0.83333333
   0.16666667  0.83333333  0.16666667
   0.16666667  0.83333333  0.50000000
   0.16666667  0.83333333  0.83333333
   0.50000000  0.16666667  0.16666667
   0.50000000  0.16666667  0.50000000
   0.50000000  0.16666667  0.83333333
   0.50000000  0.50000000  0.16666667
   0.50000000  0.50000000  0.50000000
   0.50000000  0.50000000  0.83333333
   0.50000000  0.83333333  0.16666667
   0.50000000  0.83333333  0.50000000
   0.50000000  0.83333333  0.83333333
   0.83333333  0.16666667  0.16666667
   0.83333333  0.16666667  0.50000000
   0.83333333  0.16666667  0.83333333
   0.83333333  0.50000000  0.16666667
   0.83333333  0.50000000  0.50000000
   0.83333333  0.50000000  0.83333333
   0.83333333  0.83333333  0.16666667
   0.83333333  0.83333333  0.50000000
   0.83333333  0.83333333  0.83333333
 
 position of ions in cartesian coordinates  (Angst):
   0.00000000  0.00000000  0.00000000
   0.00000000  0.00000000  3.47663713
   0.00000000  0.00000000  6.95327426
   0.00000000  2.75004939  0.00000000
   0.00000000  2.75004939  3.47663713
   0.00000000  2.75004939  6.95327426
   0.00000000  5.50009878  0.00000000
   0.00000000  5.50009878  3.47663713
   0.00000000  5.50009878  6.95327426
   2.75004939  0.00000000  0.00000000
   2.75004939  0.00000000  3.47663713
   2.75004939  0.00000000  6.95327426
   2.75004939  2.75004939  0.00000000
   2.75004939  2.75004939  3.47663713
   2.75004939  2.75004939  6.95327426
   2.75004939  5.50009878  0.00000000
   2.75004939  5.50009878  3.47663713
   2.75004939  5.50009878  6.95327426
   5.50009878  0.00000000  0.00000000
   5.50009878  0.00000000  3.47663713
   5.50009878  0.00000000  6.95327426
   5.50009878  2.75004939  0.00000000
   5.50009878  2.75004939  3.47663713
   5.50009878  2.75004939  6.95327426
   5.50009878  5.50009878  0.00000000
   5.50009878  5.50009878  3.47663713
   5.50009878  5.50009878  6.95327426
   1.37502469  1.37502469  1.73831857
   1.37502469  1.37502469  5.21495570
   1.37502469  1.37502469  8.69159283
   1.37502469  4.12507408  1.73831857
   1.37502469  4.12507408  5.21495570
   1.37502469  4.12507408  8.69159283
   1.37502469  6.87512347  1.73831857
   1.37502469  6.87512347  5.21495570
   1.37502469  6.87512347  8.69159283
   4.12507408  1.37502469  1.73831857
   4.12507408  1.37502469  5.21495570
   4.12507408  1.37502469  8.69159283
   4.12507408  4.12507408  1.73831857
   4.12507408  4.12507408  5.21495570
   4.12507408  4.12507408  8.69159283
   4.12507408  6.87512347  1.73831857
   4.12507408  6.87512347  5.21495570
   4.12507408  6.87512347  8.69159283
   6.87512347  1.37502469  1.73831857
   6.87512347  1.37502469  5.21495570
   6.87512347  1.37502469  8.69159283
   6.87512347  4.12507408  1.73831857
   6.87512347  4.12507408  5.21495570
   6.87512347  4.12507408  8.69159283
   6.87512347  6.87512347  1.73831857
   6.87512347  6.87512347  5.21495570
   6.87512347  6.87512347  8.69159283
 


--------------------------------------------------------------------------------------------------------


 k-point  1 :   0.0000 0.0000 0.0000  plane waves:   13099
 k-point  2 :   0.2000 0.0000 0.0000  plane waves:   13101
 k-point  3 :   0.4000 0.0000 0.0000  plane waves:   13111
 k-point  4 :   0.0000 0.2000 0.0000  plane waves:   13101
 k-point  5 :   0.2000 0.2000 0.0000  plane waves:   13137
 k-point  6 :   0.4000 0.2000 0.0000  plane waves:   13119
 k-point  7 :   0.0000 0.4000 0.0000  plane waves:   13111
 k-point  8 :   0.2000 0.4000 0.0000  plane waves:   13119
 k-point  9 :   0.4000 0.4000 0.0000  plane waves:   13129
 k-point 10 :   0.0000 0.0000 0.2500  plane waves:   13134
 k-point 11 :   0.2000 0.0000 0.2500  plane waves:   13149
 k-point 12 :   0.4000 0.0000 0.2500  plane waves:   13119
 k-point 13 :  -0.4000 0.0000 0.2500  plane waves:   13119
 k-point 14 :  -0.2000 0.0000 0.2500  plane waves:   13149
 k-point 15 :   0.0000 0.2000 0.2500  plane waves:   13149
 k-point 16 :   0.2000 0.2000 0.2500  plane waves:   13145
 k-point 17 :   0.4000 0.2000 0.2500  plane waves:   13134
 k-point 18 :  -0.4000 0.2000 0.2500  plane waves:   13134
 k-point 19 :  -0.2000 0.2000 0.2500  plane waves:   13145
 k-point 20 :   0.0000 0.4000 0.2500  plane waves:   13119
 k-point 21 :   0.2000 0.4000 0.2500  plane waves:   13134
 k-point 22 :   0.4000 0.4000 0.2500  plane waves:   13108
 k-point 23 :  -0.4000 0.4000 0.2500  plane waves:   13108
 k-point 24 :  -0.2000 0.4000 0.2500  plane waves:   13134
 k-point 25 :   0.0000 0.0000 0.5000  plane waves:   13186
 k-point 26 :   0.2000 0.0000 0.5000  plane waves:   13124
 k-point 27 :   0.4000 0.0000 0.5000  plane waves:   13152
 k-point 28 :   0.0000 0.2000 0.5000  plane waves:   13124
 k-point 29 :   0.2000 0.2000 0.5000  plane waves:   13136
 k-point 30 :   0.4000 0.2000 0.5000  plane waves:   13128
 k-point 31 :   0.0000 0.4000 0.5000  plane waves:   13152
 k-point 32 :   0.2000 0.4000 0.5000  plane waves:   13128
 k-point 33 :   0.4000 0.4000 0.5000  plane waves:   13112

 maximum and minimum number of plane-waves per node :      3304     3246

 maximum number of plane-waves:     13186
 maximum index in each direction: 
   IXMAX=   13   IYMAX=   13   IZMAX=   17
   IXMIN=  -13   IYMIN=  -13   IZMIN=  -17


 parallel 3D FFT for wavefunctions:
    minimum data exchange during FFTs selected (reduces bandwidth)
 parallel 3D FFT for charge:
    minimum data exchange during FFTs selected (reduces bandwidth)


 total amount of memory used by VASP MPI-rank0  1010588. kBytes
=======================================================================

   base      :      30000. kBytes
   nonl-proj :      34193. kBytes
   fftplans  :      31580. kBytes
   grid      :      21385. kBytes
   one-center:        435. kBytes
   wavefun   :     892995. kBytes
 
     INWAV:  cpu time    0.0000: real time    0.0000
 Broyden mixing: mesh for mixing (old mesh)
   NGX = 27   NGY = 27   NGZ = 35
  (NGX  =108   NGY  =108   NGZ  =140)
  gives a total of  25515 points

 initial charge density was supplied:
 charge density of overlapping atoms calculated
 number of electron     270.0000000 magnetization      -3.0000000
 keeping initial charge density in first step


--------------------------------------------------------------------------------------------------------


 Maximum index for augmentation-charges        10967 (set IRDMAX)


--------------------------------------------------------------------------------------------------------


 First call to EWALD:  gamma=   0.199
 Maximum number of real-space cells 3x 3x 2
 Maximum number of reciprocal cells 3x 3x 3

    FEWALD:  cpu time    0.0028: real time    0.0028


--------------------------------------- Iteration      1(   1)  ---------------------------------------


    POTLOK:  cpu time    0.4251: real time    0.4251
    SETDIJ:  cpu time    0.4543: real time    0.4543
    TRIAL :  cpu time   37.6649: real time   38.4718
    CORREC:  cpu time    0.0063: real time    0.0072
    --------------------------------------------
      LOOP:  cpu time   38.8323: real time   39.6715

 eigenvalue-minimisations  : 21384
 total energy-change (2. order) : 0.2065911E+04  (-0.8698558E+04)
 number of electron     270.0000000 magnetization      -3.0000000
 augmentation part      270.0000000 magnetization      -3.0000000

 Free energy of the ion-electron system (eV)
  ---------------------------------------------------
  alpha Z        PSCENC =       798.38614055
  Ewald energy   TEWEN  =    -12901.57693327
  -Hartree energ DENC   =     -2855.60785864
  -exchange      EXHF   =         0.00000000
  -V(xc)+E(xc)   XCENC  =      -996.25540571
  PAW double counting   =     12741.82587617   -11476.22345381
  entropy T*S    EENTRO =         0.01202113
  eigenvalues    EBANDS =      4057.67658804
  atomic energy  EATOM  =     12697.67401269
  ---------------------------------------------------
  free energy    TOTEN  =      2065.91098715 eV

  energy without entropy =     2065.89896602  energy(sigma->0) =     2065.90698010


--------------------------------------------------------------------------------------------------------




--------------------------------------- Iteration      1(   2)  ---------------------------------------


    TRIAL :  cpu time   37.2702: real time   38.3136
    CORREC:  cpu time    0.0081: real time    0.0083
    --------------------------------------------
      LOOP:  cpu time   37.2794: real time   38.3249

 eigenvalue-minimisations  : 21384
 total energy-change (2. order) :-0.2126053E+04  (-0.2087527E+04)
 number of electron     270.0000000 magnetization      -3.0000000
 augmentation part      270.0000000 magnetization      -3.0000000

 Free energy of the ion-electron system (eV)
  ---------------------------------------------------
  alpha Z        PSCENC =       798.38614055
  Ewald energy   TEWEN  =    -12901.57693327
  -Hartree energ DENC   =     -2855.60785864
  -exchange      EXHF   =         0.00000000
  -V(xc)+E(xc)   XCENC  =      -996.25540571
  PAW double counting   =     12741.82587617   -11476.22345381
  entropy T*S    EENTRO =         0.00116901
  eigenvalues    EBANDS =      1931.63412801
  atomic energy  EATOM  =     12697.67401269
  ---------------------------------------------------
  free energy    TOTEN  =       -60.14232501 eV

  energy without entropy =      -60.14349402  energy(sigma->0) =      -60.14271468


--------------------------------------------------------------------------------------------------------




--------------------------------------- Iteration      1(   3)  ---------------------------------------


    TRIAL :  cpu time   51.5337: real time   53.2641
    CORREC:  cpu time    0.0094: real time    0.0095
    --------------------------------------------
      LOOP:  cpu time   51.5439: real time   53.2767

 eigenvalue-minimisations  : 32262
 total energy-change (2. order) :-0.2856296E+03  (-0.2593239E+03)
 number of electron     270.0000000 magnetization      -3.0000000
 augmentation part      270.0000000 magnetization      -3.0000000

 Free energy of the ion-electron system (eV)
  ---------------------------------------------------
  alpha Z        PSCENC =       798.38614055
  Ewald energy   TEWEN  =    -12901.57693327
  -Hartree energ DENC   =     -2855.60785864
  -exchange      EXHF   =         0.00000000
  -V(xc)+E(xc)   XCENC  =      -996.25540571
  PAW double counting   =     12741.82587617   -11476.22345381
  entropy T*S    EENTRO =         0.01024143
  eigenvalues    EBANDS =      1645.99547348
  atomic energy  EATOM  =     12697.67401269
  ---------------------------------------------------
  free energy    TOTEN  =      -345.77190711 eV

  energy without entropy =     -345.78214854  energy(sigma->0) =     -345.77532092


--------------------------------------------------------------------------------------------------------




--------------------------------------- Iteration      1(   4)  ---------------------------------------


    TRIAL :  cpu time   55.5175: real time   56.6619
    CORREC:  cpu time    0.0101: real time    0.0110
    --------------------------------------------
      LOOP:  cpu time   55.5289: real time   56.6765

 eigenvalue-minimisations  : 34816
 total energy-change (2. order) :-0.5104393E+02  (-0.4577073E+02)
 number of electron     270.0000000 magnetization      -3.0000000
 augmentation part      270.0000000 magnetization      -3.0000000

 Free energy of the ion-electron system (eV)
  ---------------------------------------------------
  alpha Z        PSCENC =       798.38614055
  Ewald energy   TEWEN  =    -12901.57693327
  -Hartree energ DENC   =     -2855.60785864
  -exchange      EXHF   =         0.00000000
  -V(xc)+E(xc)   XCENC  =      -996.25540571
  PAW double counting   =     12741.82587617   -11476.22345381
  entropy T*S    EENTRO =        -0.00385397
  eigenvalues    EBANDS =      1594.96563941
  atomic energy  EATOM  =     12697.67401269
  ---------------------------------------------------
  free energy    TOTEN  =      -396.81583659 eV

  energy without entropy =     -396.81198262  energy(sigma->0) =     -396.81455193


--------------------------------------------------------------------------------------------------------




--------------------------------------- Iteration      1(   5)  ---------------------------------------


    TRIAL :  cpu time   57.5227: real time   58.6345
    CORREC:  cpu time    0.0104: real time    0.0113
    --------------------------------------------
      LOOP:  cpu time   57.5339: real time   58.6492

 eigenvalue-minimisations  : 36224
 total energy-change (2. order) :-0.6481673E+01  (-0.6146522E+01)
 number of electron     270.0000000 magnetization      -3.0000000
 augmentation part      270.0000000 magnetization      -3.0000000

 Free energy of the ion-electron system (eV)
  ---------------------------------------------------
  alpha Z        PSCENC =       798.38614055
  Ewald energy   TEWEN  =    -12901.57693327
  -Hartree energ DENC   =     -2855.60785864
  -exchange      EXHF   =         0.00000000
  -V(xc)+E(xc)   XCENC  =      -996.25540571
  PAW double counting   =     12741.82587617   -11476.22345381
  entropy T*S    EENTRO =        -0.00609402
  eigenvalues    EBANDS =      1588.48620618
  atomic energy  EATOM  =     12697.67401269
  ---------------------------------------------------
  free energy    TOTEN  =      -403.29750987 eV

  energy without entropy =     -403.29141585  energy(sigma->0) =     -403.29547853


--------------------------------------------------------------------------------------------------------




--------------------------------------- Iteration      1(   6)  ---------------------------------------


    TRIAL :  cpu time   56.2125: real time   58.0482
    CORREC:  cpu time    0.0103: real time    0.0112
    --------------------------------------------
      LOOP:  cpu time   56.2407: real time   58.0797

 eigenvalue-minimisations  : 35848
 total energy-change (2. order) :-0.5736632E+00  (-0.5549828E+00)
 number of electron     270.0000000 magnetization      -3.0000000
 augmentation part      270.0000000 magnetization      -3.0000000

 Free energy of the ion-electron system (eV)
  ---------------------------------------------------
  alpha Z        PSCENC =       798.38614055
  Ewald energy   TEWEN  =    -12901.57693327
  -Hartree energ DENC   =     -2855.60785864
  -exchange      EXHF   =         0.00000000
  -V(xc)+E(xc)   XCENC  =      -996.25540571
  PAW double counting   =     12741.82587617   -11476.22345381
  entropy T*S    EENTRO =        -0.00464343
  eigenvalues    EBANDS =      1587.91109236
  atomic energy  EATOM  =     12697.67401269
  ---------------------------------------------------
  free energy    TOTEN  =      -403.87117310 eV

  energy without entropy =     -403.86652967  energy(sigma->0) =     -403.86962529


--------------------------------------------------------------------------------------------------------




--------------------------------------- Iteration      1(   7)  ---------------------------------------


    TRIAL :  cpu time   57.4451: real time   58.5329
    CORREC:  cpu time    0.0104: real time    0.0113
    --------------------------------------------
      LOOP:  cpu time   57.4584: real time   58.5477

 eigenvalue-minimisations  : 36704
 total energy-change (2. order) :-0.6888479E-01  (-0.6747469E-01)
 number of electron     270.0000000 magnetization      -3.0000000
 augmentation part      270.0000000 magnetization      -3.0000000

 Free energy of the ion-electron system (eV)
  ---------------------------------------------------
  alpha Z        PSCENC =       798.38614055
  Ewald energy   TEWEN  =    -12901.57693327
  -Hartree energ DENC   =     -2855.60785864
  -exchange      EXHF   =         0.00000000
  -V(xc)+E(xc)   XCENC  =      -996.25540571
  PAW double counting   =     12741.82587617   -11476.22345381
  entropy T*S    EENTRO =        -0.00376461
  eigenvalues    EBANDS =      1587.84132875
  atomic energy  EATOM  =     12697.67401269
  ---------------------------------------------------
  free energy    TOTEN  =      -403.94005789 eV

  energy without entropy =     -403.93629328  energy(sigma->0) =     -403.93880302


--------------------------------------------------------------------------------------------------------




--------------------------------------- Iteration      1(   8)  ---------------------------------------


    TRIAL :  cpu time   55.4983: real time   56.5900
    CORREC:  cpu time    0.0107: real time    0.0116
    CHARGE:  cpu time    1.7445: real time    1.7770
    --------------------------------------------
      LOOP:  cpu time   57.2568: real time   58.3821

 eigenvalue-minimisations  : 35056
 total energy-change (2. order) :-0.7991177E-02  (-0.7873490E-02)
 number of electron     269.9999995 magnetization      -1.2698518
 augmentation part       64.1570394 magnetization      -0.8617711

 Free energy of the ion-electron system (eV)
  ---------------------------------------------------
  alpha Z        PSCENC =       798.38614055
  Ewald energy   TEWEN  =    -12901.57693327
  -Hartree energ DENC   =     -2855.60785864
  -exchange      EXHF   =         0.00000000
  -V(xc)+E(xc)   XCENC  =      -996.25540571
  PAW double counting   =     12741.82587617   -11476.22345381
  entropy T*S    EENTRO =        -0.00333092
  eigenvalues    EBANDS =      1587.83290389
  atomic energy  EATOM  =     12697.67401269
  ---------------------------------------------------
  free energy    TOTEN  =      -403.94804906 eV

  energy without entropy =     -403.94471814  energy(sigma->0) =     -403.94693876


--------------------------------------------------------------------------------------------------------




--------------------------------------- Iteration      1(   9)  ---------------------------------------


    POTLOK:  cpu time    0.3987: real time    0.3987
    SETDIJ:  cpu time    0.4567: real time    0.4567
    TRIAL :  cpu time   19.6602: real time   20.4488
    CORREC:  cpu time    5.6950: real time    5.7123
    CHARGE:  cpu time    1.7776: real time    1.8229
    --------------------------------------------
      LOOP:  cpu time   27.9894: real time   28.8416

 eigenvalue-minimisations  :     0
 total energy-change (2. order) : 0.3003534E+03  (-0.2202072E+03)
 number of electron     269.9999993 magnetization      -1.7806507
 augmentation part       82.7888334 magnetization      -1.2988911

 Free energy of the ion-electron system (eV)
  ---------------------------------------------------
  alpha Z        PSCENC =       798.38614055
  Ewald energy   TEWEN  =    -12901.57693327
  -Hartree energ DENC   =     -1270.60330882
  -exchange      EXHF   =         0.00000000
  -V(xc)+E(xc)   XCENC  =     -1041.80378804
  PAW double counting   =     19165.07488505   -17745.47889143
  entropy T*S    EENTRO =         0.01077367
  eigenvalues    EBANDS =       194.73654531
  atomic energy  EATOM  =     12697.67401269
  ---------------------------------------------------
  free energy    TOTEN  =      -103.59466889 eV

  energy without entropy =     -103.60544255  energy(sigma->0) =     -103.59826011


--------------------------------------------------------------------------------------------------------




--------------------------------------- Iteration      1(  10)  ---------------------------------------


    POTLOK:  cpu time    0.4013: real time    0.4013
    SETDIJ:  cpu time    0.4528: real time    0.4528
    TRIAL :  cpu time   18.9246: real time   19.0825
    CORREC:  cpu time    6.5213: real time    6.5365
    CHARGE:  cpu time    1.7346: real time    1.7346
    --------------------------------------------
      LOOP:  cpu time   28.0436: real time   28.2184

 eigenvalue-minimisations  :     0
 total energy-change (2. order) :-0.2149228E+03  (-0.1212481E+02)
 number of electron     269.9999993 magnetization      -1.8394713
 augmentation part       86.9993140 magnetization      -1.2387785

 Free energy of the ion-electron system (eV)
  ---------------------------------------------------
  alpha Z        PSCENC =       798.38614055
  Ewald energy   TEWEN  =    -12901.57693327
  -Hartree energ DENC   =     -2121.08225038
  -exchange      EXHF   =         0.00000000
  -V(xc)+E(xc)   XCENC  =     -1012.10527848
  PAW double counting   =     20704.04912452   -19468.99066940
  entropy T*S    EENTRO =         0.01121082
  eigenvalues    EBANDS =       985.11762330
  atomic energy  EATOM  =     12697.67401269
  ---------------------------------------------------
  free energy    TOTEN  =      -318.51745681 eV

  energy without entropy =     -318.52866763  energy(sigma->0) =     -318.52119375


--------------------------------------------------------------------------------------------------------




--------------------------------------- Iteration      1(  11)  ---------------------------------------


    POTLOK:  cpu time    0.3931: real time    0.3931
    SETDIJ:  cpu time    0.4886: real time    0.4886
    TRIAL :  cpu time   19.5513: real time   20.3730
    CORREC:  cpu time    5.7782: real time    5.7816
    CHARGE:  cpu time    1.7688: real time    1.7687
    --------------------------------------------
      LOOP:  cpu time   27.9840: real time   28.8104

 eigenvalue-minimisations  :     0
 total energy-change (2. order) :-0.1160599E+02  (-0.1118900E+02)
 number of electron     269.9999992 magnetization      -1.9046020
 augmentation part       89.0201685 magnetization      -1.4491631

 Free energy of the ion-electron system (eV)
  ---------------------------------------------------
  alpha Z        PSCENC =       798.38614055
  Ewald energy   TEWEN  =    -12901.57693327
  -Hartree energ DENC   =     -2375.24816102
  -exchange      EXHF   =         0.00000000
  -V(xc)+E(xc)   XCENC  =     -1002.94194008
  PAW double counting   =     21669.50340937   -20475.53087877
  entropy T*S    EENTRO =        -0.00250213
  eigenvalues    EBANDS =      1259.59969068
  atomic energy  EATOM  =     12697.67401269
  ---------------------------------------------------
  free energy    TOTEN  =      -330.12344904 eV

  energy without entropy =     -330.12094691  energy(sigma->0) =     -330.12261500


--------------------------------------------------------------------------------------------------------




--------------------------------------- Iteration      1(  12)  ---------------------------------------


    POTLOK:  cpu time    0.3955: real time    0.3954
    SETDIJ:  cpu time    0.4710: real time    0.4769
    TRIAL :  cpu time   18.9103: real time   19.0867
    CORREC:  cpu time    6.3224: real time    6.3466
    CHARGE:  cpu time    1.7569: real time    1.7568
    --------------------------------------------
      LOOP:  cpu time   27.8652: real time   28.0722

 eigenvalue-minimisations  :     0
 total energy-change (2. order) :-0.1127536E+02  (-0.1060859E+02)
 number of electron     269.9999993 magnetization      -2.2148086
 augmentation part       86.9180202 magnetization      -1.6109944

 Free energy of the ion-electron system (eV)
  ---------------------------------------------------
  alpha Z        PSCENC =       798.38614055
  Ewald energy   TEWEN  =    -12901.57693327
  -Hartree energ DENC   =     -2558.90925094
  -exchange      EXHF   =         0.00000000
  -V(xc)+E(xc)   XCENC  =      -996.88665244
  PAW double counting   =     21793.30395089   -20604.21845036
  entropy T*S    EENTRO =        -0.01064579
  eigenvalues    EBANDS =      1430.83087646
  atomic energy  EATOM  =     12697.67401269
  ---------------------------------------------------
  free energy    TOTEN  =      -341.39880857 eV

  energy without entropy =     -341.38816278  energy(sigma->0) =     -341.39525997


--------------------------------------------------------------------------------------------------------




--------------------------------------- Iteration      1(  13)  ---------------------------------------


    POTLOK:  cpu time    0.3926: real time    0.3925
    SETDIJ:  cpu time    0.4828: real time    0.4828
    TRIAL :  cpu time   18.8634: real time   19.6598
    CORREC:  cpu time    5.6480: real time    6.3992
    CHARGE:  cpu time    1.7323: real time    1.7323
    --------------------------------------------
      LOOP:  cpu time   27.1244: real time   28.6721

 eigenvalue-minimisations  :     0
 total energy-change (2. order) :-0.1043865E+02  (-0.9002996E+00)
 number of electron     269.9999993 magnetization      -2.3937527
 augmentation part       86.3766069 magnetization      -1.6497847

 Free energy of the ion-electron system (eV)
  ---------------------------------------------------
  alpha Z        PSCENC =       798.38614055
  Ewald energy   TEWEN  =    -12901.57693327
  -Hartree energ DENC   =     -2527.81458009
  -exchange      EXHF   =         0.00000000
  -V(xc)+E(xc)   XCENC  =      -998.78898614
  PAW double counting   =     21275.77368473   -20039.33148229
  entropy T*S    EENTRO =        -0.01559741
  eigenvalues    EBANDS =      1343.85132946
  atomic energy  EATOM  =     12697.67401269
  ---------------------------------------------------
  free energy    TOTEN  =      -351.83746016 eV

  energy without entropy =     -351.82186275  energy(sigma->0) =     -351.83226102


--------------------------------------------------------------------------------------------------------




--------------------------------------- Iteration      1(  14)  ---------------------------------------


    POTLOK:  cpu time    0.3943: real time    0.3943
    SETDIJ:  cpu time    0.4761: real time    0.4761
    TRIAL :  cpu time   18.8903: real time   19.0226
    CORREC:  cpu time    5.7324: real time    5.7838
    CHARGE:  cpu time    1.7747: real time    1.7747
    --------------------------------------------
      LOOP:  cpu time   27.2729: real time   27.4573

 eigenvalue-minimisations  :     0
 total energy-change (2. order) :-0.8938140E+00  (-0.1276559E+01)
 number of electron     269.9999993 magnetization      -2.4363513
 augmentation part       85.8127598 magnetization      -1.6332039

 Free energy of the ion-electron system (eV)
  ---------------------------------------------------
  alpha Z        PSCENC =       798.38614055
  Ewald energy   TEWEN  =    -12901.57693327
  -Hartree energ DENC   =     -2500.48583074
  -exchange      EXHF   =         0.00000000
  -V(xc)+E(xc)   XCENC  =      -999.83463931
  PAW double counting   =     21020.93178965   -19775.66115621
  entropy T*S    EENTRO =        -0.01542228
  eigenvalues    EBANDS =      1307.85093988
  atomic energy  EATOM  =     12697.67401269
  ---------------------------------------------------
  free energy    TOTEN  =      -352.73127417 eV

  energy without entropy =     -352.71585189  energy(sigma->0) =     -352.72613341


--------------------------------------------------------------------------------------------------------




--------------------------------------- Iteration      1(  15)  ---------------------------------------


    POTLOK:  cpu time    0.3898: real time    0.3898
    SETDIJ:  cpu time    0.4741: real time    0.4741
    TRIAL :  cpu time   19.5780: real time   19.6425
    CORREC:  cpu time    5.7193: real time    6.1535
    CHARGE:  cpu time    1.7102: real time    2.3643
    --------------------------------------------
      LOOP:  cpu time   28.7409: real time   29.9101

 eigenvalue-minimisations  :     0
 total energy-change (2. order) :-0.1275177E+01  (-0.7366371E+00)
 number of electron     269.9999992 magnetization      -2.3695042
 augmentation part       86.5086383 magnetization      -1.6495804

 Free energy of the ion-electron system (eV)
  ---------------------------------------------------
  alpha Z        PSCENC =       798.38614055
  Ewald energy   TEWEN  =    -12901.57693327
  -Hartree energ DENC   =     -2457.34162642
  -exchange      EXHF   =         0.00000000
  -V(xc)+E(xc)   XCENC  =     -1001.41446669
  PAW double counting   =     20190.69314653   -18933.66825469
  entropy T*S    EENTRO =        -0.01449490
  eigenvalues    EBANDS =      1253.25695198
  atomic energy  EATOM  =     12697.67401269
  ---------------------------------------------------
  free energy    TOTEN  =      -354.00645161 eV

  energy without entropy =     -353.99195671  energy(sigma->0) =     -354.00161997


--------------------------------------------------------------------------------------------------------




--------------------------------------- Iteration      1(  16)  ---------------------------------------


    POTLOK:  cpu time    0.3936: real time    0.3939
    SETDIJ:  cpu time    0.4807: real time    0.4806
    TRIAL :  cpu time   18.7074: real time   18.7887
    CORREC:  cpu time    5.5954: real time    5.7509
    CHARGE:  cpu time    1.7476: real time    1.7476
    --------------------------------------------
      LOOP:  cpu time   26.9563: real time   27.1942

 eigenvalue-minimisations  :     0
 total energy-change (2. order) :-0.7360119E+00  (-0.2828811E+00)
 number of electron     269.9999992 magnetization      -2.4504189
 augmentation part       87.0493996 magnetization      -1.6883771

 Free energy of the ion-electron system (eV)
  ---------------------------------------------------
  alpha Z        PSCENC =       798.38614055
  Ewald energy   TEWEN  =    -12901.57693327
  -Hartree energ DENC   =     -2481.82280752
  -exchange      EXHF   =         0.00000000
  -V(xc)+E(xc)   XCENC  =     -1000.48543734
  PAW double counting   =     19755.86333763   -18503.52607614
  entropy T*S    EENTRO =        -0.01595036
  eigenvalues    EBANDS =      1280.75979478
  atomic energy  EATOM  =     12697.67401269
  ---------------------------------------------------
  free energy    TOTEN  =      -354.74246353 eV

  energy without entropy =     -354.72651316  energy(sigma->0) =     -354.73714674


--------------------------------------------------------------------------------------------------------




--------------------------------------- Iteration      1(  17)  ---------------------------------------


    POTLOK:  cpu time    0.3940: real time    0.3944
    SETDIJ:  cpu time    0.4595: real time    0.4602
    TRIAL :  cpu time   19.4545: real time   19.5158
    CORREC:  cpu time    5.7159: real time    5.7201
    CHARGE:  cpu time    1.7287: real time    1.7516
    --------------------------------------------
      LOOP:  cpu time   27.7564: real time   27.8487

 eigenvalue-minimisations  :     0
 total energy-change (2. order) :-0.2846236E+00  (-0.2356272E+00)
 number of electron     269.9999992 magnetization      -2.6395669
 augmentation part       87.3086367 magnetization      -1.7903197

 Free energy of the ion-electron system (eV)
  ---------------------------------------------------
  alpha Z        PSCENC =       798.38614055
  Ewald energy   TEWEN  =    -12901.57693327
  -Hartree energ DENC   =     -2504.98511128
  -exchange      EXHF   =         0.00000000
  -V(xc)+E(xc)   XCENC  =      -999.54331163
  PAW double counting   =     19622.75235327   -18375.57302955
  entropy T*S    EENTRO =        -0.01635976
  eigenvalues    EBANDS =      1307.85474243
  atomic energy  EATOM  =     12697.67401269
  ---------------------------------------------------
  free energy    TOTEN  =      -355.02708716 eV

  energy without entropy =     -355.01072739  energy(sigma->0) =     -355.02163390


--------------------------------------------------------------------------------------------------------




--------------------------------------- Iteration      1(  18)  ---------------------------------------


    POTLOK:  cpu time    0.3932: real time    0.3992
    SETDIJ:  cpu time    0.4545: real time    0.4545
    TRIAL :  cpu time   18.6434: real time   19.5209
    CORREC:  cpu time    5.6943: real time    5.7523
    CHARGE:  cpu time    1.7315: real time    1.7444
    --------------------------------------------
      LOOP:  cpu time   26.9434: real time   27.8991

 eigenvalue-minimisations  :     0
 total energy-change (2. order) :-0.2357016E+00  (-0.2147261E+00)
 number of electron     269.9999992 magnetization      -2.5998852
 augmentation part       87.1789476 magnetization      -1.8213531

 Free energy of the ion-electron system (eV)
  ---------------------------------------------------
  alpha Z        PSCENC =       798.38614055
  Ewald energy   TEWEN  =    -12901.57693327
  -Hartree energ DENC   =     -2515.03883676
  -exchange      EXHF   =         0.00000000
  -V(xc)+E(xc)   XCENC  =      -998.94363488
  PAW double counting   =     19539.85222149   -18295.36605706
  entropy T*S    EENTRO =        -0.01639659
  eigenvalues    EBANDS =      1319.76665827
  atomic energy  EATOM  =     12697.67401269
  ---------------------------------------------------
  free energy    TOTEN  =      -355.26278874 eV

  energy without entropy =     -355.24639215  energy(sigma->0) =     -355.25732321


--------------------------------------------------------------------------------------------------------




--------------------------------------- Iteration      1(  19)  ---------------------------------------


    POTLOK:  cpu time    0.3945: real time    0.3946
    SETDIJ:  cpu time    0.4787: real time    0.4787
    TRIAL :  cpu time   19.4267: real time   19.5649
    CORREC:  cpu time    5.6905: real time    5.7011
    CHARGE:  cpu time    1.7425: real time    1.7425
    --------------------------------------------
      LOOP:  cpu time   27.7396: real time   27.8891

 eigenvalue-minimisations  :     0
 total energy-change (2. order) :-0.2141584E+00  (-0.6581128E-01)
 number of electron     269.9999992 magnetization      -2.6099807
 augmentation part       86.9880762 magnetization      -1.8358371

 Free energy of the ion-electron system (eV)
  ---------------------------------------------------
  alpha Z        PSCENC =       798.38614055
  Ewald energy   TEWEN  =    -12901.57693327
  -Hartree energ DENC   =     -2505.87889886
  -exchange      EXHF   =         0.00000000
  -V(xc)+E(xc)   XCENC  =      -998.99694068
  PAW double counting   =     19472.87275772   -18227.04545878
  entropy T*S    EENTRO =        -0.01690078
  eigenvalues    EBANDS =      1309.10477010
  atomic energy  EATOM  =     12697.67401269
  ---------------------------------------------------
  free energy    TOTEN  =      -355.47694712 eV

  energy without entropy =     -355.46004633  energy(sigma->0) =     -355.47131352


--------------------------------------------------------------------------------------------------------




--------------------------------------- Iteration      1(  20)  ---------------------------------------


    POTLOK:  cpu time    0.3938: real time    0.3937
    SETDIJ:  cpu time    0.4738: real time    0.4738
    TRIAL :  cpu time   18.6498: real time   19.5188
    CORREC:  cpu time    5.6750: real time    5.7138
    CHARGE:  cpu time    1.7634: real time    1.7633
    --------------------------------------------
      LOOP:  cpu time   26.9643: real time   27.8720

 eigenvalue-minimisations  :     0
 total energy-change (2. order) :-0.6543013E-01  (-0.7740106E-01)
 number of electron     269.9999992 magnetization      -2.6714024
 augmentation part       86.7429534 magnetization      -1.8551131

 Free energy of the ion-electron system (eV)
  ---------------------------------------------------
  alpha Z        PSCENC =       798.38614055
  Ewald energy   TEWEN  =    -12901.57693327
  -Hartree energ DENC   =     -2496.11185534
  -exchange      EXHF   =         0.00000000
  -V(xc)+E(xc)   XCENC  =      -999.25678165
  PAW double counting   =     19451.50648900   -18203.72620782
  entropy T*S    EENTRO =        -0.01776780
  eigenvalues    EBANDS =      1297.57965938
  atomic energy  EATOM  =     12697.67401269
  ---------------------------------------------------
  free energy    TOTEN  =      -355.54237725 eV

  energy without entropy =     -355.52460944  energy(sigma->0) =     -355.53645465


--------------------------------------------------------------------------------------------------------




--------------------------------------- Iteration      1(  21)  ---------------------------------------


    POTLOK:  cpu time    0.3936: real time    0.3935
    SETDIJ:  cpu time    0.5358: real time    0.5359
    TRIAL :  cpu time   18.7341: real time   18.9079
    CORREC:  cpu time    5.6917: real time    6.4860
    CHARGE:  cpu time    1.7074: real time    1.7074
    --------------------------------------------
      LOOP:  cpu time   27.0668: real time   28.0361

 eigenvalue-minimisations  :     0
 total energy-change (2. order) :-0.7739881E-01  (-0.7621280E-01)
 number of electron     269.9999992 magnetization      -2.6928454
 augmentation part       86.7589172 magnetization      -1.8778323

 Free energy of the ion-electron system (eV)
  ---------------------------------------------------
  alpha Z        PSCENC =       798.38614055
  Ewald energy   TEWEN  =    -12901.57693327
  -Hartree energ DENC   =     -2485.93065972
  -exchange      EXHF   =         0.00000000
  -V(xc)+E(xc)   XCENC  =      -999.51565330
  PAW double counting   =     19440.00400175   -18189.93887557
  entropy T*S    EENTRO =        -0.01777384
  eigenvalues    EBANDS =      1285.29595861
  atomic energy  EATOM  =     12697.67401269
  ---------------------------------------------------
  free energy    TOTEN  =      -355.61977606 eV

  energy without entropy =     -355.60200222  energy(sigma->0) =     -355.61385144


--------------------------------------------------------------------------------------------------------




--------------------------------------- Iteration      1(  22)  ---------------------------------------


    POTLOK:  cpu time    0.3936: real time    0.3936
    SETDIJ:  cpu time    0.4639: real time    0.4639
    TRIAL :  cpu time   18.6169: real time   19.4387
    CORREC:  cpu time    5.6798: real time    5.7427
    CHARGE:  cpu time    1.7468: real time    1.7590
    --------------------------------------------
      LOOP:  cpu time   26.9107: real time   27.8076

 eigenvalue-minimisations  :     0
 total energy-change (2. order) :-0.7613940E-01  (-0.3789153E-01)
 number of electron     269.9999992 magnetization      -2.7107234
 augmentation part       86.8956199 magnetization      -1.8987113

 Free energy of the ion-electron system (eV)
  ---------------------------------------------------
  alpha Z        PSCENC =       798.38614055
  Ewald energy   TEWEN  =    -12901.57693327
  -Hartree energ DENC   =     -2490.40566613
  -exchange      EXHF   =         0.00000000
  -V(xc)+E(xc)   XCENC  =      -999.26126509
  PAW double counting   =     19461.33271835   -18211.98080082
  entropy T*S    EENTRO =        -0.01847344
  eigenvalues    EBANDS =      1290.15365209
  atomic energy  EATOM  =     12697.67401269
  ---------------------------------------------------
  free energy    TOTEN  =      -355.69591546 eV

  energy without entropy =     -355.67744202  energy(sigma->0) =     -355.68975764


--------------------------------------------------------------------------------------------------------




--------------------------------------- Iteration      1(  23)  ---------------------------------------


    POTLOK:  cpu time    0.4130: real time    0.4161
    SETDIJ:  cpu time    0.4525: real time    0.4525
    TRIAL :  cpu time   18.7443: real time   18.8965
    CORREC:  cpu time    5.6811: real time    5.7123
    CHARGE:  cpu time    1.7005: real time    2.2605
    --------------------------------------------
      LOOP:  cpu time   27.0254: real time   27.7730

 eigenvalue-minimisations  :     0
 total energy-change (2. order) :-0.3799610E-01  (-0.1641497E-01)
 number of electron     269.9999992 magnetization      -2.7611321
 augmentation part       86.9754222 magnetization      -1.9316629

 Free energy of the ion-electron system (eV)
  ---------------------------------------------------
  alpha Z        PSCENC =       798.38614055
[...]
   45       -0.024  -0.027  -2.408  -2.459
   46       -0.018  -0.012  -2.391  -2.420
   47        0.014   0.020   2.281   2.314
   48       -0.024  -0.027  -2.394  -2.445
   49       -0.017  -0.012  -2.380  -2.409
   50        0.013   0.020   2.269   2.303
   51       -0.024  -0.027  -2.393  -2.444
   52       -0.011  -0.016  -2.283  -2.310
   53        0.020   0.014   2.349   2.382
   54        0.029   0.025   2.248   2.303
--------------------------------------------------
tot          0.013   0.008  -2.972  -2.951
 
    FORLOC:  cpu time    0.0578: real time    0.0578
    FORNL :  cpu time   27.9333: real time   29.5433
    STRESS:  cpu time   39.5768: real time   39.8353
    FORCOR:  cpu time    0.8360: real time    1.1058
    OFIELD:  cpu time    0.0023: real time    0.0023

  FORCE on cell =-STRESS in cart. coord.  units (eV):
  Direction    XX          YY          ZZ          XY          YZ          ZX
  --------------------------------------------------------------------------------------
  Alpha Z   798.38614   798.38614   798.38614
  Ewald   -4053.61603 -4053.61603 -4794.40593    -0.00000    -0.00000    -0.00000
  Hartree  1082.61793  1085.80742   332.55618     0.00000    -0.00000    -0.27686
  E(xc)   -1140.88771 -1141.57261 -1139.52433     0.00000    -0.00000     0.05351
  Local     372.25950   364.74915  1905.25340    -0.00000    -0.00000     0.86454
  n-local  -168.57361  -170.79805  -176.48321     0.18730    -0.31220     0.08064
  augment   782.93581   785.78917   767.62256     0.00000     0.00001    -0.24850
  Kinetic  2332.97776  2338.09742  2308.78688    -1.19959    -1.17024    -0.67127
  Fock        0.00000     0.00000     0.00000     0.00000     0.00000     0.00000
  -------------------------------------------------------------------------------------
  Total       6.09980     6.84261     2.19169     0.00000     0.00000    -0.19794
  in kB      13.76645    15.44287     4.94635     0.00000     0.00000    -0.44673
  external pressure =       11.39 kB  Pullay stress =        0.00 kB


 VOLUME and BASIS-vectors are now :
 -----------------------------------------------------------------------------
  energy-cutoff  :      404.80
  volume of cell :      709.91
      direct lattice vectors                 reciprocal lattice vectors
     8.250148166  0.000000000  0.000000000     0.121209944  0.000000000  0.000000000
     0.000000000  8.250148166  0.000000000     0.000000000  0.121209944  0.000000000
     0.000000000  0.000000000 10.429911392     0.000000000  0.000000000  0.095878092

  length of vectors
     8.250148166  8.250148166 10.429911392     0.121209944  0.121209944  0.095878092


 FORCES acting on ions:
    Electron-Ion                     Ewald-Force                    Non-Local-Force
 -----------------------------------------------------------------------------------------------
   0.767E-01 0.170E+00 -.103E-01   -.239E-08 -.239E-08 -.210E-08   -.267E-01 -.219E-01 -.392E-02
   -.454E-01 -.169E-01 0.288E-01   -.239E-08 -.239E-08 0.171E-08   0.143E+00 -.467E-02 0.114E-01
   0.125E+00 0.101E+00 -.319E-01   -.239E-08 -.239E-08 0.861E-08   -.102E+00 -.997E-01 0.221E-03
   0.535E-01 0.373E-09 -.784E-01   -.239E-08 -.802E-09 -.210E-08   -.605E-01 0.000E+00 -.159E-03
   -.615E-01 0.373E-09 0.401E-01   -.239E-08 -.802E-09 0.171E-08   0.148E+00 0.000E+00 0.557E-02
   -.103E-01 0.373E-09 0.697E-01   -.239E-08 -.802E-09 0.861E-08   0.807E-02 0.000E+00 -.321E-01
   0.767E-01 -.170E+00 -.103E-01   -.239E-08 0.631E-08 -.210E-08   -.267E-01 0.219E-01 -.392E-02
   -.454E-01 0.169E-01 0.288E-01   -.239E-08 0.631E-08 0.171E-08   0.143E+00 0.467E-02 0.114E-01
   0.125E+00 -.101E+00 -.319E-01   -.239E-08 0.631E-08 0.861E-08   -.102E+00 0.997E-01 0.221E-03
   -.952E-01 -.301E-01 -.834E-01   -.802E-09 -.239E-08 -.210E-08   0.623E-01 0.108E-01 -.413E-02
   0.381E-01 0.232E-01 0.922E-01   -.802E-09 -.239E-08 0.171E-08   -.135E+00 -.151E-01 -.124E-01
   -.988E-02 -.229E-01 0.461E-01   -.803E-09 -.239E-08 0.861E-08   -.219E-02 0.850E-02 -.137E-01
   -.517E-01 0.373E-09 -.673E-01   -.802E-09 -.802E-09 -.210E-08   0.581E-01 0.000E+00 -.327E-01
   0.623E-01 0.373E-09 0.525E-01   -.802E-09 -.802E-09 0.171E-08   -.143E+00 0.000E+00 -.138E-01
   -.143E-01 0.373E-09 0.270E-01   -.803E-09 -.802E-09 0.861E-08   0.298E-03 0.000E+00 0.198E-01
   -.952E-01 0.301E-01 -.834E-01   -.802E-09 0.631E-08 -.210E-08   0.623E-01 -.108E-01 -.413E-02
   0.381E-01 -.232E-01 0.922E-01   -.802E-09 0.631E-08 0.171E-08   -.135E+00 0.151E-01 -.124E-01
   -.988E-02 0.229E-01 0.461E-01   -.803E-09 0.631E-08 0.861E-08   -.219E-02 -.850E-02 -.137E-01
   0.175E-01 -.264E-02 0.172E-01   0.631E-08 -.239E-08 -.210E-08   -.355E-01 0.458E-01 0.735E-01
   -.319E-02 0.128E-02 -.866E-02   0.631E-08 -.239E-08 0.171E-08   0.113E-03 -.650E-02 -.189E-01
   -.865E-01 0.107E+00 -.122E+00   0.631E-08 -.239E-08 0.861E-08   0.842E-01 -.820E-01 0.419E-01
   0.137E-01 0.373E-09 -.240E-01   0.631E-08 -.802E-09 -.210E-08   -.117E-02 0.000E+00 0.551E-01
   0.178E-02 0.373E-09 0.681E-01   0.631E-08 -.802E-09 0.171E-08   0.142E-02 0.000E+00 -.646E-01
   0.288E-01 0.373E-09 -.101E+00   0.631E-08 -.802E-09 0.861E-08   -.171E-01 0.000E+00 0.662E-01
   0.175E-01 0.264E-02 0.172E-01   0.631E-08 0.631E-08 -.210E-08   -.355E-01 -.458E-01 0.735E-01
   -.319E-02 -.128E-02 -.866E-02   0.631E-08 0.631E-08 0.171E-08   0.113E-03 0.650E-02 -.189E-01
   -.865E-01 -.107E+00 -.122E+00   0.631E-08 0.631E-08 0.861E-08   0.842E-01 0.820E-01 0.419E-01
   -.928E-01 -.149E-01 0.197E+00   -.169E-07 -.169E-07 -.180E-07   0.123E+00 0.286E-01 -.202E+00
   -.275E-01 -.236E-01 -.111E+00   -.169E-07 -.169E-07 -.170E-08   0.280E-02 -.507E-02 0.205E+00
   -.768E-01 -.880E-01 -.985E-01   -.169E-07 -.169E-07 0.115E-07   0.112E+00 0.106E+00 0.107E+00
   -.928E-01 0.149E-01 0.197E+00   -.169E-07 0.802E-09 -.180E-07   0.123E+00 -.286E-01 -.202E+00
   -.275E-01 0.236E-01 -.111E+00   -.169E-07 0.802E-09 -.170E-08   0.280E-02 0.507E-02 0.205E+00
   -.768E-01 0.880E-01 -.985E-01   -.169E-07 0.802E-09 0.115E-07   0.112E+00 -.106E+00 0.107E+00
   0.932E-01 -.605E-08 0.238E+00   -.169E-07 0.130E-07 -.180E-07   -.100E+00 0.000E+00 -.298E+00
   0.356E-01 -.605E-08 -.226E+00   -.169E-07 0.130E-07 -.170E-08   -.604E-03 0.000E+00 0.297E+00
   0.343E+00 -.605E-08 -.990E-01   -.169E-07 0.130E-07 0.115E-07   -.169E+00 0.000E+00 0.917E-01
   0.266E+00 -.155E-01 -.743E-01   0.802E-09 -.169E-07 -.180E-07   -.985E-01 0.304E-01 0.110E+00
   0.241E-01 -.339E-02 0.870E-01   0.802E-09 -.169E-07 -.170E-08   0.353E-02 -.679E-02 -.643E-01
   0.389E-01 -.120E+00 0.647E-01   0.802E-09 -.169E-07 0.115E-07   -.420E-01 0.122E+00 -.168E+00
   0.266E+00 0.155E-01 -.743E-01   0.802E-09 0.802E-09 -.180E-07   -.985E-01 -.304E-01 0.110E+00
   0.241E-01 0.339E-02 0.870E-01   0.802E-09 0.802E-09 -.170E-08   0.353E-02 0.679E-02 -.643E-01
   0.389E-01 0.120E+00 0.647E-01   0.802E-09 0.802E-09 0.115E-07   -.420E-01 -.122E+00 -.168E+00
   0.299E+00 -.605E-08 -.175E+00   0.802E-09 0.130E-07 -.180E-07   -.353E-01 0.000E+00 0.247E+00
   -.306E-01 -.605E-08 -.740E-01   0.802E-09 0.130E-07 -.170E-08   0.646E-02 0.000E+00 0.733E-01
   -.383E+00 -.605E-08 0.107E+00   0.802E-09 0.130E-07 0.115E-07   0.234E+00 0.000E+00 -.151E+00
   -.229E+00 -.949E-02 -.167E+00   0.130E-07 -.169E-07 -.180E-07   -.531E-02 -.288E-01 0.247E+00
   -.380E-02 0.338E-01 -.325E-01   0.130E-07 -.169E-07 -.170E-08   0.503E-02 -.305E-02 0.281E-01
   0.396E-01 0.319E+00 0.933E-01   0.130E-07 -.169E-07 0.115E-07   -.438E-01 -.164E+00 -.139E+00
   -.229E+00 0.949E-02 -.167E+00   0.130E-07 0.802E-09 -.180E-07   -.531E-02 0.288E-01 0.247E+00
   -.380E-02 -.338E-01 -.325E-01   0.130E-07 0.802E-09 -.170E-08   0.503E-02 0.305E-02 0.281E-01
   0.396E-01 -.319E+00 0.933E-01   0.130E-07 0.802E-09 0.115E-07   -.438E-01 0.164E+00 -.139E+00
   -.300E+00 -.605E-08 0.166E+00   0.130E-07 0.130E-07 -.180E-07   0.453E-01 0.000E+00 -.266E+00
   -.693E-02 -.605E-08 0.280E+00   0.130E-07 0.130E-07 -.170E-08   -.718E-03 0.000E+00 -.355E+00
   0.114E-01 -.605E-08 -.196E+00   0.130E-07 0.130E-07 0.115E-07   -.558E-01 0.000E+00 0.209E+00
 -----------------------------------------------------------------------------------------------
   -.684E-02 -.360E-07 -.247E+00   -.614E-13 -.142E-13 0.128E-13   0.684E-02 0.278E-16 0.247E+00
 
 
 POSITION                                       TOTAL-FORCE (eV/Angst)
 -----------------------------------------------------------------------------------
      0.00000      0.00000      0.00000         0.052227      0.150012     -0.013771
      0.00000      0.00000      3.47664         0.085502     -0.021366      0.037791
      0.00000      0.00000      6.95327         0.031485      0.009631     -0.030664
      0.00000      2.75005      0.00000        -0.002008     -0.000000     -0.077798
      0.00000      2.75005      3.47664         0.073990     -0.000000      0.044317
      0.00000      2.75005      6.95327        -0.003286     -0.000000      0.041308
      0.00000      5.50010      0.00000         0.052227     -0.150012     -0.013771
      0.00000      5.50010      3.47664         0.085502      0.021366      0.037791
      0.00000      5.50010      6.95327         0.031485     -0.009631     -0.030664
      2.75005      0.00000      0.00000        -0.038769     -0.020602     -0.086454
      2.75005      0.00000      3.47664        -0.085935      0.009230      0.079984
      2.75005      0.00000      6.95327        -0.011964     -0.015638      0.034363
      2.75005      2.75005      0.00000         0.001215     -0.000000     -0.096169
      2.75005      2.75005      3.47664        -0.068390     -0.000000      0.038499
      2.75005      2.75005      6.95327        -0.014194     -0.000000      0.045473
      2.75005      5.50010      0.00000        -0.038769      0.020602     -0.086454
      2.75005      5.50010      3.47664        -0.085935     -0.009230      0.079984
      2.75005      5.50010      6.95327        -0.011964      0.015638      0.034363
      5.50010      0.00000      0.00000        -0.014285      0.038804      0.083791
      5.50010      0.00000      3.47664        -0.003110     -0.004702     -0.026994
      5.50010      0.00000      6.95327        -0.009220      0.031322     -0.082842
      5.50010      2.75005      0.00000         0.012977     -0.000000      0.026584
      5.50010      2.75005      3.47664         0.003271     -0.000000      0.008777
      5.50010      2.75005      6.95327         0.013666     -0.000000     -0.040688
      5.50010      5.50010      0.00000        -0.014285     -0.038804      0.083791
      5.50010      5.50010      3.47664        -0.003110      0.004702     -0.026994
      5.50010      5.50010      6.95327        -0.009220     -0.031322     -0.082842
      1.37502      1.37502      1.73832         0.027586      0.012128      0.000595
      1.37502      1.37502      5.21496        -0.025125     -0.028680      0.088309
      1.37502      1.37502      8.69159         0.033799      0.015973      0.006437
      1.37502      4.12507      1.73832         0.027586     -0.012128      0.000595
      1.37502      4.12507      5.21496        -0.025125      0.028680      0.088309
      1.37502      4.12507      8.69159         0.033799     -0.015973      0.006437
      1.37502      6.87512      1.73832        -0.002369     -0.000000     -0.052544
      1.37502      6.87512      5.21496         0.034420     -0.000000      0.062500
      1.37502      6.87512      8.69159         0.176101     -0.000000     -0.010826
      4.12507      1.37502      1.73832         0.170588      0.014393      0.029227
      4.12507      1.37502      5.21496         0.026980     -0.010156      0.023535
      4.12507      1.37502      8.69159         0.001038      0.000064     -0.095002
      4.12507      4.12507      1.73832         0.170588     -0.014393      0.029227
      4.12507      4.12507      5.21496         0.026980      0.010156      0.023535
      4.12507      4.12507      8.69159         0.001038     -0.000064     -0.095002
      4.12507      6.87512      1.73832         0.265778     -0.000000      0.062611
      4.12507      6.87512      5.21496        -0.024260     -0.000000     -0.003803
      4.12507      6.87512      8.69159        -0.151980     -0.000000     -0.039402
      6.87512      1.37502      1.73832        -0.239358     -0.036101      0.072089
      6.87512      1.37502      5.21496         0.001697      0.030315     -0.007111
      6.87512      1.37502      8.69159        -0.006825      0.160851     -0.041129
      6.87512      4.12507      1.73832        -0.239358      0.036101      0.072089
      6.87512      4.12507      5.21496         0.001697     -0.030315     -0.007111
      6.87512      4.12507      8.69159        -0.006825     -0.160851     -0.041129
      6.87512      6.87512      1.73832        -0.256156     -0.000000     -0.094933
      6.87512      6.87512      5.21496        -0.006657     -0.000000     -0.069990
      6.87512      6.87512      8.69159        -0.044737     -0.000000      0.011777
 -----------------------------------------------------------------------------------
    total drift:                               -0.000010     -0.000000      0.000001


--------------------------------------------------------------------------------------------------------



  FREE ENERGIE OF THE ION-ELECTRON SYSTEM (eV)
  ---------------------------------------------------
  free  energy   TOTEN  =      -355.86200613 eV

  energy  without entropy=     -355.84300244  energy(sigma->0) =     -355.85567157
 


--------------------------------------------------------------------------------------------------------


    POTLOK:  cpu time    0.8690: real time    0.8689


--------------------------------------------------------------------------------------------------------


     LOOP+:  cpu time 2350.1504: real time 2405.1698
    4ORBIT:  cpu time    0.0000: real time    0.0000
 


 total charge     
 
# of ion       s       p       d       tot
------------------------------------------
    1        0.405   0.431   0.000   0.836
    2        0.405   0.429   0.000   0.834
    3        0.406   0.428   0.000   0.833
    4        0.405   0.428   0.000   0.833
    5        0.405   0.429   0.000   0.834
    6        0.405   0.426   0.000   0.832
    7        0.405   0.430   0.000   0.836
    8        0.405   0.429   0.000   0.834
    9        0.406   0.427   0.000   0.833
   10        0.405   0.428   0.000   0.833
   11        0.405   0.429   0.000   0.834
   12        0.405   0.426   0.000   0.831
   13        0.405   0.428   0.000   0.833
   14        0.405   0.429   0.000   0.834
   15        0.405   0.426   0.000   0.832
   16        0.405   0.428   0.000   0.833
   17        0.405   0.429   0.000   0.834
   18        0.405   0.426   0.000   0.831
   19        0.405   0.427   0.000   0.831
   20        0.405   0.426   0.000   0.831
   21        0.405   0.429   0.000   0.834
   22        0.405   0.425   0.000   0.830
   23        0.405   0.426   0.000   0.831
   24        0.405   0.427   0.000   0.832
   25        0.405   0.426   0.000   0.831
   26        0.405   0.426   0.000   0.831
   27        0.405   0.429   0.000   0.834
   28        0.331   0.355   5.136   5.823
   29        0.335   0.350   5.135   5.821
   30        0.332   0.352   5.139   5.824
   31        0.331   0.355   5.135   5.821
   32        0.335   0.350   5.136   5.821
   33        0.332   0.352   5.134   5.819
   34        0.331   0.355   5.134   5.820
   35        0.334   0.352   5.133   5.819
   36        0.333   0.354   5.130   5.818
   37        0.334   0.354   5.131   5.818
   38        0.334   0.350   5.136   5.821
   39        0.333   0.351   5.139   5.824
   40        0.334   0.353   5.134   5.821
   41        0.334   0.350   5.137   5.821
   42        0.334   0.351   5.137   5.822
   43        0.334   0.352   5.133   5.819
   44        0.333   0.352   5.134   5.820
   45        0.335   0.355   5.125   5.816
   46        0.333   0.353   5.129   5.816
   47        0.333   0.352   5.130   5.816
   48        0.335   0.355   5.125   5.816
   49        0.333   0.353   5.136   5.822
   50        0.334   0.352   5.138   5.823
   51        0.335   0.355   5.126   5.816
   52        0.332   0.356   5.129   5.817
   53        0.334   0.348   5.140   5.822
   54        0.335   0.352   5.137   5.824
--------------------------------------------------
tot         19.941  21.070 138.611 179.621
 


 magnetization (x)
 
# of ion       s       p       d       tot
------------------------------------------
    1        0.007   0.012   0.000   0.019
    2       -0.010  -0.020   0.000  -0.030
    3       -0.004  -0.009   0.000  -0.013
    4        0.010   0.019   0.000   0.029
    5       -0.010  -0.018   0.000  -0.028
    6       -0.001  -0.002   0.000  -0.003
    7        0.007   0.012   0.000   0.019
    8       -0.010  -0.020   0.000  -0.030
    9       -0.004  -0.009   0.000  -0.013
   10        0.010   0.018   0.000   0.028
   11       -0.010  -0.018   0.000  -0.028
   12       -0.001  -0.003   0.000  -0.003
   13        0.012   0.020   0.000   0.032
   14       -0.010  -0.020   0.000  -0.029
   15        0.000  -0.001   0.000  -0.001
   16        0.010   0.018   0.000   0.028
   17       -0.010  -0.018   0.000  -0.028
   18       -0.001  -0.002   0.000  -0.003
   19        0.016   0.027   0.000   0.043
   20       -0.001  -0.004   0.000  -0.005
   21       -0.004  -0.008   0.000  -0.012
   22        0.020   0.034   0.000   0.054
   23       -0.001  -0.002   0.000  -0.003
   24       -0.001  -0.001   0.000  -0.002
   25        0.016   0.027   0.000   0.043
   26       -0.001  -0.004   0.000  -0.005
   27       -0.004  -0.008   0.000  -0.012
   28        0.016   0.011   2.251   2.278
   29        0.018   0.019   2.364   2.401
   30       -0.011  -0.012  -2.230  -2.253
   31        0.016   0.011   2.250   2.277
   32        0.018   0.018   2.364   2.400
   33       -0.011  -0.012  -2.228  -2.252
   34        0.016   0.015   2.245   2.276
   35        0.017   0.023   2.339   2.379
   36       -0.020  -0.024  -2.298  -2.342
   37       -0.016  -0.015  -2.357  -2.388
   38        0.015   0.016   2.286   2.317
   39       -0.014  -0.015  -2.324  -2.353
   40       -0.016  -0.015  -2.354  -2.385
   41        0.015   0.015   2.288   2.319
   42       -0.013  -0.015  -2.329  -2.358
   43       -0.018  -0.012  -2.410  -2.441
   44        0.013   0.020   2.273   2.306
   45       -0.024  -0.027  -2.408  -2.459
   46       -0.018  -0.012  -2.391  -2.420
   47        0.014   0.020   2.281   2.314
   48       -0.024  -0.027  -2.394  -2.445
   49       -0.017  -0.012  -2.380  -2.409
   50        0.013   0.020   2.269   2.303
   51       -0.024  -0.027  -2.393  -2.444
   52       -0.011  -0.016  -2.283  -2.310
   53        0.020   0.014   2.349   2.382
   54        0.029   0.025   2.248   2.303
--------------------------------------------------
tot          0.013   0.008  -2.972  -2.951
 

 total amount of memory used by VASP MPI-rank0  1010588. kBytes
=======================================================================

   base      :      30000. kBytes
   nonl-proj :      34193. kBytes
   fftplans  :      31580. kBytes
   grid      :      21385. kBytes
   one-center:        435. kBytes
   wavefun   :     892995. kBytes
 
  
  
 General timing and accounting informations for this job:
 ========================================================
  
                  Total CPU time used (sec):     2387.364
                            User time (sec):     2357.558
                          System time (sec):       29.805
                         Elapsed time (sec):     2446.889
  
                   Maximum memory used (kb):     1180472.
                   Average memory used (kb):           0.
  
                          Minor page faults:       736589
                          Major page faults:           18
                 Voluntary context switches:         3310
