   36   36    1    2
  0.1314651E+02  0.8250148E-09  0.8250148E-09  0.6953274E-09  0.2000000E-15
  1.000000000000000E-004
  CAR 
 AlMn_pv                                 
    180     52    116
 
  0.0000000E+00  0.0000000E+00  0.0000000E+00  0.6666667E-02
    1       -2.525494     -2.510900   1.000000   1.000000
    2       -0.360378     -0.382703   1.000000   1.000000
    3       -0.351468     -0.346345   1.000000   1.000000
    4       -0.334539     -0.295375   1.000000   1.000000
    5       -0.327731     -0.280458   1.000000   1.000000
    6       -0.111818     -0.121919   1.000000   1.000000
    7        1.338719      1.382330   1.000000   1.000000
    8        1.358812      1.400935   1.000000   1.000000
    9        1.363351      1.411703   1.000000   1.000000
   10        1.394101      1.423933   1.000000   1.000000
   11        1.422383      1.443551   1.000000   1.000000
   12        1.518268      1.560087   1.000000   1.000000
   13        1.562190      1.594323   1.000000   1.000000
   14        1.590876      1.624281   1.000000   1.000000
   15        1.634034      1.664361   1.000000   1.000000
   16        2.677627      2.726415   1.000000   1.000000
   17        2.719084      2.806888   1.000000   1.000000
   18        2.770655      2.862472   1.000000   1.000000
   19        2.821852      2.942389   1.000000   1.000000
   20        3.457460      3.454257   1.000000   1.000000
   21        3.493413      3.548224   1.000000   1.000000
   22        3.536730      3.633284   1.000000   1.000000
   23        3.568592      3.679943   1.000000   1.000000
   24        4.016909      4.105160   1.000000   1.000000
   25        4.160013      4.270489   1.000000   1.000000
   26        4.280707      4.429189   1.000000   1.000000
   27        4.447554      4.529761   1.000000   1.000000
   28        4.494680      4.554929   1.000000   1.000000
   29        4.536110      4.615994   1.000000   1.000000
   30        4.548020      4.663797   1.000000   1.000000
   31        4.578219      4.709257   1.000000   1.000000
   32        4.584161      4.730705   1.000000   1.000000
   33        4.628746      4.753293   1.000000   1.000000
   34        4.702208      4.851536   1.000000   1.000000
   35        4.712068      4.947254   1.000000   1.000000
   36        4.768533      5.004443   1.000000   1.000000
   37        4.794175      5.052687   1.000000   1.000000
   38        4.910750      5.156889   1.000000   1.000000
   39        4.921507      5.199993   1.000000   1.000000
   40        5.117390      5.337192   1.000000   1.000000
   41        5.224054      5.351115   1.000000   1.000000
   42        5.263200      5.403276   1.000000   1.000000
   43        5.317141      5.454308   1.000000   1.000000
   44        5.334968      5.469828   1.000000   1.000000
   45        5.346879      5.528454   1.000000   1.000000
   46        5.367489      5.548231   1.000000   1.000000
   47        5.384851      5.583247   1.000000   1.000000
   48        5.419645      5.630165   1.000000   1.000000
   49        5.432796      5.667931   1.000000   1.000000
   50        5.511487      5.673079   1.000000   1.000000
   51        5.518714      5.752659   1.000000   1.000000
   52        5.595113      5.788838   1.000000   1.000000
   53        5.674055      5.808546   1.000000   1.000000
   54        5.716265      5.842483   1.000000   1.000000
   55        5.723920      5.948582   1.000000   1.000000
   56        5.731462      6.200951   1.000000   1.000000
   57        5.760342      6.203339   1.000000   1.000000
   58        5.868847      6.223531   1.000000   1.000000
   59        5.896262      6.341001   1.000000   1.000000
   60        5.975177      6.378253   1.000000   1.000000
   61        6.005994      6.494148   1.000000   1.000000
   62        6.017911      6.514214   1.000000   1.000000
   63        6.203737      6.557614   1.000000   1.000000
   64        6.235305      6.559030   1.000000   1.000000
   65        6.362803      6.582403   1.000000   1.000000
   66        6.378374      6.616343   1.000000   1.000000
   67        6.394722      6.626897   1.000000   1.000000
   68        6.407395      6.691228   1.000000   1.000000
   69        6.408901      6.753705   1.000000   1.000000
   70        6.439527      6.771161   1.000000   1.000000
   71        6.453206      6.806015   1.000000   1.000000
   72        6.489467      6.814319   1.000000   1.000000
   73        6.502515      6.839596   1.000000   1.000000
   74        6.627534      6.872988   1.000000   1.000000
   75        6.633113      7.026627   1.000000   1.000003
   76        6.680339      7.166492   1.000000   1.000189
   77        6.725811      7.237531   1.000000   1.001081
   78        6.744944      7.274623   1.000000   1.002401
   79        6.774451      7.335930   1.000000   1.007422
   80        6.790590      7.383209   1.000000   1.014944
   81        6.918519      7.511171   1.000000   1.034442
   82        7.002903      7.528311   1.000001   1.030354
   83        7.021338      7.589726   1.000002   0.977102
   84        7.070759      7.607976   1.000012   0.946382
   85        7.097645      7.692575   1.000027   0.695963
   86        7.240205      7.911330   1.001150  -0.002806
   87        7.288141      7.920622   1.003137  -0.011435
   88        7.314273      7.965233   1.005112  -0.033646
   89        7.375146      8.054737   1.013429  -0.024374
   90        7.392250      8.055719   1.016802  -0.024059
   91        7.409122      8.170696   1.020471  -0.004776
   92        7.474583      8.218521   1.033999  -0.001855
   93        7.531078      8.304779   1.029241  -0.000244
   94        7.670534      8.342050   0.776575  -0.000089
   95        7.699412      8.373677   0.669991  -0.000036
   96        7.802432      8.419989   0.251092  -0.000008
   97        7.894917      8.444952   0.017199  -0.000004
   98        7.979480      8.528801  -0.035311  -0.000000
   99        8.046840      8.615469  -0.026148  -0.000000
  100        8.079280      8.622303  -0.018837  -0.000000
  101        8.125589      8.683531  -0.010106  -0.000000
  102        8.190440      8.707718  -0.003280  -0.000000
  103        8.209784      8.781650  -0.002246  -0.000000
  104        8.375862      8.828282  -0.000033  -0.000000
  105        8.388933      8.840736  -0.000023  -0.000000
  106        8.473118      8.921135  -0.000001  -0.000000
  107        8.600084      8.940078  -0.000000  -0.000000
  108        8.669908      8.977292  -0.000000  -0.000000
  109        8.701926      8.981861  -0.000000  -0.000000
  110        8.812054      9.000633  -0.000000  -0.000000
  111        8.833767      9.027593  -0.000000  -0.000000
  112        8.874875      9.034001  -0.000000  -0.000000
  113        8.914106      9.055270  -0.000000  -0.000000
  114        8.924883      9.100442  -0.000000  -0.000000
  115        9.053966      9.189252  -0.000000  -0.000000
  116        9.203759      9.260464  -0.000000  -0.000000
 
  0.2000000E+00  0.0000000E+00  0.0000000E+00  0.1333333E-01
    1       -2.434937     -2.420435   1.000000   1.000000
    2       -1.109108     -1.094689   1.000000   1.000000
    3       -0.269677     -0.256662   1.000000   1.000000
    4       -0.252271     -0.230502   1.000000   1.000000
    5       -0.046785     -0.055500   1.000000   1.000000
    6        0.557974      0.579912   1.000000   1.000000
    7        0.879139      0.895315   1.000000   1.000000
    8        0.916185      0.938088   1.000000   1.000000
    9        0.930943      0.958734   1.000000   1.000000
   10        1.425595      1.460615   1.000000   1.000000
   11        1.453955      1.486686   1.000000   1.000000
   12        1.460554      1.511334   1.000000   1.000000
   13        1.892153      1.960284   1.000000   1.000000
   14        2.284481      2.335834   1.000000   1.000000
   15        2.294635      2.352818   1.000000   1.000000
   16        2.304111      2.355418   1.000000   1.000000
   17        2.314472      2.379080   1.000000   1.000000
   18        2.797081      2.849474   1.000000   1.000000
   19        3.179930      3.299115   1.000000   1.000000
   20        3.215508      3.341502   1.000000   1.000000
   21        3.560269      3.619448   1.000000   1.000000
   22        3.594046      3.665196   1.000000   1.000000
   23        3.711987      3.764319   1.000000   1.000000
   24        4.000829      4.084233   1.000000   1.000000
   25        4.120162      4.216439   1.000000   1.000000
   26        4.245780      4.352744   1.000000   1.000000
   27        4.284071      4.409808   1.000000   1.000000
   28        4.390154      4.514136   1.000000   1.000000
   29        4.453634      4.589233   1.000000   1.000000
   30        4.472880      4.626025   1.000000   1.000000
   31        4.515575      4.641639   1.000000   1.000000
   32        4.531981      4.707750   1.000000   1.000000
   33        4.612161      4.713700   1.000000   1.000000
   34        4.644140      4.759805   1.000000   1.000000
   35        4.700956      4.951365   1.000000   1.000000
   36        4.836762      4.993764   1.000000   1.000000
   37        4.914762      5.107234   1.000000   1.000000
   38        4.960368      5.146514   1.000000   1.000000
   39        4.995172      5.157003   1.000000   1.000000
   40        5.030268      5.231876   1.000000   1.000000
   41        5.085965      5.303376   1.000000   1.000000
   42        5.215805      5.358266   1.000000   1.000000
   43        5.227460      5.384446   1.000000   1.000000
   44        5.330245      5.467901   1.000000   1.000000
   45        5.343832      5.531567   1.000000   1.000000
   46        5.348041      5.536970   1.000000   1.000000
   47        5.412042      5.610297   1.000000   1.000000
   48        5.416643      5.647594   1.000000   1.000000
   49        5.498731      5.662136   1.000000   1.000000
   50        5.528152      5.684967   1.000000   1.000000
   51        5.545116      5.759105   1.000000   1.000000
   52        5.613217      5.780498   1.000000   1.000000
   53        5.701250      5.840834   1.000000   1.000000
   54        5.707302      5.961179   1.000000   1.000000
   55        5.745402      5.980251   1.000000   1.000000
   56        5.745415      6.127941   1.000000   1.000000
   57        5.886955      6.244534   1.000000   1.000000
   58        5.916173      6.257788   1.000000   1.000000
   59        5.950868      6.333116   1.000000   1.000000
   60        5.983826      6.363560   1.000000   1.000000
   61        6.014784      6.392095   1.000000   1.000000
   62        6.027596      6.464117   1.000000   1.000000
   63        6.214002      6.513027   1.000000   1.000000
   64        6.248349      6.574723   1.000000   1.000000
   65        6.306453      6.607808   1.000000   1.000000
   66        6.340519      6.647604   1.000000   1.000000
   67        6.349946      6.661522   1.000000   1.000000
   68        6.394628      6.691552   1.000000   1.000000
   69        6.395007      6.716403   1.000000   1.000000
   70        6.408494      6.746913   1.000000   1.000000
   71        6.442479      6.802893   1.000000   1.000000
   72        6.514093      6.845149   1.000000   1.000000
   73        6.516267      6.864696   1.000000   1.000000
   74        6.562016      7.006403   1.000000   1.000001
   75        6.620547      7.060058   1.000000   1.000008
   76        6.654796      7.155959   1.000000   1.000143
   77        6.725125      7.183722   1.000000   1.000296
   78        6.726915      7.271721   1.000000   1.002256
   79        6.735856      7.362120   1.000000   1.011151
   80        6.782518      7.368455   1.000000   1.012217
   81        6.847903      7.447055   1.000000   1.029080
   82        6.887557      7.492766   1.000000   1.035429
   83        6.934477      7.507586   1.000000   1.034852
   84        6.987690      7.607620   1.000001   0.947001
   85        7.030877      7.671060   1.000003   0.775036
   86        7.114445      7.898958   1.000044   0.011697
   87        7.235832      7.906544   1.001044   0.002710
   88        7.289309      7.982357   1.003210  -0.035423
   89        7.311584      7.987880   1.004863  -0.035436
   90        7.464569      8.105104   1.032500  -0.013516
   91        7.500035      8.156634   1.035381  -0.006101
   92        7.533850      8.202940   1.028111  -0.002572
   93        7.620975      8.234794   0.918911  -0.001307
   94        7.688560      8.262037   0.711490  -0.000704
   95        7.778096      8.313541   0.343328  -0.000195
   96        7.798894      8.378036   0.263873  -0.000031
   97        7.969124      8.422173  -0.034314  -0.000008
   98        7.984978      8.531775  -0.035457  -0.000000
   99        8.034603      8.548246  -0.028930  -0.000000
  100        8.079779      8.663263  -0.018752  -0.000000
  101        8.117390      8.707582  -0.011358  -0.000000
  102        8.196482      8.713714  -0.002937  -0.000000
  103        8.252254      8.833424  -0.000884  -0.000000
  104        8.269217      8.881219  -0.000594  -0.000000
  105        8.417162      8.920962  -0.000009  -0.000000
  106        8.495486      8.946430  -0.000001  -0.000000
  107        8.543706      8.988148  -0.000000  -0.000000
  108        8.717049      9.011308  -0.000000  -0.000000
  109        8.753640      9.066977  -0.000000  -0.000000
  110        8.831669      9.071600  -0.000000  -0.000000
  111        8.899844      9.097644  -0.000000  -0.000000
  112        8.944132      9.121447  -0.000000  -0.000000
  113        9.069834      9.194435  -0.000000  -0.000000
  114        9.123162      9.208768  -0.000000  -0.000000
  115        9.182082      9.248924  -0.000000  -0.000000
  116        9.198908      9.314579  -0.000000  -0.000000
 
  0.4000000E+00  0.0000000E+00  0.0000000E+00  0.1333333E-01
    1       -2.164935     -2.150949   1.000000   1.000000
    2       -1.720031     -1.704852   1.000000   1.000000
    3       -0.024763     -0.011095   1.000000   1.000000
    4       -0.008495      0.013456   1.000000   1.000000
    5        0.145537      0.141592   1.000000   1.000000
    6        0.377134      0.393792   1.000000   1.000000
    7        0.393762      0.418935   1.000000   1.000000
    8        0.461141      0.463294   1.000000   1.000000
    9        1.568251      1.599148   1.000000   1.000000
   10        1.605328      1.639913   1.000000   1.000000
   11        1.638872      1.668941   1.000000   1.000000
   12        1.732941      1.787293   1.000000   1.000000
   13        1.907223      1.963061   1.000000   1.000000
   14        1.937316      1.982243   1.000000   1.000000
   15        2.194786      2.252319   1.000000   1.000000
   16        2.286561      2.400864   1.000000   1.000000
   17        2.666838      2.695498   1.000000   1.000000
   18        2.912849      2.993266   1.000000   1.000000
   19        2.964991      3.045334   1.000000   1.000000
   20        3.504829      3.659867   1.000000   1.000000
   21        3.597023      3.766536   1.000000   1.000000
   22        3.725012      3.783863   1.000000   1.000000
   23        3.745939      3.817386   1.000000   1.000000
   24        3.933912      4.000549   1.000000   1.000000
   25        4.005540      4.086508   1.000000   1.000000
   26        4.082486      4.177739   1.000000   1.000000
   27        4.124059      4.229541   1.000000   1.000000
   28        4.233022      4.405016   1.000000   1.000000
   29        4.264915      4.424793   1.000000   1.000000
   30        4.350477      4.510167   1.000000   1.000000
   31        4.367341      4.558277   1.000000   1.000000
   32        4.540666      4.560426   1.000000   1.000000
   33        4.638830      4.689199   1.000000   1.000000
   34        4.684515      4.771122   1.000000   1.000000
   35        4.731353      4.913723   1.000000   1.000000
   36        4.814603      5.004755   1.000000   1.000000
   37        4.949334      5.080315   1.000000   1.000000
   38        4.972068      5.158991   1.000000   1.000000
   39        5.020253      5.171340   1.000000   1.000000
   40        5.083062      5.270144   1.000000   1.000000
   41        5.133886      5.317496   1.000000   1.000000
   42        5.148736      5.339706   1.000000   1.000000
   43        5.235506      5.402859   1.000000   1.000000
   44        5.299916      5.459948   1.000000   1.000000
   45        5.342799      5.538548   1.000000   1.000000
   46        5.374065      5.561466   1.000000   1.000000
   47        5.403121      5.620053   1.000000   1.000000
   48        5.439804      5.657927   1.000000   1.000000
   49        5.477673      5.662100   1.000000   1.000000
   50        5.507375      5.671936   1.000000   1.000000
   51        5.578331      5.720004   1.000000   1.000000
   52        5.663813      5.743642   1.000000   1.000000
   53        5.678213      5.901614   1.000000   1.000000
   54        5.699632      5.967427   1.000000   1.000000
   55        5.735383      6.015196   1.000000   1.000000
   56        5.737148      6.030957   1.000000   1.000000
   57        5.898878      6.178981   1.000000   1.000000
   58        5.970281      6.193461   1.000000   1.000000
   59        5.976856      6.258363   1.000000   1.000000
   60        6.040171      6.311255   1.000000   1.000000
   61        6.112372      6.364595   1.000000   1.000000
   62        6.171462      6.434078   1.000000   1.000000
   63        6.184302      6.484165   1.000000   1.000000
   64        6.211848      6.576708   1.000000   1.000000
   65        6.233306      6.578308   1.000000   1.000000
   66        6.249382      6.665416   1.000000   1.000000
   67        6.285184      6.690827   1.000000   1.000000
   68        6.310235      6.705957   1.000000   1.000000
   69        6.369235      6.752126   1.000000   1.000000
   70        6.395663      6.804213   1.000000   1.000000
   71        6.430618      6.858348   1.000000   1.000000
   72        6.446247      6.894873   1.000000   1.000000
   73        6.513710      6.969793   1.000000   1.000000
   74        6.532625      6.992135   1.000000   1.000001
   75        6.627107      7.079412   1.000000   1.000015
   76        6.631077      7.190913   1.000000   1.000356
   77        6.673248      7.198401   1.000000   1.000429
   78        6.713050      7.243016   1.000000   1.001224
   79        6.721158      7.266232   1.000000   1.002015
   80        6.771253      7.334958   1.000000   1.007287
   81        6.807356      7.446924   1.000000   1.029077
   82        6.838826      7.461313   1.000000   1.031925
   83        6.903061      7.542264   1.000000   1.024217
   84        6.936160      7.627813   1.000000   0.903066
   85        6.939922      7.732871   1.000000   0.532955
   86        7.020990      7.744422   1.000002   0.483351
   87        7.155210      7.887945   1.000140   0.027598
   88        7.189504      7.920832   1.000343  -0.011668
   89        7.245842      7.996329   1.001297  -0.035029
   90        7.456344      8.081244   1.031006  -0.018377
   91        7.551960      8.083969   1.017910  -0.017770
   92        7.637409      8.138872   0.878577  -0.008186
   93        7.688869      8.205562   0.710322  -0.002430
   94        7.720618      8.207806   0.583377  -0.002326
   95        7.763636      8.286889   0.402394  -0.000384
   96        7.860488      8.293505   0.079957  -0.000328
   97        7.863731      8.371743   0.072718  -0.000038
   98        7.979400      8.427236  -0.035295  -0.000007
   99        7.990115      8.580005  -0.035367  -0.000000
  100        8.069042      8.624559  -0.021100  -0.000000
  101        8.134191      8.661584  -0.008808  -0.000000
  102        8.199686      8.721525  -0.002728  -0.000000
  103        8.217187      8.739748  -0.001932  -0.000000
  104        8.264274      8.790763  -0.000667  -0.000000
  105        8.440127      8.939717  -0.000004  -0.000000
  106        8.467099      8.978238  -0.000002  -0.000000
  107        8.547563      8.989959  -0.000000  -0.000000
  108        8.727357      9.038412  -0.000000  -0.000000
  109        8.844877      9.157588  -0.000000  -0.000000
  110        8.870106      9.166949  -0.000000  -0.000000
  111        8.953384      9.173913  -0.000000  -0.000000
  112        9.013225      9.216567  -0.000000  -0.000000
  113        9.124349      9.220077  -0.000000  -0.000000
  114        9.161967      9.256094  -0.000000  -0.000000
  115        9.307323      9.495335  -0.000000  -0.000000
  116        9.326760      9.716573  -0.000000  -0.000000
 
  0.0000000E+00  0.2000000E+00  0.0000000E+00  0.1333333E-01
    1       -2.434961     -2.420365   1.000000   1.000000
    2       -1.108914     -1.094945   1.000000   1.000000
    3       -0.275571     -0.263858   1.000000   1.000000
    4       -0.246404     -0.222683   1.000000   1.000000
    5       -0.046585     -0.055554   1.000000   1.000000
    6        0.557415      0.579855   1.000000   1.000000
    7        0.881154      0.894682   1.000000   1.000000
    8        0.916803      0.936056   1.000000   1.000000
    9        0.930912      0.960531   1.000000   1.000000
   10        1.411626      1.448261   1.000000   1.000000
   11        1.454171      1.505002   1.000000   1.000000
   12        1.468341      1.511801   1.000000   1.000000
   13        1.896479      1.953213   1.000000   1.000000
   14        2.276021      2.326839   1.000000   1.000000
   15        2.285520      2.350210   1.000000   1.000000
   16        2.311980      2.360442   1.000000   1.000000
   17        2.321617      2.385754   1.000000   1.000000
   18        2.795535      2.847284   1.000000   1.000000
   19        3.176432      3.281948   1.000000   1.000000
   20        3.222290      3.355203   1.000000   1.000000
   21        3.538866      3.598145   1.000000   1.000000
   22        3.621056      3.692756   1.000000   1.000000
   23        3.716040      3.766802   1.000000   1.000000
   24        4.001232      4.086900   1.000000   1.000000
   25        4.121836      4.230755   1.000000   1.000000
   26        4.228544      4.342164   1.000000   1.000000
   27        4.285590      4.379550   1.000000   1.000000
   28        4.383448      4.532551   1.000000   1.000000
   29        4.460822      4.573023   1.000000   1.000000
   30        4.467356      4.610029   1.000000   1.000000
   31        4.530761      4.640531   1.000000   1.000000
   32        4.544438      4.722633   1.000000   1.000000
   33        4.589043      4.725312   1.000000   1.000000
   34        4.632785      4.792708   1.000000   1.000000
   35        4.744415      4.956048   1.000000   1.000000
   36        4.839761      5.038005   1.000000   1.000000
   37        4.899572      5.075312   1.000000   1.000000
   38        4.960497      5.150735   1.000000   1.000000
   39        5.005308      5.178904   1.000000   1.000000
   40        5.030750      5.224940   1.000000   1.000000
   41        5.068343      5.303050   1.000000   1.000000
   42        5.220226      5.354710   1.000000   1.000000
   43        5.239611      5.420912   1.000000   1.000000
   44        5.296303      5.445199   1.000000   1.000000
   45        5.350240      5.524326   1.000000   1.000000
   46        5.362400      5.536476   1.000000   1.000000
   47        5.398622      5.576270   1.000000   1.000000
   48        5.426637      5.610073   1.000000   1.000000
   49        5.475395      5.662837   1.000000   1.000000
   50        5.503878      5.693689   1.000000   1.000000
   51        5.624349      5.752557   1.000000   1.000000
   52        5.631313      5.769392   1.000000   1.000000
   53        5.673216      5.850420   1.000000   1.000000
   54        5.703968      5.871514   1.000000   1.000000
   55        5.752421      6.068833   1.000000   1.000000
   56        5.839560      6.138466   1.000000   1.000000
   57        5.855021      6.213058   1.000000   1.000000
   58        5.869062      6.278026   1.000000   1.000000
   59        5.898646      6.327618   1.000000   1.000000
   60        5.952436      6.354371   1.000000   1.000000
   61        6.034029      6.378522   1.000000   1.000000
   62        6.066780      6.472112   1.000000   1.000000
   63        6.207978      6.502488   1.000000   1.000000
   64        6.232563      6.544051   1.000000   1.000000
   65        6.293570      6.589094   1.000000   1.000000
   66        6.294626      6.623123   1.000000   1.000000
   67        6.334104      6.685926   1.000000   1.000000
   68        6.349472      6.694429   1.000000   1.000000
   69        6.369828      6.697976   1.000000   1.000000
   70        6.396241      6.761264   1.000000   1.000000
   71        6.444814      6.808058   1.000000   1.000000
   72        6.527900      6.830951   1.000000   1.000000
   73        6.539364      6.864280   1.000000   1.000000
   74        6.625212      7.031083   1.000000   1.000003
   75        6.636853      7.076818   1.000000   1.000014
   76        6.642359      7.142002   1.000000   1.000097
   77        6.692869      7.196998   1.000000   1.000414
   78        6.700954      7.274502   1.000000   1.002389
   79        6.726654      7.330127   1.000000   1.006724
   80        6.792694      7.402544   1.000000   1.018969
   81        6.827845      7.485263   1.000000   1.035080
   82        6.929366      7.547775   1.000000   1.020953
   83        6.963717      7.584835   1.000000   0.984219
   84        6.983216      7.600679   1.000001   0.959652
   85        7.019681      7.667203   1.000002   0.788170
   86        7.142141      7.845690   1.000098   0.115727
   87        7.270252      7.866563   1.002194   0.066896
   88        7.312724      7.938306   1.004974  -0.024052
   89        7.326770      8.027075   1.006367  -0.030519
   90        7.401187      8.058955   1.018704  -0.023334
   91        7.459437      8.212918   1.031611  -0.002087
   92        7.555871      8.227233   1.015083  -0.001547
   93        7.682970      8.289790   0.732531  -0.000358
   94        7.685265      8.322933   0.723981  -0.000151
   95        7.793958      8.333781   0.282266  -0.000113
   96        7.804462      8.431961   0.244384  -0.000006
   97        7.979688      8.458894  -0.035336  -0.000002
   98        8.006362      8.468375  -0.034042  -0.000002
   99        8.047386      8.510016  -0.026019  -0.000000
  100        8.095761      8.650777  -0.015344  -0.000000
  101        8.168084      8.665566  -0.004987  -0.000000
  102        8.176408      8.677446  -0.004290  -0.000000
  103        8.240296      8.796107  -0.001161  -0.000000
  104        8.332252      8.853625  -0.000117  -0.000000
  105        8.422066      8.894736  -0.000008  -0.000000
  106        8.503928      8.962023  -0.000000  -0.000000
  107        8.509874      8.978995  -0.000000  -0.000000
  108        8.713076      9.004581  -0.000000  -0.000000
  109        8.715259      9.069483  -0.000000  -0.000000
  110        8.785193      9.074733  -0.000000  -0.000000
  111        8.831845      9.134116  -0.000000  -0.000000
  112        8.964027      9.140455  -0.000000  -0.000000
  113        9.077902      9.154121  -0.000000  -0.000000
  114        9.169538      9.222312  -0.000000  -0.000000
  115        9.170181      9.329632  -0.000000  -0.000000
  116        9.242665      9.385512  -0.000000  -0.000000
 
  0.2000000E+00  0.2000000E+00  0.0000000E+00  0.1333333E-01
    1       -2.344683     -2.330216   1.000000   1.000000
    2       -1.026216     -1.017681   1.000000   1.000000
    3       -1.020435     -0.998824   1.000000   1.000000
    4        0.018293      0.010731   1.000000   1.000000
    5        0.218753      0.239589   1.000000   1.000000
    6        0.635117      0.651774   1.000000   1.000000
    7        0.640208      0.667353   1.000000   1.000000
    8        0.934937      0.955495   1.000000   1.000000
    9        0.952247      0.962967   1.000000   1.000000
   10        1.547779      1.604391   1.000000   1.000000
   11        1.719218      1.750691   1.000000   1.000000
   12        1.746352      1.779492   1.000000   1.000000
   13        1.831369      1.867928   1.000000   1.000000
   14        1.953311      2.018845   1.000000   1.000000
   15        1.964918      2.029873   1.000000   1.000000
   16        2.765152      2.863456   1.000000   1.000000
   17        2.810180      2.905812   1.000000   1.000000
   18        2.836765      2.911275   1.000000   1.000000
   19        2.864140      2.920007   1.000000   1.000000
   20        2.888932      2.959792   1.000000   1.000000
   21        3.597140      3.742747   1.000000   1.000000
   22        3.755489      3.805311   1.000000   1.000000
   23        3.765061      3.826376   1.000000   1.000000
   24        3.787204      3.857586   1.000000   1.000000
   25        4.116120      4.261813   1.000000   1.000000
   26        4.281456      4.366070   1.000000   1.000000
   27        4.295599      4.395992   1.000000   1.000000
   28        4.320019      4.420592   1.000000   1.000000
   29        4.337309      4.478386   1.000000   1.000000
   30        4.368546      4.514339   1.000000   1.000000
   31        4.397294      4.556345   1.000000   1.000000
   32        4.470774      4.605721   1.000000   1.000000
   33        4.615555      4.754527   1.000000   1.000000
   34        4.637694      4.756353   1.000000   1.000000
   35        4.670493      4.871000   1.000000   1.000000
   36        4.766532      5.007446   1.000000   1.000000
   37        4.898821      5.056917   1.000000   1.000000
   38        4.914909      5.060693   1.000000   1.000000
   39        5.027178      5.167443   1.000000   1.000000
   40        5.069374      5.244043   1.000000   1.000000
   41        5.183069      5.337120   1.000000   1.000000
   42        5.226594      5.357108   1.000000   1.000000
   43        5.233318      5.412228   1.000000   1.000000
   44        5.262220      5.474815   1.000000   1.000000