       N       E                     dE             d eps       ncg     rms          ort
DAV:   1     0.133943139421E+04    0.13394E+04   -0.59223E+04  6032   0.139E+03
DAV:   2    -0.720040310880E+02   -0.14114E+04   -0.13716E+04  6032   0.423E+02
DAV:   3    -0.240860178612E+03   -0.16886E+03   -0.14923E+03  6032   0.160E+02
DAV:   4    -0.266991470398E+03   -0.26131E+02   -0.22995E+02  6032   0.693E+01
DAV:   5    -0.269547958606E+03   -0.25565E+01   -0.24325E+01  6032   0.203E+01
DAV:   6    -0.269748092571E+03   -0.20013E+00   -0.19607E+00  6032   0.536E+00
DAV:   7    -0.269769338267E+03   -0.21246E-01   -0.21061E-01  6032   0.151E+00
DAV:   8    -0.269770911317E+03   -0.15730E-02   -0.15648E-02  6032   0.395E-01
SDA:   9    -0.633295773052E+02    0.20644E+03   -0.15648E-02  6032   0.228E+04 0.000E+00
CGA:  10    -0.208233846502E+03   -0.14490E+03   -0.14480E+03  6032   0.135E+03 0.357E+03
CGA:  11    -0.217904731166E+03   -0.96709E+01   -0.96181E+01  6032   0.621E+02 0.250E+01
CGA:  12    -0.225761678651E+03   -0.78569E+01   -0.78809E+01  6032   0.896E+02-0.763E-02
CGA:  13    -0.233373980645E+03   -0.76123E+01   -0.76798E+01  6032   0.141E+02 0.282E+00
CGA:  14    -0.234346288798E+03   -0.97231E+00   -0.98404E+00  6032   0.567E+01-0.857E-01
CGA:  15    -0.234974854117E+03   -0.62857E+00   -0.63271E+00  6032   0.647E+01 0.392E-03
CGA:  16    -0.235640499198E+03   -0.66565E+00   -0.66427E+00  6032   0.250E+01 0.105E-01
CGA:  17    -0.235803720497E+03   -0.16322E+00   -0.16469E+00  6032   0.122E+01-0.130E-01
CGA:  18    -0.235955796268E+03   -0.15208E+00   -0.15194E+00  6032   0.112E+01-0.118E-02
CGA:  19    -0.236097475977E+03   -0.14168E+00   -0.14186E+00  6032   0.447E+00 0.520E-03
CGA:  20    -0.236133517479E+03   -0.36042E-01   -0.36072E-01  6032   0.307E+00-0.438E-03
CGA:  21    -0.236172819525E+03   -0.39302E-01   -0.39354E-01  6032   0.384E+00 0.545E-03
CGA:  22    -0.236216647387E+03   -0.43828E-01   -0.43828E-01  6032   0.181E+00-0.883E-04
CGA:  23    -0.236230843839E+03   -0.14196E-01   -0.14210E-01  6032   0.714E-01-0.236E-03
CGA:  24    -0.236240120437E+03   -0.92766E-02   -0.92728E-02  6032   0.980E-01-0.174E-03
CGA:  25    -0.236253297014E+03   -0.13177E-01   -0.13176E-01  6032   0.788E-01-0.244E-03
CGA:  26    -0.236260799306E+03   -0.75023E-02   -0.74935E-02  6032   0.509E-01-0.207E-03
CGA:  27    -0.236266410895E+03   -0.56116E-02   -0.56118E-02  6032   0.436E-01-0.867E-04
CGA:  28    -0.236271686251E+03   -0.52754E-02   -0.52724E-02  6032   0.252E-01-0.551E-04
CGA:  29    -0.236273804109E+03   -0.21179E-02   -0.21191E-02  6032   0.136E-01 0.203E-04
CGA:  30    -0.236275749505E+03   -0.19454E-02   -0.19454E-02  6032   0.156E-01 0.152E-04
CGA:  31    -0.236277632596E+03   -0.18831E-02   -0.18835E-02  6032   0.133E-01 0.221E-04
CGA:  32    -0.236278854715E+03   -0.12221E-02   -0.12218E-02  6032   0.744E-02 0.129E-04
CGA:  33    -0.236279916514E+03   -0.10618E-02   -0.10617E-02  6032   0.709E-02 0.192E-04
CGA:  34    -0.236280754320E+03   -0.83781E-03   -0.83832E-03  6032   0.430E-02 0.407E-04
CGA:  35    -0.236281121960E+03   -0.36764E-03   -0.36915E-03  6032   0.259E-02 0.301E-04
CGA:  36    -0.236281438496E+03   -0.31654E-03   -0.31686E-03  6032   0.225E-02 0.311E-04
CGA:  37    -0.236281773285E+03   -0.33479E-03   -0.33436E-03  6032   0.208E-02 0.272E-04
CGA:  38    -0.236282007584E+03   -0.23430E-03   -0.23459E-03  6032   0.159E-02 0.139E-04
CGA:  39    -0.236282184214E+03   -0.17663E-03   -0.17689E-03  6032   0.105E-02 0.116E-04
SDA:  40    -0.236282282446E+03   -0.98232E-04   -0.98546E-04  6032   0.536E-03 0.841E-05
CGA:  41    -0.236282322789E+03   -0.40343E-04   -0.40295E-04  6032   0.502E-03-0.117E-05
CGA:  42    -0.236282405110E+03   -0.82322E-04   -0.82492E-04  6032   0.360E-03-0.439E-05
CGA:  43    -0.236282444448E+03   -0.39337E-04   -0.39214E-04  6032   0.351E-03-0.687E-05
CGA:  44    -0.236282489503E+03   -0.45055E-04   -0.45102E-04  6032   0.172E-03-0.117E-04
CGA:  45    -0.236282514306E+03   -0.24803E-04   -0.24872E-04  6032   0.212E-03-0.307E-05
CGA:  46    -0.236282541184E+03   -0.26878E-04   -0.26880E-04  6032   0.122E-03-0.158E-05
CGA:  47    -0.236282554911E+03   -0.13727E-04   -0.13709E-04  6032   0.151E-03-0.123E-05
CGA:  48    -0.236282578031E+03   -0.23120E-04   -0.23189E-04  6032   0.951E-04-0.248E-05
CGA:  49    -0.236282586571E+03   -0.85400E-05   -0.85399E-05  6032   0.901E-04 0.483E-07
CGA:  50    -0.236282600111E+03   -0.13540E-04   -0.13506E-04  6032   0.755E-04 0.153E-05
CGA:  51    -0.236282606418E+03   -0.63070E-05   -0.63638E-05  6032   0.247E-04 0.131E-05
CGA:  52    -0.236282611913E+03   -0.54958E-05   -0.54077E-05  6032   0.515E-04 0.999E-06
CGA:  53    -0.236282616832E+03   -0.49190E-05   -0.49536E-05  6032   0.199E-04 0.974E-06
CGA:  54    -0.236282619735E+03   -0.29030E-05   -0.28960E-05  6032   0.275E-04 0.475E-06
CGA:  55    -0.236282624479E+03   -0.47432E-05   -0.47207E-05  6032   0.124E-04 0.604E-06
CGA:  56    -0.236282625303E+03   -0.82452E-06   -0.82577E-06  6032   0.600E-05 0.175E-07
CGA:  57    -0.236282626856E+03   -0.15527E-05   -0.16552E-05  6032   0.226E-04-0.699E-06
CGA:  58    -0.236282628529E+03   -0.16731E-05   -0.16335E-05  6032   0.583E-05-0.718E-06
CGA:  59    -0.236282629139E+03   -0.60981E-06   -0.60809E-06  6032   0.763E-05-0.102E-06
CGA:  60    -0.236282630311E+03   -0.11726E-05   -0.11745E-05  6032   0.114E-04-0.838E-07
CGA:  61    -0.236282630999E+03   -0.68770E-06   -0.68464E-06  6032   0.212E-05-0.227E-07
CGA:  62    -0.236282631338E+03   -0.33927E-06   -0.34266E-06  6032   0.445E-05-0.984E-07
CGA:  63    -0.236282631738E+03   -0.39951E-06   -0.39684E-06  6032   0.318E-05-0.557E-07
CGA:  64    -0.236282631988E+03   -0.24986E-06   -0.25773E-06  6032   0.204E-05 0.157E-06
CGA:  65    -0.236282632220E+03   -0.23247E-06   -0.23751E-06  6032   0.172E-05 0.280E-06
CGA:  66    -0.236282632342E+03   -0.12178E-06   -0.12523E-06  6032   0.783E-06 0.633E-07
CGA:  67    -0.236282632509E+03   -0.16759E-06   -0.21889E-06  6032   0.205E-05-0.344E-06
CGA:  68    -0.236282632576E+03   -0.66471E-07   -0.56449E-07  6032   0.122E-05-0.118E-06
   1 F= -.23628263E+03 E0= -.23628551E+03  d E =0.862721E-02  mag=     8.6712
