 vasp.5.4.4.18Apr17-6-g9f103f2a35 (build Dec 20 2018 12:05:58) complex          
  
 executed on             LinuxIFC date 2019.06.20  14:53:50
 running on   32 total cores
 distrk:  each k-point on    8 cores,    4 groups
 distr:  one band on NCORES_PER_BAND=   4 cores,    2 groups


--------------------------------------------------------------------------------------------------------


 INCAR:
 POTCAR:    PAW_PBE Al 04Jan2001                  
 POTCAR:    PAW_PBE Mn 06Sep2000                  

 ----------------------------------------------------------------------------- 
|                                                                             |
|           W    W    AA    RRRRR   N    N  II  N    N   GGGG   !!!           |
|           W    W   A  A   R    R  NN   N  II  NN   N  G    G  !!!           |
|           W    W  A    A  R    R  N N  N  II  N N  N  G       !!!           |
|           W WW W  AAAAAA  RRRRR   N  N N  II  N  N N  G  GGG   !            |
|           WW  WW  A    A  R   R   N   NN  II  N   NN  G    G                |
|           W    W  A    A  R    R  N    N  II  N    N   GGGG   !!!           |
|                                                                             |
|      You have enabled k-point parallelism (KPAR>1).                         |
|      This developmental code was originally  written by Paul Kent at ORNL,  |
|      and carefully double checked in Vienna.                                |
|      GW as well as linear response parallelism added by Martijn Marsman     |
|      and Georg Kresse.                                                      |
|      Carefully verify results versus KPAR=1.                                |
|      Report problems to Paul Kent and Vienna.                               |
|                                                                             |
 ----------------------------------------------------------------------------- 

 POTCAR:    PAW_PBE Al 04Jan2001                  
   VRHFIN =Al: s2p1                                                             
   LEXCH  = PE                                                                  
   EATOM  =    53.5387 eV,    3.9350 Ry                                         
                                                                                
   TITEL  = PAW_PBE Al 04Jan2001                                                
   LULTRA =        F    use ultrasoft PP ?                                      
   IUNSCR =        1    unscreen: 0-lin 1-nonlin 2-no                           
   RPACOR =    1.500    partial core radius                                     
   POMASS =   26.981; ZVAL   =    3.000    mass and valenz                      
   RCORE  =    1.900    outmost cutoff radius                                   
   RWIGS  =    2.650; RWIGS  =    1.402    wigner-seitz radius (au A)           
   ENMAX  =  240.300; ENMIN  =  180.225 eV                                      
   ICORE  =        2    local potential                                         
   LCOR   =        T    correct aug charges                                     
   LPAW   =        T    paw PP                                                  
   EAUG   =  291.052                                                            
   DEXC   =    0.000                                                            
   RMAX   =    1.939    core radius for proj-oper                               
   RAUG   =    1.300    factor for augmentation sphere                          
   RDEP   =    1.966    radius for radial grids                                 
   RDEPT  =    1.856    core radius for aug-charge                              
                                                                                
   Atomic configuration                                                         
    6 entries                                                                   
     n  l   j            E        occ.                                          
     1  0  0.50     -1511.1048   2.0000                                         
     2  0  0.50      -108.1629   2.0000                                         
     2  1  1.50       -69.6402   6.0000                                         
     3  0  0.50        -7.7528   2.0000                                         
     3  1  1.50        -2.7121   1.0000                                         
     3  2  2.50        -2.7212   0.0000                                         
   Description                                                                  
     l       E           TYP  RCUT    TYP  RCUT                                 
     0     -7.7528455     23  1.900                                             
     0     -3.3096929     23  1.900                                             
     1     -2.7120682     23  1.900                                             
     1     13.6058260     23  1.900                                             
     2     -2.7211652      7  1.900                                             
  local pseudopotential read in
  partial core-charges read in
  partial kinetic energy density read in
  atomic valenz-charges read in
  non local Contribution for L=           0  read in
    real space projection operators read in
  non local Contribution for L=           0  read in
    real space projection operators read in
  non local Contribution for L=           1  read in
    real space projection operators read in
  non local Contribution for L=           1  read in
    real space projection operators read in
    PAW grid and wavefunctions read in
 
   number of l-projection  operators is LMAX  =           4
   number of lm-projection operators is LMMAX =           8
 
 POTCAR:    PAW_PBE Mn 06Sep2000                  
   VRHFIN =Mn: d6 s1                                                            
   LEXCH  = PE                                                                  
   EATOM  =   416.7541 eV,   30.6306 Ry                                         
                                                                                
   TITEL  = PAW_PBE Mn 06Sep2000                                                
   LULTRA =        F    use ultrasoft PP ?                                      
   IUNSCR =        1    unscreen: 0-lin 1-nonlin 2-no                           
   RPACOR =    2.000    partial core radius                                     
   POMASS =   54.938; ZVAL   =    7.000    mass and valenz                      
   RCORE  =    2.300    outmost cutoff radius                                   
   RWIGS  =    2.500; RWIGS  =    1.323    wigner-seitz radius (au A)           
   ENMAX  =  269.864; ENMIN  =  202.398 eV                                      
   RCLOC  =    1.725    cutoff for local pot                                    
   LCOR   =        T    correct aug charges                                     
   LPAW   =        T    paw PP                                                  
   EAUG   =  500.711                                                            
   DEXC   =    0.000                                                            
   RMAX   =    2.343    core radius for proj-oper                               
   RAUG   =    1.300    factor for augmentation sphere                          
   RDEP   =    2.338    radius for radial grids                                 
   RDEPT  =    1.911    core radius for aug-charge                              
                                                                                
   Atomic configuration                                                         
    9 entries                                                                   
     n  l   j            E        occ.                                          
     1  0  0.50     -6424.8288   2.0000                                         
     2  0  0.50      -739.1154   2.0000                                         
     2  1  1.50      -625.3949   6.0000                                         
     3  0  0.50       -81.6100   2.0000                                         
     3  1  1.50       -50.4667   6.0000                                         
     3  2  2.50        -3.3745   6.0000                                         
     4  0  0.50        -4.1331   1.0000                                         
     4  1  0.50        -4.0817   0.0000                                         
     4  3  2.50        -1.3606   0.0000                                         
   Description                                                                  
     l       E           TYP  RCUT    TYP  RCUT                                 
     2     -3.3744664     23  2.300                                             
     2     -4.7350490     23  2.300                                             
     0     -4.1331408     23  2.300                                             
     0      7.6656614     23  2.300                                             
     1     -2.7211652     23  2.300                                             
     1     20.4087390     23  2.300                                             
  local pseudopotential read in
  partial core-charges read in
  partial kinetic energy density read in
  atomic valenz-charges read in
  non local Contribution for L=           2  read in
    real space projection operators read in
  non local Contribution for L=           2  read in
    real space projection operators read in
  non local Contribution for L=           0  read in
    real space projection operators read in
  non local Contribution for L=           0  read in
    real space projection operators read in
  non local Contribution for L=           1  read in
    real space projection operators read in
  non local Contribution for L=           1  read in
    real space projection operators read in
    PAW grid and wavefunctions read in
 
   number of l-projection  operators is LMAX  =           6
   number of lm-projection operators is LMMAX =          18
 

 ----------------------------------------------------------------------------- 
|                                                                             |
|  ADVICE TO THIS USER RUNNING 'VASP/VAMP'   (HEAR YOUR MASTER'S VOICE ...):  |
|                                                                             |
|      You have a (more or less) 'large supercell' and for larger cells       |
|      it might be more efficient to use real space projection opertators     |
|      So try LREAL= Auto  in the INCAR   file.                               |
|      Mind:          For very  accurate calculation you might also keep the  |
|      reciprocal projection scheme          (i.e. LREAL=.FALSE.)             |
|                                                                             |
 ----------------------------------------------------------------------------- 

  PAW_PBE Al 04Jan2001                  :
 energy of atom  1       EATOM=  -53.5387
 kinetic energy error for atom=    0.0005 (will be added to EATOM!!)
  PAW_PBE Mn 06Sep2000                  :
 energy of atom  2       EATOM= -416.7541
 kinetic energy error for atom=    0.0080 (will be added to EATOM!!)
 
 
 POSCAR: NewRef: 18, @ ['Mn', array([1.37502469, 
  positions in cartesian coordinates
  velocities in cartesian coordinates
  No initial velocities read in
 exchange correlation table for  LEXCH =        8
   RHO(1)=    0.500       N(1)  =     2000
   RHO(2)=  100.500       N(2)  =     4000
 


--------------------------------------------------------------------------------------------------------


 ion  position               nearest neighbor table
   1  0.000  0.000  0.000-  20 2.61  24 2.61  32 2.61  36 2.61  31 2.61  23 2.61  35 2.61  19 2.61
                             3 2.75   7 2.75   5 2.75  13 2.75
   2  0.000  0.000  0.500-  19 2.61  23 2.61  31 2.61  35 2.61  20 2.61  32 2.61  24 2.61  36 2.61
                             4 2.75   8 2.75   6 2.75  14 2.75
   3  0.000  0.333  0.000-  20 2.61  32 2.61  22 2.61  34 2.61  19 2.61  31 2.61  33 2.61  21 2.61
                             9 2.75   1 2.75   5 2.75  15 2.75
   4  0.000  0.333  0.500-  19 2.61  31 2.61  21 2.61  33 2.61  32 2.61  20 2.61  22 2.61  34 2.61
                            10 2.75   2 2.75   6 2.75  16 2.75
   5  0.000  0.667  0.000-  22 2.61  34 2.61  24 2.61  36 2.61  21 2.61  33 2.61  35 2.61  23 2.61
                             3 2.75  11 2.75   1 2.75  17 2.75
   6  0.000  0.667  0.500-  21 2.61  33 2.61  23 2.61  35 2.61  34 2.61  22 2.61  24 2.61  36 2.61
                             4 2.75  12 2.75   2 2.75  18 2.75
   7  0.333  0.000  0.000-  20 2.61  24 2.61  26 2.61  30 2.61  23 2.61  19 2.61  29 2.61  25 2.61
                            13 2.75   1 2.75   9 2.75  11 2.75
   8  0.333  0.000  0.500-  19 2.61  23 2.61  25 2.61  29 2.61  20 2.61  24 2.61  26 2.61  30 2.61
                            14 2.75   2 2.75  10 2.75  12 2.75
   9  0.333  0.333  0.000-  20 2.61  22 2.61  26 2.61  19 2.61  28 2.61  21 2.61  25 2.61  27 2.61
                             3 2.75   7 2.75  11 2.75  15 2.75
  10  0.333  0.333  0.500-  19 2.61  21 2.61  25 2.61  20 2.61  27 2.61  26 2.61  22 2.61  28 2.61
                             4 2.75   8 2.75  12 2.75  16 2.75
  11  0.333  0.667  0.000-  22 2.61  24 2.61  28 2.61  21 2.61  30 2.61  23 2.61  27 2.61  29 2.61
                            17 2.75   5 2.75   9 2.75   7 2.75
  12  0.333  0.667  0.500-  21 2.61  23 2.61  27 2.61  22 2.61  29 2.61  28 2.61  24 2.61  30 2.61
                            18 2.75   6 2.75  10 2.75   8 2.75
  13  0.667  0.000  0.000-  26 2.61  30 2.61  32 2.61  36 2.61  29 2.61  25 2.61  35 2.61  31 2.61
                             7 2.75  15 2.75   1 2.75  17 2.75
  14  0.667  0.000  0.500-  25 2.61  29 2.61  31 2.61  35 2.61  26 2.61  30 2.61  32 2.61  36 2.61
                             8 2.75  16 2.75   2 2.75  18 2.75
  15  0.667  0.333  0.000-  26 2.61  28 2.61  32 2.61  25 2.61  34 2.61  27 2.61  31 2.61  33 2.61
                            17 2.75   9 2.75  13 2.75   3 2.75
  16  0.667  0.333  0.500-  25 2.61  27 2.61  31 2.61  26 2.61  33 2.61  32 2.61  28 2.61  34 2.61
                            18 2.75  10 2.75  14 2.75   4 2.75
  17  0.667  0.667  0.000-  28 2.61  30 2.61  34 2.61  27 2.61  36 2.61  29 2.61  33 2.61  35 2.61
                            11 2.75  15 2.75  13 2.75   5 2.75
  18  0.667  0.667  0.500-  27 2.61  29 2.61  33 2.61  28 2.61  35 2.61  34 2.61  30 2.61  36 2.61
                            12 2.75  16 2.75  14 2.75   6 2.75
  19  0.167  0.167  0.250-  10 2.61   8 2.61   4 2.61   9 2.61   2 2.61   7 2.61   3 2.61   1 2.61
                            21 2.75  25 2.75  23 2.75  31 2.75
  20  0.167  0.167  0.750-   9 2.61   7 2.61   3 2.61  10 2.61   1 2.61   4 2.61   8 2.61   2 2.61
                            22 2.75  26 2.75  24 2.75  32 2.75
  21  0.167  0.500  0.250-  12 2.61  10 2.61   6 2.61  11 2.61   4 2.61   9 2.61   5 2.61   3 2.61
                            19 2.75  23 2.75  27 2.75  33 2.75
  22  0.167  0.500  0.750-  11 2.61   9 2.61   5 2.61  12 2.61   3 2.61   6 2.61  10 2.61   4 2.61
                            20 2.75  24 2.75  28 2.75  34 2.75
  23  0.167  0.833  0.250-   8 2.61  12 2.61   2 2.61   6 2.61  11 2.61   7 2.61   5 2.61   1 2.61
                            21 2.75  29 2.75  19 2.75  35 2.75
  24  0.167  0.833  0.750-   7 2.61  11 2.61   1 2.61   5 2.61   8 2.61  12 2.61   2 2.61   6 2.61
                            22 2.75  30 2.75  20 2.75  36 2.75
  25  0.500  0.167  0.250-  16 2.61  14 2.61  10 2.61  15 2.61   8 2.61  13 2.61   9 2.61   7 2.61
                            19 2.75  27 2.75  31 2.75  29 2.75
  26  0.500  0.167  0.750-  15 2.61  13 2.61   9 2.61  16 2.61   7 2.61  10 2.61  14 2.61   8 2.61
                            20 2.75  28 2.75  32 2.75  30 2.75
  27  0.500  0.500  0.250-  18 2.61  16 2.61  12 2.61  17 2.61  10 2.61  15 2.61  11 2.61   9 2.61
                            21 2.75  25 2.75  29 2.75  33 2.75
  28  0.500  0.500  0.750-  17 2.61  15 2.61  11 2.61  18 2.61   9 2.61  12 2.61  16 2.61  10 2.61
                            22 2.75  26 2.75  30 2.75  34 2.75
  29  0.500  0.833  0.250-  14 2.61  18 2.61   8 2.61  12 2.61  17 2.61  13 2.61  11 2.61   7 2.61
                            23 2.75  27 2.75  35 2.75  25 2.75
  30  0.500  0.833  0.750-  13 2.61  17 2.61   7 2.61  11 2.61  14 2.61  18 2.61   8 2.61  12 2.61
                            24 2.75  28 2.75  36 2.75  26 2.75
  31  0.833  0.167  0.250-   4 2.61  16 2.61  14 2.61   2 2.61  15 2.61   3 2.61  13 2.61   1 2.61
                            25 2.75  33 2.75  19 2.75  35 2.75
  32  0.833  0.167  0.750-   3 2.61  15 2.61  13 2.61   1 2.61   4 2.61  16 2.61   2 2.61  14 2.61
                            26 2.75  34 2.75  20 2.75  36 2.75
  33  0.833  0.500  0.250-   6 2.61  18 2.61  16 2.61   4 2.61  17 2.61   5 2.61  15 2.61   3 2.61
                            27 2.75  31 2.75  35 2.75  21 2.75
  34  0.833  0.500  0.750-   5 2.61  17 2.61  15 2.61   3 2.61   6 2.61  18 2.61   4 2.61  16 2.61
                            28 2.75  32 2.75  36 2.75  22 2.75
  35  0.833  0.833  0.250-   2 2.61   6 2.61  14 2.61  18 2.61  13 2.61   5 2.61  17 2.61   1 2.61
                            29 2.75  33 2.75  31 2.75  23 2.75
  36  0.833  0.833  0.750-   1 2.61   5 2.61  13 2.61  17 2.61   2 2.61  14 2.61   6 2.61  18 2.61
                            30 2.75  34 2.75  32 2.75  24 2.75
 
  LATTYP: Found a simple tetragonal cell.
 ALAT       =     8.2501481662
 C/A-ratio  =     0.8428059861
  
  Lattice vectors:
  
 A1 = (   8.2501481662,   0.0000000000,   0.0000000000)
 A2 = (   0.0000000000,   8.2501481662,   0.0000000000)
 A3 = (   0.0000000000,   0.0000000000,   6.9532742610)


Analysis of symmetry for initial positions (statically):
=====================================================================
 Subroutine PRICEL returns following result:
 
  LATTYP: Found a simple tetragonal cell.
 ALAT       =     2.7500493888
 C/A-ratio  =     1.2642089792
  
  Lattice vectors:
  
 A1 = (   2.7500493888,   0.0000000000,   0.0000000000)
 A2 = (   0.0000000000,   2.7500493888,   0.0000000000)
 A3 = (   0.0000000000,   0.0000000000,   3.4766371305)
 
  18 primitive cells build up your supercell.
 

 Routine SETGRP: Setting up the symmetry group for a 
 simple tetragonal supercell.


 Subroutine GETGRP returns: Found 16 space group operations
 (whereof 16 operations were pure point group operations)
 out of a pool of 16 trial point group operations.


The static configuration has the point symmetry D_4h.


Analysis of symmetry for dynamics (positions and initial velocities):
=====================================================================
 Subroutine PRICEL returns following result:
 
  LATTYP: Found a simple tetragonal cell.
 ALAT       =     2.7500493888
 C/A-ratio  =     1.2642089792
  
  Lattice vectors:
  
 A1 = (   2.7500493888,   0.0000000000,   0.0000000000)
 A2 = (   0.0000000000,   2.7500493888,   0.0000000000)
 A3 = (   0.0000000000,   0.0000000000,   3.4766371305)
 
  18 primitive cells build up your supercell.
 

 Routine SETGRP: Setting up the symmetry group for a 
 simple tetragonal supercell.


 Subroutine GETGRP returns: Found 16 space group operations
 (whereof 16 operations were pure point group operations)
 out of a pool of 16 trial point group operations.


The dynamic configuration has the point symmetry D_4h.


Analysis of structural, dynamic, and magnetic symmetry:
=====================================================================
 Subroutine PRICEL returns:
 Original cell was already a primitive cell.
 

 Routine SETGRP: Setting up the symmetry group for a 
 simple tetragonal supercell.


 Subroutine GETGRP returns: Found  2 space group operations
 (whereof  1 operations were pure point group operations)
 out of a pool of 16 trial point group operations.


The magnetic configuration has the point symmetry C_1 .
 The point group associated with its full space group is C_1h.


 Subroutine INISYM returns: Found  2 space group operations
 (whereof  1 operations are pure point group operations),
 and found     1 'primitive' translations

 
 
 KPOINTS: automatic KPOINTS                       

Automatic generation of k-mesh.
 generate k-points for:    5    5    6
Space group operators:
 irot       det(A)        alpha          n_x          n_y          n_z        tau_x        tau_y        tau_z
    1     1.000000     0.000001     1.000000     0.000000     0.000000     0.000000     0.000000     0.000000
    2    -1.000000   179.999999     0.000000     0.000000     1.000000     0.000000     0.000000     0.500000
 
 Subroutine IBZKPT returns following result:
 ===========================================
 
 Found     52 irreducible k-points:
 
 Following reciprocal coordinates:
            Coordinates               Weight
  0.000000  0.000000  0.000000      1.000000
  0.200000  0.000000  0.000000      2.000000
  0.400000  0.000000  0.000000      2.000000
  0.000000  0.200000  0.000000      2.000000
  0.200000  0.200000  0.000000      2.000000
  0.400000  0.200000  0.000000      2.000000
 -0.400000  0.200000  0.000000      2.000000
 -0.200000  0.200000  0.000000      2.000000
  0.000000  0.400000  0.000000      2.000000
  0.200000  0.400000  0.000000      2.000000
  0.400000  0.400000  0.000000      2.000000
 -0.400000  0.400000  0.000000      2.000000
 -0.200000  0.400000  0.000000      2.000000
  0.000000  0.000000  0.166667      2.000000
  0.200000  0.000000  0.166667      4.000000
  0.400000  0.000000  0.166667      4.000000
  0.000000  0.200000  0.166667      4.000000
  0.200000  0.200000  0.166667      4.000000
  0.400000  0.200000  0.166667      4.000000
 -0.400000  0.200000  0.166667      4.000000
 -0.200000  0.200000  0.166667      4.000000
  0.000000  0.400000  0.166667      4.000000
  0.200000  0.400000  0.166667      4.000000
  0.400000  0.400000  0.166667      4.000000
 -0.400000  0.400000  0.166667      4.000000
 -0.200000  0.400000  0.166667      4.000000
  0.000000  0.000000  0.333333      2.000000
  0.200000  0.000000  0.333333      4.000000
  0.400000  0.000000  0.333333      4.000000
  0.000000  0.200000  0.333333      4.000000
  0.200000  0.200000  0.333333      4.000000
  0.400000  0.200000  0.333333      4.000000
 -0.400000  0.200000  0.333333      4.000000
 -0.200000  0.200000  0.333333      4.000000
  0.000000  0.400000  0.333333      4.000000
  0.200000  0.400000  0.333333      4.000000
  0.400000  0.400000  0.333333      4.000000
 -0.400000  0.400000  0.333333      4.000000
 -0.200000  0.400000  0.333333      4.000000
  0.000000  0.000000  0.500000      1.000000
  0.200000  0.000000  0.500000      2.000000
  0.400000  0.000000  0.500000      2.000000
  0.000000  0.200000  0.500000      2.000000
  0.200000  0.200000  0.500000      2.000000
  0.400000  0.200000  0.500000      2.000000
 -0.400000  0.200000  0.500000      2.000000
 -0.200000  0.200000  0.500000      2.000000
  0.000000  0.400000  0.500000      2.000000
  0.200000  0.400000  0.500000      2.000000
  0.400000  0.400000  0.500000      2.000000
 -0.400000  0.400000  0.500000      2.000000
 -0.200000  0.400000  0.500000      2.000000
 
 Following cartesian coordinates:
            Coordinates               Weight
  0.000000  0.000000  0.000000      1.000000
  0.024242  0.000000  0.000000      2.000000
  0.048484  0.000000  0.000000      2.000000
  0.000000  0.024242  0.000000      2.000000
  0.024242  0.024242  0.000000      2.000000
  0.048484  0.024242  0.000000      2.000000
 -0.048484  0.024242  0.000000      2.000000
 -0.024242  0.024242  0.000000      2.000000
  0.000000  0.048484  0.000000      2.000000
  0.024242  0.048484  0.000000      2.000000
  0.048484  0.048484  0.000000      2.000000
 -0.048484  0.048484  0.000000      2.000000
 -0.024242  0.048484  0.000000      2.000000
  0.000000  0.000000  0.023970      2.000000
  0.024242  0.000000  0.023970      4.000000
  0.048484  0.000000  0.023970      4.000000
  0.000000  0.024242  0.023970      4.000000
  0.024242  0.024242  0.023970      4.000000
  0.048484  0.024242  0.023970      4.000000
 -0.048484  0.024242  0.023970      4.000000
 -0.024242  0.024242  0.023970      4.000000
  0.000000  0.048484  0.023970      4.000000
  0.024242  0.048484  0.023970      4.000000
  0.048484  0.048484  0.023970      4.000000
 -0.048484  0.048484  0.023970      4.000000
 -0.024242  0.048484  0.023970      4.000000
  0.000000  0.000000  0.047939      2.000000
  0.024242  0.000000  0.047939      4.000000
  0.048484  0.000000  0.047939      4.000000
  0.000000  0.024242  0.047939      4.000000
  0.024242  0.024242  0.047939      4.000000
  0.048484  0.024242  0.047939      4.000000
 -0.048484  0.024242  0.047939      4.000000
 -0.024242  0.024242  0.047939      4.000000
  0.000000  0.048484  0.047939      4.000000
  0.024242  0.048484  0.047939      4.000000
  0.048484  0.048484  0.047939      4.000000
 -0.048484  0.048484  0.047939      4.000000
 -0.024242  0.048484  0.047939      4.000000
  0.000000  0.000000  0.071909      1.000000
  0.024242  0.000000  0.071909      2.000000
  0.048484  0.000000  0.071909      2.000000
  0.000000  0.024242  0.071909      2.000000
  0.024242  0.024242  0.071909      2.000000
  0.048484  0.024242  0.071909      2.000000
 -0.048484  0.024242  0.071909      2.000000
 -0.024242  0.024242  0.071909      2.000000
  0.000000  0.048484  0.071909      2.000000
  0.024242  0.048484  0.071909      2.000000
  0.048484  0.048484  0.071909      2.000000
 -0.048484  0.048484  0.071909      2.000000
 -0.024242  0.048484  0.071909      2.000000
 


--------------------------------------------------------------------------------------------------------




 Dimension of arrays:
   k-points           NKPTS =     52   k-points in BZ     NKDIM =     52   number of bands    NBANDS=    116
   number of dos      NEDOS =    301   number of ions     NIONS =     36
   non local maximal  LDIM  =      6   non local SUM 2l+1 LMDIM =     18
   total plane-waves  NPLWV = 139968
   max r-space proj   IRMAX =      1   max aug-charges    IRDMAX=  92271
   dimension x,y,z NGX =    54 NGY =   54 NGZ =   48
   dimension x,y,z NGXF=   108 NGYF=  108 NGZF=   96
   support grid    NGXF=   216 NGYF=  216 NGZF=  192
   ions per type =              18  18
   NGX,Y,Z   is equivalent  to a cutoff of  10.88, 10.88, 11.48 a.u.
   NGXF,Y,Z  is equivalent  to a cutoff of  21.76, 21.76, 22.95 a.u.

 SYSTEM =  AlMn_pv                                 
 POSCAR =  NewRef: 18, @ ['Mn', array([1.37502469, 

 Startparameter for this run:
   NWRITE =      2    write-flag & timer
   PREC   = accura    normal or accurate (medium, high low for compatibility)
   ISTART =      0    job   : 0-new  1-cont  2-samecut
   ICHARG =      2    charge: 1-file 2-atom 10-const
   ISPIN  =      2    spin polarized calculation?
   LNONCOLLINEAR =      F non collinear calculations
   LSORBIT =      F    spin-orbit coupling
   INIWAV =      1    electr: 0-lowe 1-rand  2-diag
   LASPH  =      F    aspherical Exc in radial PAW
   METAGGA=      F    non-selfconsistent MetaGGA calc.

 Electronic Relaxation 1
   ENCUT  =  404.8 eV  29.75 Ry    5.45 a.u.  13.53 13.53 11.41*2*pi/ulx,y,z
   ENINI  =  404.8     initial cutoff
   ENAUG  =  500.7 eV  augmentation charge cutoff
   NELM   =    100;   NELMIN=  4; NELMDL= -8     # of ELM steps 
   EDIFF  = 0.1E-06   stopping-criterion for ELM
   LREAL  =      F    real-space projection
   NLSPLINE    = F    spline interpolate recip. space projectors
   LCOMPAT=      F    compatible to vasp.4.4
   GGA_COMPAT  = T    GGA compatible to vasp.4.4-vasp.4.6
   LMAXPAW     = -100 max onsite density
   LMAXMIX     =    2 max onsite mixed and CHGCAR
   VOSKOWN=      0    Vosko Wilk Nusair interpolation
   ROPT   =    0.00000   0.00000
 Ionic relaxation
   EDIFFG = 0.1E-05   stopping-criterion for IOM
   NSW    =      0    number of steps for IOM
   NBLOCK =      1;   KBLOCK =      1    inner block; outer block 
   IBRION =     -1    ionic relax: 0-MD 1-quasi-New 2-CG
   NFREE  =      0    steps in history (QN), initial steepest desc. (CG)
   ISIF   =      2    stress and relaxation
   IWAVPR =     10    prediction:  0-non 1-charg 2-wave 3-comb
   ISYM   =      2    0-nonsym 1-usesym 2-fastsym
   LCORR  =      T    Harris-Foulkes like correction to forces

   POTIM  = 0.2000    time-step for ionic-motion
   TEIN   =    0.0    initial temperature
   TEBEG  =    0.0;   TEEND  =   0.0 temperature during run
   SMASS  =  -3.00    Nose mass-parameter (am)
   estimated Nose-frequenzy (Omega)   =  0.10E-29 period in steps =****** mass=  -0.156E-26a.u.
   SCALEE = 1.0000    scale energy and forces
   NPACO  =    256;   APACO  = 16.0  distance and # of slots for P.C.
   PSTRESS=    0.0 pullay stress

  Mass of Ions in am
   POMASS =  26.98 54.94
  Ionic Valenz
   ZVAL   =   3.00  7.00
  Atomic Wigner-Seitz radii
   RWIGS  =  -1.00 -1.00
  virtual crystal weights 
   VCA    =   1.00  1.00
   NELECT =     180.0000    total number of electrons
   NUPDOWN=      -1.0000    fix difference up-down

 DOS related values:
   EMIN   =  10.00;   EMAX   =-10.00  energy-range for DOS
   EFERMI =   0.00
   ISMEAR =     1;   SIGMA  =   0.20  broadening in eV -4-tet -1-fermi 0-gaus

 Electronic relaxation 2 (details)
   IALGO  =     58    algorithm
   LDIAG  =      T    sub-space diagonalisation (order eigenvalues)
   LSUBROT=      F    optimize rotation matrix (better conditioning)
   TURBO    =      0    0=normal 1=particle mesh
   IRESTART =      0    0=no restart 2=restart with 2 vectors
   NREBOOT  =      0    no. of reboots
   NMIN     =      0    reboot dimension
   EREF     =   0.00    reference energy to select bands
   IMIX   =      4    mixing-type and parameters
     AMIX     =   0.40;   BMIX     =  1.00
     AMIX_MAG =   1.60;   BMIX_MAG =  1.00
     AMIN     =   0.10
     WC   =   100.;   INIMIX=   1;  MIXPRE=   1;  MAXMIX= -45

 Intra band minimization:
   WEIMIN = 0.0000     energy-eigenvalue tresh-hold
   EBREAK =  0.22E-09  absolut break condition
   DEPER  =   0.30     relativ break condition  

   TIME   =   0.40     timestep for ELM

  volume/ion in A,a.u.               =      13.15        88.72
  Fermi-wavevector in a.u.,A,eV,Ry     =   1.186118  2.241439 19.141722  1.406877
  Thomas-Fermi vector in A             =   2.322298
 
 Write flags
   LWAVE        =      F    write WAVECAR
   LDOWNSAMPLE  =      F    k-point downsampling of WAVECAR
   LCHARG       =      F    write CHGCAR
   LVTOT        =      F    write LOCPOT, total local potential
   LVHAR        =      F    write LOCPOT, Hartree potential only
   LELF         =      F    write electronic localiz. function (ELF)
   LORBIT       =     10    0 simple, 1 ext, 2 COOP (PROOUT), +10 PAW based schemes


 Dipole corrections
   LMONO  =      F    monopole corrections only (constant potential shift)
   LDIPOL =      F    correct potential (dipole corrections)
   IDIPOL =      0    1-x, 2-y, 3-z, 4-all directions 
   EPSILON=  1.0000000 bulk dielectric constant

 Exchange correlation treatment:
   GGA     =    --    GGA type
   LEXCH   =     8    internal setting for exchange type
   VOSKOWN=      0    Vosko Wilk Nusair interpolation
   LHFCALC =     F    Hartree Fock is set to
   LHFONE  =     F    Hartree Fock one center treatment
   AEXX    =    0.0000 exact exchange contribution

 Linear response parameters
   LEPSILON=     F    determine dielectric tensor
   LRPA    =     F    only Hartree local field effects (RPA)
   LNABLA  =     F    use nabla operator in PAW spheres
   LVEL    =     F    velocity operator in full k-point grid
   LINTERFAST=   F  fast interpolation
   KINTER  =     0    interpolate to denser k-point grid
   CSHIFT  =0.1000    complex shift for real part using Kramers Kronig
   OMEGAMAX=  -1.0    maximum frequency
   DEG_THRESHOLD= 0.2000000E-02 threshold for treating states as degnerate
   RTIME   =   -0.100 relaxation time in fs
  (WPLASMAI=    0.000 imaginary part of plasma frequency in eV, 0.658/RTIME)
   DFIELD  = 0.0000000 0.0000000 0.0000000 field for delta impulse in time
 
 Orbital magnetization related:
   ORBITALMAG=     F  switch on orbital magnetization
   LCHIMAG   =     F  perturbation theory with respect to B field
   DQ        =  0.001000  dq finite difference perturbation B field
   LLRAUG    =     F  two centre corrections for induced B field



--------------------------------------------------------------------------------------------------------


 Static calculation
 charge density and potential will be updated during run
 spin polarized calculation
 Conjugate gradient for all bands (Freysoldt, et al. PRB 79, 241103 (2009))
 preconditioned conjugated gradient                                        
 perform sub-space diagonalisation
    before iterative eigenvector-optimisation
 modified Broyden-mixing scheme, WC =      100.0
 initial mixing is a Kerker type mixing with AMIX =  0.4000 and BMIX =      1.0000
 Hartree-type preconditioning will be used
 using additional bands           26
 reciprocal scheme for non local part
 use partial core corrections
 no Harris-corrections to forces 
 use gradient corrections 
 use of overlap-Matrix (Vanderbilt PP)
 Methfessel and Paxton  Order N= 1 SIGMA  =   0.20


--------------------------------------------------------------------------------------------------------


  energy-cutoff  :      404.80
  volume of cell :      473.27
      direct lattice vectors                 reciprocal lattice vectors
     8.250148166  0.000000000  0.000000000     0.121209944  0.000000000  0.000000000
     0.000000000  8.250148166  0.000000000     0.000000000  0.121209944  0.000000000
     0.000000000  0.000000000  6.953274261     0.000000000  0.000000000  0.143817137

  length of vectors
     8.250148166  8.250148166  6.953274261     0.121209944  0.121209944  0.143817137


 
 k-points in units of 2pi/SCALE and weight: automatic KPOINTS                       
   0.00000000  0.00000000  0.00000000       0.007
   0.02424199  0.00000000  0.00000000       0.013
   0.04848398  0.00000000  0.00000000       0.013
   0.00000000  0.02424199  0.00000000       0.013
   0.02424199  0.02424199  0.00000000       0.013
   0.04848398  0.02424199  0.00000000       0.013
  -0.04848398  0.02424199  0.00000000       0.013
  -0.02424199  0.02424199  0.00000000       0.013
   0.00000000  0.04848398  0.00000000       0.013
   0.02424199  0.04848398  0.00000000       0.013
   0.04848398  0.04848398  0.00000000       0.013
  -0.04848398  0.04848398  0.00000000       0.013
  -0.02424199  0.04848398  0.00000000       0.013
   0.00000000  0.00000000  0.02396952       0.013
   0.02424199  0.00000000  0.02396952       0.027
   0.04848398  0.00000000  0.02396952       0.027
   0.00000000  0.02424199  0.02396952       0.027
   0.02424199  0.02424199  0.02396952       0.027
   0.04848398  0.02424199  0.02396952       0.027
  -0.04848398  0.02424199  0.02396952       0.027
  -0.02424199  0.02424199  0.02396952       0.027
   0.00000000  0.04848398  0.02396952       0.027
   0.02424199  0.04848398  0.02396952       0.027
   0.04848398  0.04848398  0.02396952       0.027
  -0.04848398  0.04848398  0.02396952       0.027
  -0.02424199  0.04848398  0.02396952       0.027
   0.00000000  0.00000000  0.04793905       0.013
   0.02424199  0.00000000  0.04793905       0.027
   0.04848398  0.00000000  0.04793905       0.027
   0.00000000  0.02424199  0.04793905       0.027
   0.02424199  0.02424199  0.04793905       0.027
   0.04848398  0.02424199  0.04793905       0.027
  -0.04848398  0.02424199  0.04793905       0.027
  -0.02424199  0.02424199  0.04793905       0.027
   0.00000000  0.04848398  0.04793905       0.027
   0.02424199  0.04848398  0.04793905       0.027
   0.04848398  0.04848398  0.04793905       0.027
  -0.04848398  0.04848398  0.04793905       0.027
  -0.02424199  0.04848398  0.04793905       0.027
   0.00000000  0.00000000  0.07190857       0.007
   0.02424199  0.00000000  0.07190857       0.013
   0.04848398  0.00000000  0.07190857       0.013
   0.00000000  0.02424199  0.07190857       0.013
   0.02424199  0.02424199  0.07190857       0.013
   0.04848398  0.02424199  0.07190857       0.013
  -0.04848398  0.02424199  0.07190857       0.013
  -0.02424199  0.02424199  0.07190857       0.013
   0.00000000  0.04848398  0.07190857       0.013
   0.02424199  0.04848398  0.07190857       0.013
   0.04848398  0.04848398  0.07190857       0.013
  -0.04848398  0.04848398  0.07190857       0.013
  -0.02424199  0.04848398  0.07190857       0.013
 
 k-points in reciprocal lattice and weights: automatic KPOINTS                       
   0.00000000  0.00000000  0.00000000       0.007
   0.20000000  0.00000000  0.00000000       0.013
   0.40000000  0.00000000  0.00000000       0.013
   0.00000000  0.20000000  0.00000000       0.013
   0.20000000  0.20000000  0.00000000       0.013
   0.40000000  0.20000000  0.00000000       0.013
  -0.40000000  0.20000000  0.00000000       0.013
  -0.20000000  0.20000000  0.00000000       0.013
   0.00000000  0.40000000  0.00000000       0.013
   0.20000000  0.40000000  0.00000000       0.013
   0.40000000  0.40000000  0.00000000       0.013
  -0.40000000  0.40000000  0.00000000       0.013
  -0.20000000  0.40000000  0.00000000       0.013
   0.00000000  0.00000000  0.16666667       0.013
   0.20000000  0.00000000  0.16666667       0.027
   0.40000000  0.00000000  0.16666667       0.027
   0.00000000  0.20000000  0.16666667       0.027
   0.20000000  0.20000000  0.16666667       0.027
   0.40000000  0.20000000  0.16666667       0.027
  -0.40000000  0.20000000  0.16666667       0.027
  -0.20000000  0.20000000  0.16666667       0.027
   0.00000000  0.40000000  0.16666667       0.027
   0.20000000  0.40000000  0.16666667       0.027
   0.40000000  0.40000000  0.16666667       0.027
  -0.40000000  0.40000000  0.16666667       0.027
  -0.20000000  0.40000000  0.16666667       0.027
   0.00000000  0.00000000  0.33333333       0.013
   0.20000000  0.00000000  0.33333333       0.027
   0.40000000  0.00000000  0.33333333       0.027
   0.00000000  0.20000000  0.33333333       0.027
   0.20000000  0.20000000  0.33333333       0.027
   0.40000000  0.20000000  0.33333333       0.027
  -0.40000000  0.20000000  0.33333333       0.027
  -0.20000000  0.20000000  0.33333333       0.027
   0.00000000  0.40000000  0.33333333       0.027
   0.20000000  0.40000000  0.33333333       0.027
   0.40000000  0.40000000  0.33333333       0.027
  -0.40000000  0.40000000  0.33333333       0.027
  -0.20000000  0.40000000  0.33333333       0.027
   0.00000000  0.00000000  0.50000000       0.007
   0.20000000  0.00000000  0.50000000       0.013
   0.40000000  0.00000000  0.50000000       0.013
   0.00000000  0.20000000  0.50000000       0.013
   0.20000000  0.20000000  0.50000000       0.013
   0.40000000  0.20000000  0.50000000       0.013
  -0.40000000  0.20000000  0.50000000       0.013
  -0.20000000  0.20000000  0.50000000       0.013
   0.00000000  0.40000000  0.50000000       0.013
   0.20000000  0.40000000  0.50000000       0.013
   0.40000000  0.40000000  0.50000000       0.013
  -0.40000000  0.40000000  0.50000000       0.013
  -0.20000000  0.40000000  0.50000000       0.013
 
 position of ions in fractional coordinates (direct lattice) 
   0.00000000  0.00000000  0.00000000
   0.00000000  0.00000000  0.50000000
   0.00000000  0.33333333  0.00000000
   0.00000000  0.33333333  0.50000000
   0.00000000  0.66666667  0.00000000
   0.00000000  0.66666667  0.50000000
   0.33333333  0.00000000  0.00000000
   0.33333333  0.00000000  0.50000000
   0.33333333  0.33333333  0.00000000
   0.33333333  0.33333333  0.50000000
   0.33333333  0.66666667  0.00000000
   0.33333333  0.66666667  0.50000000
   0.66666667  0.00000000  0.00000000
   0.66666667  0.00000000  0.50000000
   0.66666667  0.33333333  0.00000000
   0.66666667  0.33333333  0.50000000
   0.66666667  0.66666667  0.00000000
   0.66666667  0.66666667  0.50000000
   0.16666667  0.16666667  0.25000000
   0.16666667  0.16666667  0.75000000
   0.16666667  0.50000000  0.25000000
   0.16666667  0.50000000  0.75000000
   0.16666667  0.83333333  0.25000000
   0.16666667  0.83333333  0.75000000
   0.50000000  0.16666667  0.25000000
   0.50000000  0.16666667  0.75000000
   0.50000000  0.50000000  0.25000000
   0.50000000  0.50000000  0.75000000
   0.50000000  0.83333333  0.25000000
   0.50000000  0.83333333  0.75000000
   0.83333333  0.16666667  0.25000000
   0.83333333  0.16666667  0.75000000
   0.83333333  0.50000000  0.25000000
   0.83333333  0.50000000  0.75000000
   0.83333333  0.83333333  0.25000000
   0.83333333  0.83333333  0.75000000
 
 position of ions in cartesian coordinates  (Angst):
   0.00000000  0.00000000  0.00000000
   0.00000000  0.00000000  3.47663713
   0.00000000  2.75004939  0.00000000
   0.00000000  2.75004939  3.47663713
   0.00000000  5.50009878  0.00000000
   0.00000000  5.50009878  3.47663713
   2.75004939  0.00000000  0.00000000
   2.75004939  0.00000000  3.47663713
   2.75004939  2.75004939  0.00000000
   2.75004939  2.75004939  3.47663713
   2.75004939  5.50009878  0.00000000
   2.75004939  5.50009878  3.47663713
   5.50009878  0.00000000  0.00000000
   5.50009878  0.00000000  3.47663713
   5.50009878  2.75004939  0.00000000
   5.50009878  2.75004939  3.47663713
   5.50009878  5.50009878  0.00000000
   5.50009878  5.50009878  3.47663713
   1.37502469  1.37502469  1.73831857
   1.37502469  1.37502469  5.21495570
   1.37502469  4.12507408  1.73831857
   1.37502469  4.12507408  5.21495570
   1.37502469  6.87512347  1.73831857
   1.37502469  6.87512347  5.21495570
   4.12507408  1.37502469  1.73831857
   4.12507408  1.37502469  5.21495570
   4.12507408  4.12507408  1.73831857
   4.12507408  4.12507408  5.21495570
   4.12507408  6.87512347  1.73831857
   4.12507408  6.87512347  5.21495570
   6.87512347  1.37502469  1.73831857
   6.87512347  1.37502469  5.21495570
   6.87512347  4.12507408  1.73831857
   6.87512347  4.12507408  5.21495570
   6.87512347  6.87512347  1.73831857
   6.87512347  6.87512347  5.21495570
 


--------------------------------------------------------------------------------------------------------


 k-point  1 :   0.0000 0.0000 0.0000  plane waves:    8799
 k-point  2 :   0.2000 0.0000 0.0000  plane waves:    8753
 k-point  3 :   0.4000 0.0000 0.0000  plane waves:    8757
 k-point  4 :   0.0000 0.2000 0.0000  plane waves:    8753
 k-point  5 :   0.2000 0.2000 0.0000  plane waves:    8767
 k-point  6 :   0.4000 0.2000 0.0000  plane waves:    8761
 k-point  7 :  -0.4000 0.2000 0.0000  plane waves:    8761
 k-point  8 :  -0.2000 0.2000 0.0000  plane waves:    8767
 k-point  9 :   0.0000 0.4000 0.0000  plane waves:    8757
 k-point 10 :   0.2000 0.4000 0.0000  plane waves:    8761
 k-point 11 :   0.4000 0.4000 0.0000  plane waves:    8731
 k-point 12 :  -0.4000 0.4000 0.0000  plane waves:    8731
 k-point 13 :  -0.2000 0.4000 0.0000  plane waves:    8761
 k-point 14 :   0.0000 0.0000 0.1667  plane waves:    8763
 k-point 15 :   0.2000 0.0000 0.1667  plane waves:    8771
 k-point 16 :   0.4000 0.0000 0.1667  plane waves:    8747
 k-point 17 :   0.0000 0.2000 0.1667  plane waves:    8771
 k-point 18 :   0.2000 0.2000 0.1667  plane waves:    8764
 k-point 19 :   0.4000 0.2000 0.1667  plane waves:    8768
 k-point 20 :  -0.4000 0.2000 0.1667  plane waves:    8768
 k-point 21 :  -0.2000 0.2000 0.1667  plane waves:    8764
 k-point 22 :   0.0000 0.4000 0.1667  plane waves:    8747
 k-point 23 :   0.2000 0.4000 0.1667  plane waves:    8768
 k-point 24 :   0.4000 0.4000 0.1667  plane waves:    8740
 k-point 25 :  -0.4000 0.4000 0.1667  plane waves:    8740
 k-point 26 :  -0.2000 0.4000 0.1667  plane waves:    8768
 k-point 27 :   0.0000 0.0000 0.3333  plane waves:    8743
 k-point 28 :   0.2000 0.0000 0.3333  plane waves:    8736
 k-point 29 :   0.4000 0.0000 0.3333  plane waves:    8753
 k-point 30 :   0.0000 0.2000 0.3333  plane waves:    8736
 k-point 31 :   0.2000 0.2000 0.3333  plane waves:    8753
 k-point 32 :   0.4000 0.2000 0.3333  plane waves:    8743
 k-point 33 :  -0.4000 0.2000 0.3333  plane waves:    8743
 k-point 34 :  -0.2000 0.2000 0.3333  plane waves:    8753
 k-point 35 :   0.0000 0.4000 0.3333  plane waves:    8753
 k-point 36 :   0.2000 0.4000 0.3333  plane waves:    8743
 k-point 37 :   0.4000 0.4000 0.3333  plane waves:    8755
 k-point 38 :  -0.4000 0.4000 0.3333  plane waves:    8755
 k-point 39 :  -0.2000 0.4000 0.3333  plane waves:    8743
 k-point 40 :   0.0000 0.0000 0.5000  plane waves:    8742
 k-point 41 :   0.2000 0.0000 0.5000  plane waves:    8756
 k-point 42 :   0.4000 0.0000 0.5000  plane waves:    8744
 k-point 43 :   0.0000 0.2000 0.5000  plane waves:    8756
 k-point 44 :   0.2000 0.2000 0.5000  plane waves:    8762
 k-point 45 :   0.4000 0.2000 0.5000  plane waves:    8732
 k-point 46 :  -0.4000 0.2000 0.5000  plane waves:    8732
 k-point 47 :  -0.2000 0.2000 0.5000  plane waves:    8762
 k-point 48 :   0.0000 0.4000 0.5000  plane waves:    8744
 k-point 49 :   0.2000 0.4000 0.5000  plane waves:    8732
 k-point 50 :   0.4000 0.4000 0.5000  plane waves:    8736
 k-point 51 :  -0.4000 0.4000 0.5000  plane waves:    8736
 k-point 52 :  -0.2000 0.4000 0.5000  plane waves:    8732

 maximum and minimum number of plane-waves per node :      2210     2164

 maximum number of plane-waves:      8799
 maximum index in each direction: 
   IXMAX=   13   IYMAX=   13   IZMAX=   11
   IXMIN=  -13   IYMIN=  -13   IZMIN=  -11


 parallel 3D FFT for wavefunctions:
    minimum data exchange during FFTs selected (reduces bandwidth)
 parallel 3D FFT for charge:
    minimum data exchange during FFTs selected (reduces bandwidth)


 total amount of memory used by VASP MPI-rank0   775081. kBytes
=======================================================================

   base      :      30000. kBytes
   nonl-proj :      34307. kBytes
   fftplans  :      21726. kBytes
   grid      :      14732. kBytes
   one-center:        279. kBytes
   wavefun   :     674037. kBytes
 
     INWAV:  cpu time    0.0001: real time    0.0001
 Broyden mixing: mesh for mixing (old mesh)
   NGX = 27   NGY = 27   NGZ = 23
  (NGX  =108   NGY  =108   NGZ  = 96)
  gives a total of  16767 points

 initial charge density was supplied:
 charge density of overlapping atoms calculated
 number of electron     180.0000000 magnetization      12.0000000
 keeping initial charge density in first step


--------------------------------------------------------------------------------------------------------


 Maximum index for augmentation-charges        11261 (set IRDMAX)


--------------------------------------------------------------------------------------------------------


 First call to EWALD:  gamma=   0.227
 Maximum number of real-space cells 3x 3x 3
 Maximum number of reciprocal cells 3x 3x 3

    FEWALD:  cpu time    0.0069: real time    0.0069


--------------------------------------- Iteration      1(   1)  ---------------------------------------


    POTLOK:  cpu time    0.2516: real time    0.2519
    SETDIJ:  cpu time    0.3659: real time    0.3666
    TRIAL :  cpu time   19.3643: real time   20.0878
    CORREC:  cpu time    0.0069: real time    0.0078
    --------------------------------------------
      LOOP:  cpu time   20.2144: real time   20.9493

 eigenvalue-minimisations  : 24128
 total energy-change (2. order) : 0.1339431E+04  (-0.5922311E+04)
 number of electron     180.0000000 magnetization      12.0000000
 augmentation part      180.0000000 magnetization      12.0000000

 Free energy of the ion-electron system (eV)
  ---------------------------------------------------
  alpha Z        PSCENC =       532.25742704
  Ewald energy   TEWEN  =     -8601.05107233
  -Hartree energ DENC   =     -1903.73857242
  -exchange      EXHF   =         0.00000000
  -V(xc)+E(xc)   XCENC  =      -664.65900010
  PAW double counting   =      8494.55058411    -7650.81563588
  entropy T*S    EENTRO =        -0.00014438
  eigenvalues    EBANDS =      2667.77179971
  atomic energy  EATOM  =      8465.11600846
  ---------------------------------------------------
  free energy    TOTEN  =      1339.43139421 eV

  energy without entropy =     1339.43153859  energy(sigma->0) =     1339.43144233


--------------------------------------------------------------------------------------------------------




--------------------------------------- Iteration      1(   2)  ---------------------------------------


    TRIAL :  cpu time   19.9596: real time   20.0692
    CORREC:  cpu time    0.0086: real time    0.0088
    --------------------------------------------
      LOOP:  cpu time   19.9710: real time   20.0811

 eigenvalue-minimisations  : 24128
 total energy-change (2. order) :-0.1411435E+04  (-0.1371633E+04)
 number of electron     180.0000000 magnetization      12.0000000
 augmentation part      180.0000000 magnetization      12.0000000

 Free energy of the ion-electron system (eV)
  ---------------------------------------------------
  alpha Z        PSCENC =       532.25742704
  Ewald energy   TEWEN  =     -8601.05107233
  -Hartree energ DENC   =     -1903.73857242
  -exchange      EXHF   =         0.00000000
  -V(xc)+E(xc)   XCENC  =      -664.65900010
  PAW double counting   =      8494.55058411    -7650.81563588
  entropy T*S    EENTRO =        -0.00018500
  eigenvalues    EBANDS =      1256.33641504
  atomic energy  EATOM  =      8465.11600846
  ---------------------------------------------------
  free energy    TOTEN  =       -72.00403109 eV

  energy without entropy =      -72.00384608  energy(sigma->0) =      -72.00396942


--------------------------------------------------------------------------------------------------------




--------------------------------------- Iteration      1(   3)  ---------------------------------------


    TRIAL :  cpu time   26.2858: real time   26.4620
    CORREC:  cpu time    0.0143: real time    0.0175
    --------------------------------------------
      LOOP:  cpu time   26.3014: real time   26.4828

 eigenvalue-minimisations  : 36516
 total energy-change (2. order) :-0.1688561E+03  (-0.1492341E+03)
 number of electron     180.0000000 magnetization      12.0000000
 augmentation part      180.0000000 magnetization      12.0000000

 Free energy of the ion-electron system (eV)
  ---------------------------------------------------
  alpha Z        PSCENC =       532.25742704
  Ewald energy   TEWEN  =     -8601.05107233
  -Hartree energ DENC   =     -1903.73857242
  -exchange      EXHF   =         0.00000000
  -V(xc)+E(xc)   XCENC  =      -664.65900010
  PAW double counting   =      8494.55058411    -7650.81563588
  entropy T*S    EENTRO =         0.00728889
  eigenvalues    EBANDS =      1087.47279362
  atomic energy  EATOM  =      8465.11600846
  ---------------------------------------------------
  free energy    TOTEN  =      -240.86017861 eV

  energy without entropy =     -240.86746750  energy(sigma->0) =     -240.86260824


--------------------------------------------------------------------------------------------------------




--------------------------------------- Iteration      1(   4)  ---------------------------------------


    TRIAL :  cpu time   28.7967: real time   29.0069
    CORREC:  cpu time    0.0101: real time    0.0109
    --------------------------------------------
      LOOP:  cpu time   28.8141: real time   29.0252

 eigenvalue-minimisations  : 39160
 total energy-change (2. order) :-0.2613129E+02  (-0.2299455E+02)
 number of electron     180.0000000 magnetization      12.0000000
 augmentation part      180.0000000 magnetization      12.0000000

 Free energy of the ion-electron system (eV)
  ---------------------------------------------------
  alpha Z        PSCENC =       532.25742704
  Ewald energy   TEWEN  =     -8601.05107233
  -Hartree energ DENC   =     -1903.73857242
  -exchange      EXHF   =         0.00000000
  -V(xc)+E(xc)   XCENC  =      -664.65900010
  PAW double counting   =      8494.55058411    -7650.81563588
  entropy T*S    EENTRO =         0.01621626
  eigenvalues    EBANDS =      1061.33257446
  atomic energy  EATOM  =      8465.11600846
  ---------------------------------------------------
  free energy    TOTEN  =      -266.99147040 eV

  energy without entropy =     -267.00768666  energy(sigma->0) =     -266.99687582


--------------------------------------------------------------------------------------------------------




--------------------------------------- Iteration      1(   5)  ---------------------------------------


    TRIAL :  cpu time   28.4013: real time   28.5419
    CORREC:  cpu time    0.0109: real time    0.0110
    --------------------------------------------
      LOOP:  cpu time   28.4135: real time   28.5566

 eigenvalue-minimisations  : 39784
 total energy-change (2. order) :-0.2556488E+01  (-0.2432486E+01)
 number of electron     180.0000000 magnetization      12.0000000
 augmentation part      180.0000000 magnetization      12.0000000

 Free energy of the ion-electron system (eV)
  ---------------------------------------------------
  alpha Z        PSCENC =       532.25742704
  Ewald energy   TEWEN  =     -8601.05107233
  -Hartree energ DENC   =     -1903.73857242
  -exchange      EXHF   =         0.00000000
  -V(xc)+E(xc)   XCENC  =      -664.65900010
  PAW double counting   =      8494.55058411    -7650.81563588
  entropy T*S    EENTRO =         0.01745669
  eigenvalues    EBANDS =      1058.77484582
  atomic energy  EATOM  =      8465.11600846
  ---------------------------------------------------
  free energy    TOTEN  =      -269.54795861 eV

  energy without entropy =     -269.56541530  energy(sigma->0) =     -269.55377750


--------------------------------------------------------------------------------------------------------




--------------------------------------- Iteration      1(   6)  ---------------------------------------


    TRIAL :  cpu time   29.0901: real time   29.3554
    CORREC:  cpu time    0.0110: real time    0.0111
    --------------------------------------------
      LOOP:  cpu time   29.1019: real time   29.3696

 eigenvalue-minimisations  : 39568
 total energy-change (2. order) :-0.2001340E+00  (-0.1960684E+00)
 number of electron     180.0000000 magnetization      12.0000000
 augmentation part      180.0000000 magnetization      12.0000000

 Free energy of the ion-electron system (eV)
  ---------------------------------------------------
  alpha Z        PSCENC =       532.25742704
  Ewald energy   TEWEN  =     -8601.05107233
  -Hartree energ DENC   =     -1903.73857242
  -exchange      EXHF   =         0.00000000
  -V(xc)+E(xc)   XCENC  =      -664.65900010
  PAW double counting   =      8494.55058411    -7650.81563588
  entropy T*S    EENTRO =         0.01760100
  eigenvalues    EBANDS =      1058.57456755
  atomic energy  EATOM  =      8465.11600846
  ---------------------------------------------------
  free energy    TOTEN  =      -269.74809257 eV

  energy without entropy =     -269.76569357  energy(sigma->0) =     -269.75395957


--------------------------------------------------------------------------------------------------------




--------------------------------------- Iteration      1(   7)  ---------------------------------------


    TRIAL :  cpu time   28.7674: real time   28.9246
    CORREC:  cpu time    0.0110: real time    0.0112
    --------------------------------------------
      LOOP:  cpu time   28.7793: real time   28.9391

 eigenvalue-minimisations  : 40496
 total energy-change (2. order) :-0.2124570E-01  (-0.2106079E-01)
 number of electron     180.0000000 magnetization      12.0000000
 augmentation part      180.0000000 magnetization      12.0000000

 Free energy of the ion-electron system (eV)
  ---------------------------------------------------
  alpha Z        PSCENC =       532.25742704
  Ewald energy   TEWEN  =     -8601.05107233
  -Hartree energ DENC   =     -1903.73857242
  -exchange      EXHF   =         0.00000000
  -V(xc)+E(xc)   XCENC  =      -664.65900010
  PAW double counting   =      8494.55058411    -7650.81563588
  entropy T*S    EENTRO =         0.01770991
  eigenvalues    EBANDS =      1058.55321294
  atomic energy  EATOM  =      8465.11600846
  ---------------------------------------------------
  free energy    TOTEN  =      -269.76933827 eV

  energy without entropy =     -269.78704818  energy(sigma->0) =     -269.77524157


--------------------------------------------------------------------------------------------------------




--------------------------------------- Iteration      1(   8)  ---------------------------------------


    TRIAL :  cpu time   28.8178: real time   29.0034
    CORREC:  cpu time    0.0107: real time    0.0115
    CHARGE:  cpu time    1.1014: real time    1.1087
    --------------------------------------------
      LOOP:  cpu time   29.9310: real time   30.1272

 eigenvalue-minimisations  : 38832
 total energy-change (2. order) :-0.1573050E-02  (-0.1564787E-02)
 number of electron     179.9999997 magnetization       7.6786191
 augmentation part       42.5779929 magnetization       4.5451606

 Free energy of the ion-electron system (eV)
  ---------------------------------------------------
  alpha Z        PSCENC =       532.25742704
  Ewald energy   TEWEN  =     -8601.05107233
  -Hartree energ DENC   =     -1903.73857242
  -exchange      EXHF   =         0.00000000
  -V(xc)+E(xc)   XCENC  =      -664.65900010
  PAW double counting   =      8494.55058411    -7650.81563588
  entropy T*S    EENTRO =         0.01774410
  eigenvalues    EBANDS =      1058.55160570
  atomic energy  EATOM  =      8465.11600846
  ---------------------------------------------------
  free energy    TOTEN  =      -269.77091132 eV

  energy without entropy =     -269.78865542  energy(sigma->0) =     -269.77682602


--------------------------------------------------------------------------------------------------------




--------------------------------------- Iteration      1(   9)  ---------------------------------------


    POTLOK:  cpu time    0.2598: real time    0.3132
    SETDIJ:  cpu time    0.3238: real time    0.3239
    TRIAL :  cpu time    9.5510: real time    9.5601
    CORREC:  cpu time    3.5306: real time    3.5349
    CHARGE:  cpu time    1.0972: real time    1.0974
    --------------------------------------------
      LOOP:  cpu time   14.7643: real time   14.8319

 eigenvalue-minimisations  :     0
 total energy-change (2. order) : 0.2064413E+03  (-0.1448047E+03)
 number of electron     179.9999997 magnetization       8.0527022
 augmentation part       54.4222693 magnetization       5.3635324

 Free energy of the ion-electron system (eV)
  ---------------------------------------------------
  alpha Z        PSCENC =       532.25742704
  Ewald energy   TEWEN  =     -8601.05107233
  -Hartree energ DENC   =      -840.72421880
  -exchange      EXHF   =         0.00000000
  -V(xc)+E(xc)   XCENC  =      -694.68466784
  PAW double counting   =     12756.68229870   -11809.81658124
  entropy T*S    EENTRO =        -0.00194507
  eigenvalues    EBANDS =       128.87348461
  atomic energy  EATOM  =      8465.11600846
  ---------------------------------------------------
  free energy    TOTEN  =       -63.32957731 eV

  energy without entropy =      -63.32763224  energy(sigma->0) =      -63.32892895


--------------------------------------------------------------------------------------------------------




--------------------------------------- Iteration      1(  10)  ---------------------------------------


    POTLOK:  cpu time    0.2476: real time    0.2476
    SETDIJ:  cpu time    0.3232: real time    0.3232
    TRIAL :  cpu time    9.4582: real time    9.5868
    CORREC:  cpu time    3.6020: real time    3.6035
    CHARGE:  cpu time    1.1316: real time    1.1715
    --------------------------------------------
      LOOP:  cpu time   14.7820: real time   14.9529

 eigenvalue-minimisations  :     0
 total energy-change (2. order) :-0.1449043E+03  (-0.9618131E+01)
 number of electron     179.9999996 magnetization       8.0661651
 augmentation part       57.4517110 magnetization       5.5448164

 Free energy of the ion-electron system (eV)
  ---------------------------------------------------
  alpha Z        PSCENC =       532.25742704
  Ewald energy   TEWEN  =     -8601.05107233
  -Hartree energ DENC   =     -1375.00586507
  -exchange      EXHF   =         0.00000000
  -V(xc)+E(xc)   XCENC  =      -676.36636137
  PAW double counting   =     13654.71319507   -12824.29817585
  entropy T*S    EENTRO =        -0.00471742
  eigenvalues    EBANDS =       616.40294262
  atomic energy  EATOM  =      8465.11600846
  ---------------------------------------------------
  free energy    TOTEN  =      -208.23384650 eV

  energy without entropy =     -208.22912908  energy(sigma->0) =     -208.23227403


--------------------------------------------------------------------------------------------------------




--------------------------------------- Iteration      1(  11)  ---------------------------------------


    POTLOK:  cpu time    0.2470: real time    0.2470
    SETDIJ:  cpu time    0.3249: real time    0.3251
    TRIAL :  cpu time    9.5013: real time    9.5842
    CORREC:  cpu time    4.4102: real time    4.4445
    CHARGE:  cpu time    1.1197: real time    1.1272
    --------------------------------------------
      LOOP:  cpu time   15.6053: real time   15.7326

 eigenvalue-minimisations  :     0
 total energy-change (2. order) :-0.9670885E+01  (-0.7880942E+01)
 number of electron     179.9999996 magnetization       8.4715459
 augmentation part       59.1627313 magnetization       5.9214929

 Free energy of the ion-electron system (eV)
  ---------------------------------------------------
  alpha Z        PSCENC =       532.25742704
  Ewald energy   TEWEN  =     -8601.05107233
  -Hartree energ DENC   =     -1548.24650124
  -exchange      EXHF   =         0.00000000
  -V(xc)+E(xc)   XCENC  =      -670.13590947
  PAW double counting   =     14366.32875265   -13566.93429065
  entropy T*S    EENTRO =         0.00033486
  eigenvalues    EBANDS =       804.76557181
  atomic energy  EATOM  =      8465.11600846
  ---------------------------------------------------
  free energy    TOTEN  =      -217.90473117 eV

  energy without entropy =     -217.90506602  energy(sigma->0) =     -217.90484278


--------------------------------------------------------------------------------------------------------




--------------------------------------- Iteration      1(  12)  ---------------------------------------


    POTLOK:  cpu time    0.2468: real time    0.2468
    SETDIJ:  cpu time    0.3407: real time    0.3783
    TRIAL :  cpu time   10.1698: real time   10.2174
    CORREC:  cpu time    3.5712: real time    3.6427
    CHARGE:  cpu time    1.0959: real time    1.0964
    --------------------------------------------
      LOOP:  cpu time   15.4274: real time   15.8311

 eigenvalue-minimisations  :     0
 total energy-change (2. order) :-0.7856947E+01  (-0.7679763E+01)
 number of electron     179.9999996 magnetization       8.5268989
 augmentation part       58.3095751 magnetization       6.0107919

 Free energy of the ion-electron system (eV)
  ---------------------------------------------------
  alpha Z        PSCENC =       532.25742704
  Ewald energy   TEWEN  =     -8601.05107233
  -Hartree energ DENC   =     -1690.29529058
  -exchange      EXHF   =         0.00000000
  -V(xc)+E(xc)   XCENC  =      -665.30036155
  PAW double counting   =     14507.32848668   -13715.27407535
  entropy T*S    EENTRO =         0.00754972
  eigenvalues    EBANDS =       941.45686412
  atomic energy  EATOM  =      8465.11600846
  ---------------------------------------------------
  free energy    TOTEN  =      -225.76167865 eV

  energy without entropy =     -225.76922837  energy(sigma->0) =     -225.76419522


--------------------------------------------------------------------------------------------------------




--------------------------------------- Iteration      1(  13)  ---------------------------------------


    POTLOK:  cpu time    0.2480: real time    0.2480
    SETDIJ:  cpu time    0.3233: real time    0.3233
    TRIAL :  cpu time    9.5565: real time    9.5699
    CORREC:  cpu time    3.4934: real time    3.5042
    CHARGE:  cpu time    1.1211: real time    1.1213
    --------------------------------------------
      LOOP:  cpu time   14.7615: real time   14.7878

 eigenvalue-minimisations  :     0
 total energy-change (2. order) :-0.7612302E+01  (-0.9840374E+00)
 number of electron     179.9999997 magnetization       8.5604972
 augmentation part       57.4843735 magnetization       5.9916240

 Free energy of the ion-electron system (eV)
  ---------------------------------------------------
  alpha Z        PSCENC =       532.25742704
  Ewald energy   TEWEN  =     -8601.05107233
  -Hartree energ DENC   =     -1705.30085229
  -exchange      EXHF   =         0.00000000
  -V(xc)+E(xc)   XCENC  =      -665.16538478
  PAW double counting   =     14185.88787520   -13366.74341212
  entropy T*S    EENTRO =         0.00676499
  eigenvalues    EBANDS =       921.61788046
  atomic energy  EATOM  =      8465.11600846
  ---------------------------------------------------
  free energy    TOTEN  =      -233.37398064 eV

  energy without entropy =     -233.38074563  energy(sigma->0) =     -233.37623564


--------------------------------------------------------------------------------------------------------




--------------------------------------- Iteration      1(  14)  ---------------------------------------


    POTLOK:  cpu time    0.2468: real time    0.2471
    SETDIJ:  cpu time    0.3192: real time    0.3193
    TRIAL :  cpu time    9.4741: real time    9.5805
    CORREC:  cpu time    3.6406: real time    3.6638
    CHARGE:  cpu time    1.0976: real time    1.0978
    --------------------------------------------
      LOOP:  cpu time   14.7799: real time   14.9130

 eigenvalue-minimisations  :     0
 total energy-change (2. order) :-0.9723082E+00  (-0.6327092E+00)
 number of electron     179.9999997 magnetization       8.5173996
 augmentation part       57.2017931 magnetization       5.9340774

 Free energy of the ion-electron system (eV)
  ---------------------------------------------------
  alpha Z        PSCENC =       532.25742704
  Ewald energy   TEWEN  =     -8601.05107233
  -Hartree energ DENC   =     -1663.97226261
  -exchange      EXHF   =         0.00000000
  -V(xc)+E(xc)   XCENC  =      -666.66828721
  PAW double counting   =     13913.80943240   -13082.23207524
  entropy T*S    EENTRO =         0.00898521
  eigenvalues    EBANDS =       868.38777571
  atomic energy  EATOM  =      8465.11600846
  ---------------------------------------------------
  free energy    TOTEN  =      -234.34628880 eV

  energy without entropy =     -234.35527400  energy(sigma->0) =     -234.34928387


--------------------------------------------------------------------------------------------------------




--------------------------------------- Iteration      1(  15)  ---------------------------------------


    POTLOK:  cpu time    0.2462: real time    0.2468
    SETDIJ:  cpu time    0.3121: real time    0.3261
    TRIAL :  cpu time    9.4838: real time    9.5614
    CORREC:  cpu time    4.4554: real time    4.4887
    CHARGE:  cpu time    1.1202: real time    1.1506
    --------------------------------------------
      LOOP:  cpu time   15.6192: real time   15.7776

 eigenvalue-minimisations  :     0
 total energy-change (2. order) :-0.6285653E+00  (-0.6642746E+00)
 number of electron     179.9999996 magnetization       8.5513560
 augmentation part       57.6507836 magnetization       5.9461601

 Free energy of the ion-electron system (eV)
  ---------------------------------------------------
  alpha Z        PSCENC =       532.25742704
  Ewald energy   TEWEN  =     -8601.05107233
  -Hartree energ DENC   =     -1642.06325577
  -exchange      EXHF   =         0.00000000
  -V(xc)+E(xc)   XCENC  =      -667.34522805
  PAW double counting   =     13518.77477918   -12681.49431524
  entropy T*S    EENTRO =         0.00831249
  eigenvalues    EBANDS =       840.82181739
  atomic energy  EATOM  =      8465.11600846
  ---------------------------------------------------
  free energy    TOTEN  =      -234.97485412 eV

  energy without entropy =     -234.98316661  energy(sigma->0) =     -234.97762495


--------------------------------------------------------------------------------------------------------




--------------------------------------- Iteration      1(  16)  ---------------------------------------


    POTLOK:  cpu time    0.2468: real time    0.2468
    SETDIJ:  cpu time    0.3221: real time    0.3221
    TRIAL :  cpu time   10.1688: real time   10.2329
    CORREC:  cpu time    3.5219: real time    3.5927
    CHARGE:  cpu time    1.1122: real time    1.1124
    --------------------------------------------
      LOOP:  cpu time   15.3795: real time   15.5148

 eigenvalue-minimisations  :     0
 total energy-change (2. order) :-0.6656451E+00  (-0.1646904E+00)
 number of electron     179.9999996 magnetization       8.5241721
 augmentation part       57.9734608 magnetization       5.9611875

 Free energy of the ion-electron system (eV)
  ---------------------------------------------------
  alpha Z        PSCENC =       532.25742704
  Ewald energy   TEWEN  =     -8601.05107233
  -Hartree energ DENC   =     -1653.56024245
  -exchange      EXHF   =         0.00000000
  -V(xc)+E(xc)   XCENC  =      -666.74078679
  PAW double counting   =     13114.45086420   -12279.56829861
  entropy T*S    EENTRO =         0.00909703
  eigenvalues    EBANDS =       853.44728880
  atomic energy  EATOM  =      8465.11600846
  ---------------------------------------------------
  free energy    TOTEN  =      -235.64049920 eV

  energy without entropy =     -235.64959623  energy(sigma->0) =     -235.64353154


--------------------------------------------------------------------------------------------------------




--------------------------------------- Iteration      1(  17)  ---------------------------------------


    POTLOK:  cpu time    0.2444: real time    0.2471
    SETDIJ:  cpu time    0.3285: real time    0.3285
    TRIAL :  cpu time    9.5563: real time    9.5653
    CORREC:  cpu time    3.4663: real time    3.4736
    CHARGE:  cpu time    1.1181: real time    1.1183
    --------------------------------------------
      LOOP:  cpu time   14.7322: real time   14.7525

 eigenvalue-minimisations  :     0
 total energy-change (2. order) :-0.1632213E+00  (-0.1519352E+00)
 number of electron     179.9999996 magnetization       8.5625934
 augmentation part       58.2406916 magnetization       6.0258780

 Free energy of the ion-electron system (eV)
  ---------------------------------------------------
  alpha Z        PSCENC =       532.25742704
  Ewald energy   TEWEN  =     -8601.05107233
  -Hartree energ DENC   =     -1667.17713388
  -exchange      EXHF   =         0.00000000
  -V(xc)+E(xc)   XCENC  =      -666.13080439
  PAW double counting   =     13045.30122783   -12213.62091565
  entropy T*S    EENTRO =         0.00873351
  eigenvalues    EBANDS =       869.49244539
  atomic energy  EATOM  =      8465.11600846
  ---------------------------------------------------
  free energy    TOTEN  =      -235.80372050 eV

  energy without entropy =     -235.81245400  energy(sigma->0) =     -235.80663167


--------------------------------------------------------------------------------------------------------




--------------------------------------- Iteration      1(  18)  ---------------------------------------


    POTLOK:  cpu time    0.2511: real time    0.2990
    SETDIJ:  cpu time    0.3148: real time    0.3148
    TRIAL :  cpu time    9.5377: real time    9.6066
    CORREC:  cpu time    3.5237: real time    3.5424
    CHARGE:  cpu time    1.1005: real time    1.1132
    --------------------------------------------
      LOOP:  cpu time   14.7303: real time   14.8797

 eigenvalue-minimisations  :     0
 total energy-change (2. order) :-0.1520758E+00  (-0.1418578E+00)
 number of electron     179.9999996 magnetization       8.5393856
 augmentation part       58.0874999 magnetization       6.0690600

 Free energy of the ion-electron system (eV)
  ---------------------------------------------------
  alpha Z        PSCENC =       532.25742704
  Ewald energy   TEWEN  =     -8601.05107233
  -Hartree energ DENC   =     -1678.51816987
  -exchange      EXHF   =         0.00000000
  -V(xc)+E(xc)   XCENC  =      -665.54009902
  PAW double counting   =     13010.05911920   -12181.37148982
  entropy T*S    EENTRO =         0.00865446
  eigenvalues    EBANDS =       883.08374657
  atomic energy  EATOM  =      8465.11600846
  ---------------------------------------------------
  free energy    TOTEN  =      -235.95579627 eV

  energy without entropy =     -235.96445073  energy(sigma->0) =     -235.95868109


--------------------------------------------------------------------------------------------------------




--------------------------------------- Iteration      1(  19)  ---------------------------------------


    POTLOK:  cpu time    0.2464: real time    0.2467
    SETDIJ:  cpu time    0.3310: real time    0.3353
    TRIAL :  cpu time   10.4323: real time   10.5550
    CORREC:  cpu time    3.6003: real time    3.6227
    CHARGE:  cpu time    1.1000: real time    1.1001
    --------------------------------------------
      LOOP:  cpu time   15.7119: real time   15.8625

 eigenvalue-minimisations  :     0
 total energy-change (2. order) :-0.1416797E+00  (-0.3607246E-01)
 number of electron     179.9999996 magnetization       8.5568549
 augmentation part       57.9429865 magnetization       6.0853340

 Free energy of the ion-electron system (eV)
  ---------------------------------------------------
  alpha Z        PSCENC =       532.25742704
  Ewald energy   TEWEN  =     -8601.05107233
  -Hartree energ DENC   =     -1668.84332510
  -exchange      EXHF   =         0.00000000
  -V(xc)+E(xc)   XCENC  =      -665.65716061
  PAW double counting   =     12979.89179894   -12149.78663732
  entropy T*S    EENTRO =         0.00794965
  eigenvalues    EBANDS =       871.96683049
  atomic energy  EATOM  =      8465.11600846
  ---------------------------------------------------
  free energy    TOTEN  =      -236.09747598 eV

  energy without entropy =     -236.10542562  energy(sigma->0) =     -236.10012586


--------------------------------------------------------------------------------------------------------




--------------------------------------- Iteration      1(  20)  ---------------------------------------


    POTLOK:  cpu time    0.2468: real time    0.2468
    SETDIJ:  cpu time    0.3262: real time    0.3262
    TRIAL :  cpu time   10.2081: real time   10.2718
    CORREC:  cpu time    3.4832: real time    3.5428
    CHARGE:  cpu time    1.1169: real time    1.1195
    --------------------------------------------
      LOOP:  cpu time   15.3830: real time   15.5111

 eigenvalue-minimisations  :     0
 total energy-change (2. order) :-0.3604150E-01  (-0.3935356E-01)
 number of electron     179.9999996 magnetization       8.5465894
 augmentation part       57.8127263 magnetization       6.0944775

 Free energy of the ion-electron system (eV)
  ---------------------------------------------------
  alpha Z        PSCENC =       532.25742704
  Ewald energy   TEWEN  =     -8601.05107233
  -Hartree energ DENC   =     -1661.66957269
  -exchange      EXHF   =         0.00000000
  -V(xc)+E(xc)   XCENC  =      -665.85045177
  PAW double counting   =     12971.06473006   -12139.51700411
  entropy T*S    EENTRO =         0.00785675
  eigenvalues    EBANDS =       863.50846820
  atomic energy  EATOM  =      8465.11600846
  ---------------------------------------------------
  free energy    TOTEN  =      -236.13351748 eV

  energy without entropy =     -236.14137423  energy(sigma->0) =     -236.13613640


--------------------------------------------------------------------------------------------------------




--------------------------------------- Iteration      1(  21)  ---------------------------------------


    POTLOK:  cpu time    0.2474: real time    0.2474
    SETDIJ:  cpu time    0.3693: real time    0.3693
    TRIAL :  cpu time    9.5325: real time    9.5427
    CORREC:  cpu time    3.4941: real time    3.5021
    CHARGE:  cpu time    1.0948: real time    1.1423
    --------------------------------------------
      LOOP:  cpu time   14.7406: real time   14.8075

 eigenvalue-minimisations  :     0
 total energy-change (2. order) :-0.3930205E-01  (-0.4382774E-01)
 number of electron     179.9999996 magnetization       8.5653780
 augmentation part       57.8393152 magnetization       6.1274006

 Free energy of the ion-electron system (eV)
  ---------------------------------------------------
  alpha Z        PSCENC =       532.25742704
  Ewald energy   TEWEN  =     -8601.05107233
  -Hartree energ DENC   =     -1656.47458392
  -exchange      EXHF   =         0.00000000
  -V(xc)+E(xc)   XCENC  =      -665.94165310
  PAW double counting   =     12970.54765971   -12137.88024561
  entropy T*S    EENTRO =         0.00693036
  eigenvalues    EBANDS =       857.24578347
  atomic energy  EATOM  =      8465.11600846
  ---------------------------------------------------
  free energy    TOTEN  =      -236.17281952 eV

  energy without entropy =     -236.17974989  energy(sigma->0) =     -236.17512964


--------------------------------------------------------------------------------------------------------




--------------------------------------- Iteration      1(  22)  ---------------------------------------


    POTLOK:  cpu time    0.2490: real time    0.2494
    SETDIJ:  cpu time    0.3201: real time    0.3208
    TRIAL :  cpu time    9.5017: real time    9.6274
    CORREC:  cpu time    3.4874: real time    3.5348
    CHARGE:  cpu time    1.0962: real time    1.0990
    --------------------------------------------
      LOOP:  cpu time   14.6588: real time   14.8372

 eigenvalue-minimisations  :     0
 total energy-change (2. order) :-0.4382786E-01  (-0.1421042E-01)
 number of electron     179.9999996 magnetization       8.5652969
 augmentation part       57.9231834 magnetization       6.1381228

 Free energy of the ion-electron system (eV)
  ---------------------------------------------------
  alpha Z        PSCENC =       532.25742704
  Ewald energy   TEWEN  =     -8601.05107233
  -Hartree energ DENC   =     -1660.33359742
  -exchange      EXHF   =         0.00000000
  -V(xc)+E(xc)   XCENC  =      -665.69653561
  PAW double counting   =     12990.12537074   -12158.17612606
  entropy T*S    EENTRO =         0.00693824
  eigenvalues    EBANDS =       861.53494745
  atomic energy  EATOM  =      8465.11600846
  ---------------------------------------------------
  free energy    TOTEN  =      -236.21664739 eV

  energy without entropy =     -236.22358563  energy(sigma->0) =     -236.21896013


--------------------------------------------------------------------------------------------------------




--------------------------------------- Iteration      1(  23)  ---------------------------------------


    POTLOK:  cpu time    0.2469: real time    0.2469
    SETDIJ:  cpu time    0.3403: real time    0.3402
    TRIAL :  cpu time   10.5228: real time   10.6485
    CORREC:  cpu time    3.5216: real time    3.5631
    CHARGE:  cpu time    1.1040: real time    1.1048
    --------------------------------------------
[...]
  8.438  14.380  -0.000   0.000   0.000  -0.000   0.000  -0.000
 14.380  24.506  -0.000   0.000   0.000  -0.000   0.000  -0.000
 -0.000  -0.000   1.996  -0.000   0.000   5.749  -0.000   0.000
  0.000   0.000  -0.000   1.996   0.000  -0.000   5.748   0.000
  0.000   0.000   0.000   0.000   1.996   0.000   0.000   5.749
 -0.000  -0.000   5.749  -0.000   0.000  16.475  -0.000   0.000
  0.000   0.000  -0.000   5.748   0.000  -0.000  16.472   0.000
 -0.000  -0.000   0.000   0.000   5.749   0.000   0.000  16.475
 total augmentation occupancy for first ion, spin component:           1
  4.378  -1.253   0.000   0.001   0.001  -0.000   0.000   0.000
 -1.253   0.378  -0.001  -0.001  -0.000   0.000   0.000   0.000
  0.000  -0.001   1.430   0.003   0.000  -0.102  -0.000  -0.000
  0.001  -0.001   0.003   1.498   0.002   0.000  -0.101  -0.000
  0.001  -0.000   0.000   0.002   1.420   0.000  -0.000  -0.101
 -0.000   0.000  -0.102   0.000   0.000   0.008  -0.000  -0.000
  0.000   0.000  -0.000  -0.101  -0.000  -0.000   0.007   0.000
  0.000   0.000  -0.000  -0.000  -0.101  -0.000   0.000   0.008
 total augmentation occupancy for first ion, spin component:           2
 -0.076   0.022  -0.018   0.027   0.018   0.001  -0.001  -0.001
  0.022  -0.007  -0.002   0.002   0.002   0.000  -0.000  -0.000
 -0.018  -0.002  -0.033   0.023  -0.046   0.002  -0.000   0.001
  0.027   0.002   0.023  -0.044  -0.028  -0.000   0.002   0.001
  0.018   0.002  -0.046  -0.028  -0.020   0.001   0.001   0.001
  0.001   0.000   0.002  -0.000   0.001  -0.000  -0.000   0.000
 -0.001  -0.000  -0.000   0.002   0.001  -0.000  -0.000   0.000
 -0.001  -0.000   0.001   0.001   0.001   0.000   0.000  -0.000


------------------------ aborting loop because EDIFF is reached ----------------------------------------


 


 total charge     
 
# of ion       s       p       d       tot
------------------------------------------
    1        0.404   0.430   0.000   0.834
    2        0.404   0.430   0.000   0.834
    3        0.406   0.422   0.000   0.829
    4        0.406   0.423   0.000   0.828
    5        0.405   0.425   0.000   0.830
    6        0.405   0.425   0.000   0.831
    7        0.405   0.427   0.000   0.832
    8        0.405   0.427   0.000   0.832
    9        0.406   0.426   0.000   0.831
   10        0.406   0.425   0.000   0.831
   11        0.405   0.430   0.000   0.835
   12        0.405   0.430   0.000   0.835
   13        0.405   0.429   0.000   0.834
   14        0.405   0.429   0.000   0.834
   15        0.406   0.430   0.000   0.836
   16        0.405   0.430   0.000   0.835
   17        0.405   0.426   0.000   0.832
   18        0.406   0.427   0.000   0.832
   19        0.336   0.358   5.123   5.817
   20        0.338   0.351   5.131   5.819
   21        0.335   0.356   5.130   5.820
   22        0.336   0.352   5.138   5.825
   23        0.340   0.361   5.104   5.805
   24        0.340   0.352   5.120   5.813
   25        0.334   0.359   5.123   5.816
   26        0.330   0.354   5.140   5.825
   27        0.339   0.365   5.101   5.804
   28        0.336   0.352   5.133   5.820
   29        0.334   0.356   5.134   5.824
   30        0.331   0.357   5.131   5.818
   31        0.333   0.353   5.143   5.829
   32        0.333   0.358   5.120   5.812
   33        0.335   0.358   5.124   5.817
   34        0.331   0.349   5.149   5.830
   35        0.337   0.357   5.122   5.816
   36        0.334   0.352   5.139   5.824
--------------------------------------------------
tot         13.326  14.090  92.305 119.721
 


 magnetization (x)
 
# of ion       s       p       d       tot
------------------------------------------
    1       -0.007  -0.010   0.000  -0.017
    2       -0.007  -0.011   0.000  -0.018
    3       -0.013  -0.025   0.000  -0.038
    4       -0.013  -0.025   0.000  -0.038
    5       -0.009  -0.019   0.000  -0.028
    6       -0.009  -0.019   0.000  -0.028
    7       -0.000   0.001   0.000   0.001
    8       -0.000   0.001   0.000   0.001
    9       -0.004  -0.008   0.000  -0.012
   10       -0.004  -0.009   0.000  -0.013
   11        0.002   0.007   0.000   0.009
   12        0.002   0.007   0.000   0.009
   13       -0.004  -0.007   0.000  -0.011
   14       -0.004  -0.007   0.000  -0.012
   15       -0.003  -0.002   0.000  -0.006
   16       -0.003  -0.002   0.000  -0.005
   17       -0.004  -0.010   0.000  -0.014
   18       -0.004  -0.009   0.000  -0.013
   19        0.030   0.023   2.373   2.426
   20        0.029   0.013   2.459   2.500
   21        0.029   0.023   2.334   2.385
   22        0.028   0.011   2.306   2.344
   23       -0.044  -0.029  -2.610  -2.683
   24       -0.041  -0.016  -2.595  -2.652
   25        0.024   0.028   2.309   2.361
   26       -0.014  -0.025  -2.075  -2.115
   27       -0.041  -0.038  -2.507  -2.586
   28       -0.028  -0.005  -2.447  -2.479
   29        0.026   0.019   2.217   2.263
   30       -0.006  -0.013  -2.239  -2.257
   31       -0.035  -0.030  -2.199  -2.264
   32        0.006   0.022   2.279   2.307
   33        0.025   0.031   2.314   2.370
   34        0.015   0.001   2.201   2.217
   35        0.031   0.023   2.399   2.453
   36        0.026   0.012   2.268   2.305
--------------------------------------------------
tot         -0.026  -0.097   8.787   8.663
 
    FORLOC:  cpu time    0.0290: real time    0.0290
    FORNL :  cpu time   13.4460: real time   13.5249
    STRESS:  cpu time   19.3938: real time   19.5857
    FORCOR:  cpu time    0.2712: real time    0.2712
    OFIELD:  cpu time    0.0012: real time    0.0012

  FORCE on cell =-STRESS in cart. coord.  units (eV):
  Direction    XX          YY          ZZ          XY          YZ          ZX
  --------------------------------------------------------------------------------------
  Alpha Z   532.25743   532.25743   532.25743
  Ewald   -2702.40749 -2702.40749 -3196.26924    -0.00000    -0.00000    -0.00000
  Hartree   719.14126   720.12867   226.32540     0.58159    -0.00000    -0.00000
  E(xc)    -760.42763  -760.71871  -760.83381    -0.24350    -0.00000    -0.00000
  Local     252.02612   249.24993  1259.99767    -1.83704     0.00000     0.00000
  n-local  -108.16413  -109.17113  -117.89245    -0.23289    -0.14340     0.02133
  augment   520.75918   521.79057   515.62622     0.72880     0.00001     0.00001
  Kinetic  1553.67954  1554.29072  1543.44036     2.43005     0.66473    -0.16210
  Fock        0.00000     0.00000     0.00000     0.00000     0.00000     0.00000
  -------------------------------------------------------------------------------------
  Total       6.86428     5.41998     2.65158     1.42700     0.00000     0.00000
  in kB      23.23768    18.34829     8.97641     4.83084     0.00000     0.00000
  external pressure =       16.85 kB  Pullay stress =        0.00 kB


 VOLUME and BASIS-vectors are now :
 -----------------------------------------------------------------------------
  energy-cutoff  :      404.80
  volume of cell :      473.27
      direct lattice vectors                 reciprocal lattice vectors
     8.250148166  0.000000000  0.000000000     0.121209944  0.000000000  0.000000000
     0.000000000  8.250148166  0.000000000     0.000000000  0.121209944  0.000000000
     0.000000000  0.000000000  6.953274261     0.000000000  0.000000000  0.143817137

  length of vectors
     8.250148166  8.250148166  6.953274261     0.121209944  0.121209944  0.143817137


 FORCES acting on ions:
    Electron-Ion                     Ewald-Force                    Non-Local-Force
 -----------------------------------------------------------------------------------------------
   -.308E-01 0.533E-01 -.742E-01   -.239E-08 -.239E-08 0.411E-08   -.332E-01 -.289E-02 -.822E-02
   -.308E-01 0.533E-01 0.742E-01   -.239E-08 -.239E-08 0.411E-08   -.332E-01 -.289E-02 0.822E-02
   -.419E-01 0.331E-01 0.236E-01   -.239E-08 -.802E-09 0.411E-08   0.709E-01 0.307E-01 -.815E-01
   -.419E-01 0.331E-01 -.236E-01   -.239E-08 -.802E-09 0.411E-08   0.709E-01 0.307E-01 0.815E-01
   -.462E-01 -.480E-01 0.374E-01   -.239E-08 0.631E-08 0.411E-08   -.561E-01 -.478E-01 -.196E-01
   -.462E-01 -.480E-01 -.374E-01   -.239E-08 0.631E-08 0.411E-08   -.561E-01 -.478E-01 0.196E-01
   0.169E+00 0.990E-01 0.213E-01   -.802E-09 -.239E-08 0.411E-08   -.576E-01 -.685E-01 -.863E-02
   0.169E+00 0.990E-01 -.213E-01   -.802E-09 -.239E-08 0.411E-08   -.576E-01 -.685E-01 0.863E-02
   -.602E-01 -.199E-01 -.975E-02   -.802E-09 -.802E-09 0.411E-08   -.140E-01 0.138E-01 0.185E-01
   -.602E-01 -.199E-01 0.975E-02   -.802E-09 -.802E-09 0.411E-08   -.140E-01 0.138E-01 -.185E-01
   -.485E-01 -.912E-01 -.997E-01   -.802E-09 0.631E-08 0.411E-08   0.363E-01 0.623E-01 0.275E-01
   -.485E-01 -.912E-01 0.997E-01   -.802E-09 0.631E-08 0.411E-08   0.363E-01 0.623E-01 -.275E-01
   -.136E+00 -.191E+00 -.246E-01   0.631E-08 -.239E-08 0.411E-08   0.681E-01 0.692E-01 0.438E-01
   -.136E+00 -.191E+00 0.246E-01   0.631E-08 -.239E-08 0.411E-08   0.681E-01 0.692E-01 -.438E-01
   0.120E+00 0.172E+00 -.121E+00   0.631E-08 -.802E-09 0.411E-08   -.287E-01 -.467E-01 0.410E-01
   0.120E+00 0.172E+00 0.121E+00   0.631E-08 -.802E-09 0.411E-08   -.287E-01 -.467E-01 -.410E-01
   0.102E+00 0.542E-04 -.899E-02   0.631E-08 0.631E-08 0.411E-08   0.142E-02 -.368E-02 0.183E-01
   0.102E+00 0.542E-04 0.899E-02   0.631E-08 0.631E-08 0.411E-08   0.142E-02 -.368E-02 -.183E-01
   0.509E+00 0.445E+00 -.459E-08   -.169E-07 -.169E-07 -.411E-08   -.237E+00 -.318E+00 0.000E+00
   -.453E+00 0.380E+00 0.376E-09   -.169E-07 -.169E-07 -.411E-08   0.693E-01 -.162E+00 0.000E+00
   -.537E+00 -.430E+00 -.202E-08   -.169E-07 0.802E-09 -.411E-08   0.350E+00 0.253E+00 0.000E+00
   -.344E+00 -.394E+00 -.180E-08   -.169E-07 0.802E-09 -.411E-08   0.125E+00 0.197E+00 0.000E+00
   0.101E+00 -.188E-01 -.851E-09   -.169E-07 0.130E-07 -.411E-08   -.141E+00 0.320E-01 0.000E+00
   0.594E+00 0.873E-02 -.565E-08   -.169E-07 0.130E-07 -.411E-08   -.361E+00 -.397E-01 0.000E+00
   -.529E+00 -.493E+00 -.506E-08   0.802E-09 -.169E-07 -.411E-08   0.277E+00 0.368E+00 0.000E+00
   -.310E+00 -.325E+00 0.304E-09   0.802E-09 -.169E-07 -.411E-08   0.280E+00 0.279E+00 0.000E+00
   -.972E-01 0.145E+00 -.219E-08   0.802E-09 0.802E-09 -.411E-08   0.140E+00 -.161E+00 0.000E+00
   0.186E-01 0.184E+00 -.170E-08   0.802E-09 0.802E-09 -.411E-08   -.398E-01 -.154E+00 0.000E+00
   0.268E+00 0.358E+00 -.140E-08   0.802E-09 0.130E-07 -.411E-08   -.147E+00 -.245E+00 0.000E+00
   -.209E+00 0.158E+00 -.589E-08   0.802E-09 0.130E-07 -.411E-08   0.102E+00 -.114E+00 0.000E+00
   0.788E-01 -.134E+00 -.335E-08   0.130E-07 -.169E-07 -.411E-08   -.104E-01 0.175E+00 0.000E+00
   0.458E+00 -.814E-01 -.449E-09   0.130E-07 -.169E-07 -.411E-08   -.269E+00 0.790E-01 0.000E+00
   0.532E+00 0.612E+00 -.809E-09   0.130E-07 0.802E-09 -.411E-08   -.415E+00 -.381E+00 0.000E+00
   0.203E+00 0.162E+00 -.243E-08   0.130E-07 0.802E-09 -.411E-08   -.118E+00 -.212E+00 0.000E+00
   -.427E+00 -.537E+00 0.233E-09   0.130E-07 0.130E-07 -.411E-08   0.311E+00 0.304E+00 0.000E+00
   0.624E-01 -.919E-01 -.630E-08   0.130E-07 0.130E-07 -.411E-08   0.133E+00 0.127E+00 0.000E+00
 -----------------------------------------------------------------------------------------------
   -.248E-01 -.402E-01 -.799E-07   -.197E-14 0.275E-13 0.265E-14   0.248E-01 0.402E-01 0.000E+00
 
 
 POSITION                                       TOTAL-FORCE (eV/Angst)
 -----------------------------------------------------------------------------------
      0.00000      0.00000      0.00000        -0.061676      0.051690     -0.081146
      0.00000      0.00000      3.47664        -0.061676      0.051690      0.081146
      0.00000      2.75005      0.00000         0.022110      0.060739     -0.050097
      0.00000      2.75005      3.47664         0.022110      0.060739      0.050097
      0.00000      5.50010      0.00000        -0.097541     -0.091969      0.020337
      0.00000      5.50010      3.47664        -0.097541     -0.091969     -0.020337
      2.75005      0.00000      0.00000         0.117056      0.036953      0.013676
      2.75005      0.00000      3.47664         0.117056      0.036953     -0.013676
      2.75005      2.75005      0.00000        -0.072339     -0.007781      0.007712
      2.75005      2.75005      3.47664        -0.072339     -0.007781     -0.007712
      2.75005      5.50010      0.00000        -0.015205     -0.034387     -0.073473
      2.75005      5.50010      3.47664        -0.015205     -0.034387      0.073473
      5.50010      0.00000      0.00000        -0.074958     -0.127571      0.015392
      5.50010      0.00000      3.47664        -0.074958     -0.127571     -0.015392
      5.50010      2.75005      0.00000         0.095069      0.128908     -0.082505
      5.50010      2.75005      3.47664         0.095069      0.128908      0.082505
      5.50010      5.50010      0.00000         0.102983     -0.003389      0.008631
      5.50010      5.50010      3.47664         0.102983     -0.003389     -0.008631
      1.37502      1.37502      1.73832         0.278991      0.132896      0.000000
      1.37502      1.37502      5.21496        -0.396947      0.222837      0.000000
      1.37502      4.12507      1.73832        -0.196388     -0.181352      0.000000
      1.37502      4.12507      5.21496        -0.224619     -0.202807      0.000000
      1.37502      6.87512      1.73832        -0.038968      0.012453      0.000000
      1.37502      6.87512      5.21496         0.248209     -0.030445      0.000000
      4.12507      1.37502      1.73832        -0.255567     -0.118101      0.000000
      4.12507      1.37502      5.21496        -0.037697     -0.051024      0.000000
      4.12507      4.12507      1.73832         0.039471     -0.014628      0.000000
      4.12507      4.12507      5.21496        -0.021926      0.032284      0.000000
      4.12507      6.87512      1.73832         0.115490      0.107928      0.000000
      4.12507      6.87512      5.21496        -0.104679      0.046758      0.000000
      6.87512      1.37502      1.73832         0.069356      0.038678      0.000000
      6.87512      1.37502      5.21496         0.194951     -0.002565      0.000000
      6.87512      4.12507      1.73832         0.125163      0.240897      0.000000
      6.87512      4.12507      5.21496         0.086875     -0.047051      0.000000
      6.87512      6.87512      1.73832        -0.114585     -0.245724      0.000000
      6.87512      6.87512      5.21496         0.201871      0.032581      0.000000
 -----------------------------------------------------------------------------------
    total drift:                                0.000003     -0.000013     -0.000000


--------------------------------------------------------------------------------------------------------



  FREE ENERGIE OF THE ION-ELECTRON SYSTEM (eV)
  ---------------------------------------------------
  free  energy   TOTEN  =      -236.28263258 eV

  energy  without entropy=     -236.29125979  energy(sigma->0) =     -236.28550831
 


--------------------------------------------------------------------------------------------------------


    POTLOK:  cpu time    1.5316: real time    1.5559


--------------------------------------------------------------------------------------------------------


     LOOP+:  cpu time 1156.7471: real time 1166.2784
    4ORBIT:  cpu time    0.0000: real time    0.0000
 


 total charge     
 
# of ion       s       p       d       tot
------------------------------------------
    1        0.404   0.430   0.000   0.834
    2        0.404   0.430   0.000   0.834
    3        0.406   0.422   0.000   0.829
    4        0.406   0.423   0.000   0.828
    5        0.405   0.425   0.000   0.830
    6        0.405   0.425   0.000   0.831
    7        0.405   0.427   0.000   0.832
    8        0.405   0.427   0.000   0.832
    9        0.406   0.426   0.000   0.831
   10        0.406   0.425   0.000   0.831
   11        0.405   0.430   0.000   0.835
   12        0.405   0.430   0.000   0.835
   13        0.405   0.429   0.000   0.834
   14        0.405   0.429   0.000   0.834
   15        0.406   0.430   0.000   0.836
   16        0.405   0.430   0.000   0.835
   17        0.405   0.426   0.000   0.832
   18        0.406   0.427   0.000   0.832
   19        0.336   0.358   5.123   5.817
   20        0.338   0.351   5.131   5.819
   21        0.335   0.356   5.130   5.820
   22        0.336   0.352   5.138   5.825
   23        0.340   0.361   5.104   5.805
   24        0.340   0.352   5.120   5.813
   25        0.334   0.359   5.123   5.816
   26        0.330   0.354   5.140   5.825
   27        0.339   0.365   5.101   5.804
   28        0.336   0.352   5.133   5.820
   29        0.334   0.356   5.134   5.824
   30        0.331   0.357   5.131   5.818
   31        0.333   0.353   5.143   5.829
   32        0.333   0.358   5.120   5.812
   33        0.335   0.358   5.124   5.817
   34        0.331   0.349   5.149   5.830
   35        0.337   0.357   5.122   5.816
   36        0.334   0.352   5.139   5.824
--------------------------------------------------
tot         13.326  14.090  92.305 119.721
 


 magnetization (x)
 
# of ion       s       p       d       tot
------------------------------------------
    1       -0.007  -0.010   0.000  -0.017
    2       -0.007  -0.011   0.000  -0.018
    3       -0.013  -0.025   0.000  -0.038
    4       -0.013  -0.025   0.000  -0.038
    5       -0.009  -0.019   0.000  -0.028
    6       -0.009  -0.019   0.000  -0.028
    7       -0.000   0.001   0.000   0.001
    8       -0.000   0.001   0.000   0.001
    9       -0.004  -0.008   0.000  -0.012
   10       -0.004  -0.009   0.000  -0.013
   11        0.002   0.007   0.000   0.009
   12        0.002   0.007   0.000   0.009
   13       -0.004  -0.007   0.000  -0.011
   14       -0.004  -0.007   0.000  -0.012
   15       -0.003  -0.002   0.000  -0.006
   16       -0.003  -0.002   0.000  -0.005
   17       -0.004  -0.010   0.000  -0.014
   18       -0.004  -0.009   0.000  -0.013
   19        0.030   0.023   2.373   2.426
   20        0.029   0.013   2.459   2.500
   21        0.029   0.023   2.334   2.385
   22        0.028   0.011   2.306   2.344
   23       -0.044  -0.029  -2.610  -2.683
   24       -0.041  -0.016  -2.595  -2.652
   25        0.024   0.028   2.309   2.361
   26       -0.014  -0.025  -2.075  -2.115
   27       -0.041  -0.038  -2.507  -2.586
   28       -0.028  -0.005  -2.447  -2.479
   29        0.026   0.019   2.217   2.263
   30       -0.006  -0.013  -2.239  -2.257
   31       -0.035  -0.030  -2.199  -2.264
   32        0.006   0.022   2.279   2.307
   33        0.025   0.031   2.314   2.370
   34        0.015   0.001   2.201   2.217
   35        0.031   0.023   2.399   2.453
   36        0.026   0.012   2.268   2.305
--------------------------------------------------
tot         -0.026  -0.097   8.787   8.663
 

 total amount of memory used by VASP MPI-rank0   775081. kBytes
=======================================================================

   base      :      30000. kBytes
   nonl-proj :      34307. kBytes
   fftplans  :      21726. kBytes
   grid      :      14732. kBytes
   one-center:        279. kBytes
   wavefun   :     674037. kBytes
 
  
  
 General timing and accounting informations for this job:
 ========================================================
  
                  Total CPU time used (sec):     1183.213
                            User time (sec):     1161.405
                          System time (sec):       21.807
                         Elapsed time (sec):     1195.159
  
                   Maximum memory used (kb):      917328.
                   Average memory used (kb):           0.
  
                          Minor page faults:       525820
                          Major page faults:           15
                 Voluntary context switches:         4303
