 vasp.5.4.4.18Apr17-6-g9f103f2a35 (build Dec 20 2018 12:05:58) complex          
  
 executed on             LinuxIFC date 2019.06.20  22:08:21
 running on   32 total cores
 distrk:  each k-point on    8 cores,    4 groups
 distr:  one band on NCORES_PER_BAND=   4 cores,    2 groups


--------------------------------------------------------------------------------------------------------


 INCAR:
 POTCAR:    PAW_PBE Al 04Jan2001                  
 POTCAR:    PAW_PBE Mn 06Sep2000                  

 ----------------------------------------------------------------------------- 
|                                                                             |
|           W    W    AA    RRRRR   N    N  II  N    N   GGGG   !!!           |
|           W    W   A  A   R    R  NN   N  II  NN   N  G    G  !!!           |
|           W    W  A    A  R    R  N N  N  II  N N  N  G       !!!           |
|           W WW W  AAAAAA  RRRRR   N  N N  II  N  N N  G  GGG   !            |
|           WW  WW  A    A  R   R   N   NN  II  N   NN  G    G                |
|           W    W  A    A  R    R  N    N  II  N    N   GGGG   !!!           |
|                                                                             |
|      You have enabled k-point parallelism (KPAR>1).                         |
|      This developmental code was originally  written by Paul Kent at ORNL,  |
|      and carefully double checked in Vienna.                                |
|      GW as well as linear response parallelism added by Martijn Marsman     |
|      and Georg Kresse.                                                      |
|      Carefully verify results versus KPAR=1.                                |
|      Report problems to Paul Kent and Vienna.                               |
|                                                                             |
 ----------------------------------------------------------------------------- 

 POTCAR:    PAW_PBE Al 04Jan2001                  
   VRHFIN =Al: s2p1                                                             
   LEXCH  = PE                                                                  
   EATOM  =    53.5387 eV,    3.9350 Ry                                         
                                                                                
   TITEL  = PAW_PBE Al 04Jan2001                                                
   LULTRA =        F    use ultrasoft PP ?                                      
   IUNSCR =        1    unscreen: 0-lin 1-nonlin 2-no                           
   RPACOR =    1.500    partial core radius                                     
   POMASS =   26.981; ZVAL   =    3.000    mass and valenz                      
   RCORE  =    1.900    outmost cutoff radius                                   
   RWIGS  =    2.650; RWIGS  =    1.402    wigner-seitz radius (au A)           
   ENMAX  =  240.300; ENMIN  =  180.225 eV                                      
   ICORE  =        2    local potential                                         
   LCOR   =        T    correct aug charges                                     
   LPAW   =        T    paw PP                                                  
   EAUG   =  291.052                                                            
   DEXC   =    0.000                                                            
   RMAX   =    1.939    core radius for proj-oper                               
   RAUG   =    1.300    factor for augmentation sphere                          
   RDEP   =    1.966    radius for radial grids                                 
   RDEPT  =    1.856    core radius for aug-charge                              
                                                                                
   Atomic configuration                                                         
    6 entries                                                                   
     n  l   j            E        occ.                                          
     1  0  0.50     -1511.1048   2.0000                                         
     2  0  0.50      -108.1629   2.0000                                         
     2  1  1.50       -69.6402   6.0000                                         
     3  0  0.50        -7.7528   2.0000                                         
     3  1  1.50        -2.7121   1.0000                                         
     3  2  2.50        -2.7212   0.0000                                         
   Description                                                                  
     l       E           TYP  RCUT    TYP  RCUT                                 
     0     -7.7528455     23  1.900                                             
     0     -3.3096929     23  1.900                                             
     1     -2.7120682     23  1.900                                             
     1     13.6058260     23  1.900                                             
     2     -2.7211652      7  1.900                                             
  local pseudopotential read in
  partial core-charges read in
  partial kinetic energy density read in
  atomic valenz-charges read in
  non local Contribution for L=           0  read in
    real space projection operators read in
  non local Contribution for L=           0  read in
    real space projection operators read in
  non local Contribution for L=           1  read in
    real space projection operators read in
  non local Contribution for L=           1  read in
    real space projection operators read in
    PAW grid and wavefunctions read in
 
   number of l-projection  operators is LMAX  =           4
   number of lm-projection operators is LMMAX =           8
 
 POTCAR:    PAW_PBE Mn 06Sep2000                  
   VRHFIN =Mn: d6 s1                                                            
   LEXCH  = PE                                                                  
   EATOM  =   416.7541 eV,   30.6306 Ry                                         
                                                                                
   TITEL  = PAW_PBE Mn 06Sep2000                                                
   LULTRA =        F    use ultrasoft PP ?                                      
   IUNSCR =        1    unscreen: 0-lin 1-nonlin 2-no                           
   RPACOR =    2.000    partial core radius                                     
   POMASS =   54.938; ZVAL   =    7.000    mass and valenz                      
   RCORE  =    2.300    outmost cutoff radius                                   
   RWIGS  =    2.500; RWIGS  =    1.323    wigner-seitz radius (au A)           
   ENMAX  =  269.864; ENMIN  =  202.398 eV                                      
   RCLOC  =    1.725    cutoff for local pot                                    
   LCOR   =        T    correct aug charges                                     
   LPAW   =        T    paw PP                                                  
   EAUG   =  500.711                                                            
   DEXC   =    0.000                                                            
   RMAX   =    2.343    core radius for proj-oper                               
   RAUG   =    1.300    factor for augmentation sphere                          
   RDEP   =    2.338    radius for radial grids                                 
   RDEPT  =    1.911    core radius for aug-charge                              
                                                                                
   Atomic configuration                                                         
    9 entries                                                                   
     n  l   j            E        occ.                                          
     1  0  0.50     -6424.8288   2.0000                                         
     2  0  0.50      -739.1154   2.0000                                         
     2  1  1.50      -625.3949   6.0000                                         
     3  0  0.50       -81.6100   2.0000                                         
     3  1  1.50       -50.4667   6.0000                                         
     3  2  2.50        -3.3745   6.0000                                         
     4  0  0.50        -4.1331   1.0000                                         
     4  1  0.50        -4.0817   0.0000                                         
     4  3  2.50        -1.3606   0.0000                                         
   Description                                                                  
     l       E           TYP  RCUT    TYP  RCUT                                 
     2     -3.3744664     23  2.300                                             
     2     -4.7350490     23  2.300                                             
     0     -4.1331408     23  2.300                                             
     0      7.6656614     23  2.300                                             
     1     -2.7211652     23  2.300                                             
     1     20.4087390     23  2.300                                             
  local pseudopotential read in
  partial core-charges read in
  partial kinetic energy density read in
  atomic valenz-charges read in
  non local Contribution for L=           2  read in
    real space projection operators read in
  non local Contribution for L=           2  read in
    real space projection operators read in
  non local Contribution for L=           0  read in
    real space projection operators read in
  non local Contribution for L=           0  read in
    real space projection operators read in
  non local Contribution for L=           1  read in
    real space projection operators read in
  non local Contribution for L=           1  read in
    real space projection operators read in
    PAW grid and wavefunctions read in
 
   number of l-projection  operators is LMAX  =           6
   number of lm-projection operators is LMMAX =          18
 

 ----------------------------------------------------------------------------- 
|                                                                             |
|  ADVICE TO THIS USER RUNNING 'VASP/VAMP'   (HEAR YOUR MASTER'S VOICE ...):  |
|                                                                             |
|      You have a (more or less) 'large supercell' and for larger cells       |
|      it might be more efficient to use real space projection opertators     |
|      So try LREAL= Auto  in the INCAR   file.                               |
|      Mind:          For very  accurate calculation you might also keep the  |
|      reciprocal projection scheme          (i.e. LREAL=.FALSE.)             |
|                                                                             |
 ----------------------------------------------------------------------------- 

  PAW_PBE Al 04Jan2001                  :
 energy of atom  1       EATOM=  -53.5387
 kinetic energy error for atom=    0.0005 (will be added to EATOM!!)
  PAW_PBE Mn 06Sep2000                  :
 energy of atom  2       EATOM= -416.7541
 kinetic energy error for atom=    0.0080 (will be added to EATOM!!)
 
 
 POSCAR: NewRef: 27, @ ['Mn', array([1.37502469, 
  positions in cartesian coordinates
  velocities in cartesian coordinates
  No initial velocities read in
 exchange correlation table for  LEXCH =        8
   RHO(1)=    0.500       N(1)  =     2000
   RHO(2)=  100.500       N(2)  =     4000
 


--------------------------------------------------------------------------------------------------------


 ion  position               nearest neighbor table
   1  0.000  0.000  0.000-  28 2.61  30 2.61  34 2.61  36 2.61  46 2.61  48 2.61  52 2.61  54 2.61
                             4 2.75  10 2.75   7 2.75  19 2.75
   2  0.000  0.000  0.333-  28 2.61  34 2.61  46 2.61  52 2.61  29 2.61  47 2.61  35 2.61  53 2.61
                             5 2.75  11 2.75   8 2.75  20 2.75
   3  0.000  0.000  0.667-  29 2.61  35 2.61  47 2.61  53 2.61  30 2.61  48 2.61  36 2.61  54 2.61
                             6 2.75  12 2.75   9 2.75  21 2.75
   4  0.000  0.333  0.000-  28 2.61  30 2.61  46 2.61  48 2.61  31 2.61  33 2.61  49 2.61  51 2.61
                            13 2.75   1 2.75   7 2.75  22 2.75
   5  0.000  0.333  0.333-  28 2.61  46 2.61  31 2.61  49 2.61  47 2.61  29 2.61  32 2.61  50 2.61
                            14 2.75   2 2.75   8 2.75  23 2.75
   6  0.000  0.333  0.667-  29 2.61  47 2.61  32 2.61  50 2.61  48 2.61  30 2.61  33 2.61  51 2.61
                            15 2.75   3 2.75   9 2.75  24 2.75
   7  0.000  0.667  0.000-  31 2.61  33 2.61  49 2.61  51 2.61  34 2.61  36 2.61  52 2.61  54 2.61
                             4 2.75  16 2.75   1 2.75  25 2.75
   8  0.000  0.667  0.333-  31 2.61  49 2.61  34 2.61  52 2.61  50 2.61  32 2.61  35 2.61  53 2.61
                             5 2.75  17 2.75   2 2.75  26 2.75
   9  0.000  0.667  0.667-  32 2.61  50 2.61  35 2.61  53 2.61  51 2.61  33 2.61  36 2.61  54 2.61
                             6 2.75  18 2.75   3 2.75  27 2.75
  10  0.333  0.000  0.000-  28 2.61  30 2.61  34 2.61  36 2.61  37 2.61  39 2.61  43 2.61  45 2.61
                            19 2.75   1 2.75  13 2.75  16 2.75
  11  0.333  0.000  0.333-  28 2.61  34 2.61  37 2.61  43 2.61  29 2.61  35 2.61  38 2.61  44 2.61
                            20 2.75   2 2.75  14 2.75  17 2.75
  12  0.333  0.000  0.667-  29 2.61  35 2.61  38 2.61  44 2.61  30 2.61  36 2.61  39 2.61  45 2.61
                            21 2.75   3 2.75  15 2.75  18 2.75
  13  0.333  0.333  0.000-  28 2.61  30 2.61  31 2.61  33 2.61  37 2.61  39 2.61  40 2.61  42 2.61
                             4 2.75  10 2.75  16 2.75  22 2.75
  14  0.333  0.333  0.333-  28 2.61  31 2.61  37 2.61  29 2.61  40 2.61  38 2.61  32 2.61  41 2.61
                             5 2.75  11 2.75  17 2.75  23 2.75
  15  0.333  0.333  0.667-  29 2.61  32 2.61  38 2.61  30 2.61  41 2.61  39 2.61  33 2.61  42 2.61
                             6 2.75  12 2.75  18 2.75  24 2.75
  16  0.333  0.667  0.000-  31 2.61  33 2.61  34 2.61  36 2.61  40 2.61  42 2.61  43 2.61  45 2.61
                            25 2.75   7 2.75  13 2.75  10 2.75
  17  0.333  0.667  0.333-  31 2.61  34 2.61  40 2.61  32 2.61  43 2.61  41 2.61  35 2.61  44 2.61
                            26 2.75   8 2.75  14 2.75  11 2.75
  18  0.333  0.667  0.667-  32 2.61  35 2.61  41 2.61  33 2.61  44 2.61  42 2.61  36 2.61  45 2.61
                            27 2.75   9 2.75  15 2.75  12 2.75
  19  0.667  0.000  0.000-  37 2.61  39 2.61  43 2.61  45 2.61  46 2.61  48 2.61  52 2.61  54 2.61
                            10 2.75  22 2.75   1 2.75  25 2.75
  20  0.667  0.000  0.333-  37 2.61  43 2.61  46 2.61  52 2.61  38 2.61  44 2.61  47 2.61  53 2.61
                            11 2.75  23 2.75   2 2.75  26 2.75
  21  0.667  0.000  0.667-  38 2.61  44 2.61  47 2.61  53 2.61  39 2.61  45 2.61  48 2.61  54 2.61
                            12 2.75  24 2.75   3 2.75  27 2.75
  22  0.667  0.333  0.000-  37 2.61  39 2.61  40 2.61  42 2.61  46 2.61  48 2.61  49 2.61  51 2.61
                            25 2.75  13 2.75  19 2.75   4 2.75
  23  0.667  0.333  0.333-  37 2.61  40 2.61  46 2.61  38 2.61  49 2.61  47 2.61  41 2.61  50 2.61
                            26 2.75  14 2.75  20 2.75   5 2.75
  24  0.667  0.333  0.667-  38 2.61  41 2.61  47 2.61  39 2.61  50 2.61  48 2.61  42 2.61  51 2.61
                            27 2.75  15 2.75  21 2.75   6 2.75
  25  0.667  0.667  0.000-  40 2.61  42 2.61  43 2.61  45 2.61  49 2.61  51 2.61  52 2.61  54 2.61
                            16 2.75  22 2.75  19 2.75   7 2.75
  26  0.667  0.667  0.333-  40 2.61  43 2.61  49 2.61  41 2.61  52 2.61  50 2.61  44 2.61  53 2.61
                            17 2.75  23 2.75  20 2.75   8 2.75
  27  0.667  0.667  0.667-  41 2.61  44 2.61  50 2.61  42 2.61  53 2.61  51 2.61  45 2.61  54 2.61
                            18 2.75  24 2.75  21 2.75   9 2.75
  28  0.167  0.167  0.167-  14 2.61  11 2.61   5 2.61  13 2.61   2 2.61  10 2.61   4 2.61   1 2.61
                            31 2.75  37 2.75  34 2.75  46 2.75
  29  0.167  0.167  0.500-  15 2.61  12 2.61   6 2.61  14 2.61   3 2.61  11 2.61   5 2.61   2 2.61
                            32 2.75  38 2.75  35 2.75  47 2.75
  30  0.167  0.167  0.833-  13 2.61  15 2.61  10 2.61  12 2.61   4 2.61   6 2.61   1 2.61   3 2.61
                            33 2.75  39 2.75  36 2.75  48 2.75
  31  0.167  0.500  0.167-  17 2.61  14 2.61   8 2.61  16 2.61   5 2.61  13 2.61   7 2.61   4 2.61
                            28 2.75  34 2.75  40 2.75  49 2.75
  32  0.167  0.500  0.500-  18 2.61  15 2.61   9 2.61  17 2.61   6 2.61  14 2.61   8 2.61   5 2.61
                            29 2.75  35 2.75  41 2.75  50 2.75
  33  0.167  0.500  0.833-  16 2.61  18 2.61  13 2.61  15 2.61   7 2.61   9 2.61   4 2.61   6 2.61
                            30 2.75  36 2.75  42 2.75  51 2.75
  34  0.167  0.833  0.167-  11 2.61  17 2.61   2 2.61   8 2.61  16 2.61  10 2.61   7 2.61   1 2.61
                            31 2.75  43 2.75  28 2.75  52 2.75
  35  0.167  0.833  0.500-  12 2.61  18 2.61   3 2.61   9 2.61  17 2.61  11 2.61   8 2.61   2 2.61
                            32 2.75  44 2.75  29 2.75  53 2.75
  36  0.167  0.833  0.833-  10 2.61  12 2.61  16 2.61  18 2.61   1 2.61   3 2.61   7 2.61   9 2.61
                            33 2.75  45 2.75  30 2.75  54 2.75
  37  0.500  0.167  0.167-  23 2.61  20 2.61  14 2.61  22 2.61  11 2.61  19 2.61  13 2.61  10 2.61
                            28 2.75  40 2.75  46 2.75  43 2.75
  38  0.500  0.167  0.500-  24 2.61  21 2.61  15 2.61  23 2.61  12 2.61  20 2.61  14 2.61  11 2.61
                            29 2.75  41 2.75  47 2.75  44 2.75
  39  0.500  0.167  0.833-  22 2.61  24 2.61  19 2.61  21 2.61  13 2.61  15 2.61  10 2.61  12 2.61
                            30 2.75  42 2.75  48 2.75  45 2.75
  40  0.500  0.500  0.167-  26 2.61  23 2.61  17 2.61  25 2.61  14 2.61  22 2.61  16 2.61  13 2.61
                            31 2.75  37 2.75  43 2.75  49 2.75
  41  0.500  0.500  0.500-  27 2.61  24 2.61  18 2.61  26 2.61  15 2.61  23 2.61  17 2.61  14 2.61
                            32 2.75  38 2.75  44 2.75  50 2.75
  42  0.500  0.500  0.833-  25 2.61  27 2.61  22 2.61  24 2.61  16 2.61  18 2.61  13 2.61  15 2.61
                            33 2.75  39 2.75  45 2.75  51 2.75
  43  0.500  0.833  0.167-  20 2.61  26 2.61  11 2.61  17 2.61  25 2.61  19 2.61  16 2.61  10 2.61
                            34 2.75  40 2.75  52 2.75  37 2.75
  44  0.500  0.833  0.500-  21 2.61  27 2.61  12 2.61  18 2.61  26 2.61  20 2.61  17 2.61  11 2.61
                            35 2.75  41 2.75  53 2.75  38 2.75
  45  0.500  0.833  0.833-  19 2.61  21 2.61  25 2.61  27 2.61  10 2.61  12 2.61  16 2.61  18 2.61
                            36 2.75  42 2.75  54 2.75  39 2.75
  46  0.833  0.167  0.167-   5 2.61  23 2.61  20 2.61   2 2.61  22 2.61   4 2.61  19 2.61   1 2.61
                            37 2.75  49 2.75  28 2.75  52 2.75
  47  0.833  0.167  0.500-   6 2.61  24 2.61  21 2.61   3 2.61  23 2.61   5 2.61  20 2.61   2 2.61
                            38 2.75  50 2.75  29 2.75  53 2.75
  48  0.833  0.167  0.833-   4 2.61   6 2.61  22 2.61  24 2.61  19 2.61  21 2.61   1 2.61   3 2.61
                            39 2.75  51 2.75  30 2.75  54 2.75
  49  0.833  0.500  0.167-   8 2.61  26 2.61  23 2.61   5 2.61  25 2.61   7 2.61  22 2.61   4 2.61
                            40 2.75  46 2.75  52 2.75  31 2.75
  50  0.833  0.500  0.500-   9 2.61  27 2.61  24 2.61   6 2.61  26 2.61   8 2.61  23 2.61   5 2.61
                            41 2.75  47 2.75  53 2.75  32 2.75
  51  0.833  0.500  0.833-   7 2.61   9 2.61  25 2.61  27 2.61  22 2.61  24 2.61   4 2.61   6 2.61
                            42 2.75  48 2.75  54 2.75  33 2.75
  52  0.833  0.833  0.167-   2 2.61   8 2.61  20 2.61  26 2.61  19 2.61   7 2.61  25 2.61   1 2.61
                            43 2.75  49 2.75  46 2.75  34 2.75
  53  0.833  0.833  0.500-   3 2.61   9 2.61  21 2.61  27 2.61  20 2.61   8 2.61  26 2.61   2 2.61
                            44 2.75  50 2.75  47 2.75  35 2.75
  54  0.833  0.833  0.833-   1 2.61   3 2.61   7 2.61   9 2.61  19 2.61  21 2.61  25 2.61  27 2.61
                            45 2.75  51 2.75  48 2.75  36 2.75
 
  LATTYP: Found a simple tetragonal cell.
 ALAT       =     8.2501481662
 C/A-ratio  =     1.2642089792
  
  Lattice vectors:
  
 A1 = (   8.2501481662,   0.0000000000,   0.0000000000)
 A2 = (   0.0000000000,   8.2501481662,   0.0000000000)
 A3 = (   0.0000000000,   0.0000000000,  10.4299113916)


Analysis of symmetry for initial positions (statically):
=====================================================================
 Subroutine PRICEL returns following result:
 
  LATTYP: Found a simple tetragonal cell.
 ALAT       =     2.7500493888
 C/A-ratio  =     1.2642089792
  
  Lattice vectors:
  
 A1 = (   2.7500493888,   0.0000000000,   0.0000000000)
 A2 = (   0.0000000000,   2.7500493888,   0.0000000000)
 A3 = (   0.0000000000,   0.0000000000,   3.4766371306)
 
  27 primitive cells build up your supercell.
 

 Routine SETGRP: Setting up the symmetry group for a 
 simple tetragonal supercell.


 Subroutine GETGRP returns: Found 16 space group operations
 (whereof 16 operations were pure point group operations)
 out of a pool of 16 trial point group operations.


The static configuration has the point symmetry D_4h.


Analysis of symmetry for dynamics (positions and initial velocities):
=====================================================================
 Subroutine PRICEL returns following result:
 
  LATTYP: Found a simple tetragonal cell.
 ALAT       =     2.7500493888
 C/A-ratio  =     1.2642089792
  
  Lattice vectors:
  
 A1 = (   2.7500493888,   0.0000000000,   0.0000000000)
 A2 = (   0.0000000000,   2.7500493888,   0.0000000000)
 A3 = (   0.0000000000,   0.0000000000,   3.4766371306)
 
  27 primitive cells build up your supercell.
 

 Routine SETGRP: Setting up the symmetry group for a 
 simple tetragonal supercell.


 Subroutine GETGRP returns: Found 16 space group operations
 (whereof 16 operations were pure point group operations)
 out of a pool of 16 trial point group operations.


The dynamic configuration has the point symmetry D_4h.


Analysis of structural, dynamic, and magnetic symmetry:
=====================================================================
 Subroutine PRICEL returns:
 Original cell was already a primitive cell.
 

 Routine SETGRP: Setting up the symmetry group for a 
 simple tetragonal supercell.


 Subroutine GETGRP returns: Found  4 space group operations
 (whereof  1 operations were pure point group operations)
 out of a pool of 16 trial point group operations.


The magnetic configuration has the point symmetry C_1 .
 The point group associated with its full space group is C_2v.


 Subroutine INISYM returns: Found  4 space group operations
 (whereof  1 operations are pure point group operations),
 and found     1 'primitive' translations

 
 
 KPOINTS: automatic KPOINTS                       

Automatic generation of k-mesh.
 generate k-points for:    5    5    4
Space group operators:
 irot       det(A)        alpha          n_x          n_y          n_z        tau_x        tau_y        tau_z
    1     1.000000     0.000001     1.000000     0.000000     0.000000     0.000000     0.000000     0.000000
    2     1.000000   180.000000     0.000000     0.000000     1.000000     0.333333     0.333333     0.000000
    3    -1.000000   180.000000     0.000000     1.000000     0.000000     0.000000     0.333333     0.000000
    4    -1.000000   180.000000     1.000000     0.000000     0.000000     0.333333     0.000000     0.000000
 
 Subroutine IBZKPT returns following result:
 ===========================================
 
 Found     27 irreducible k-points:
 
 Following reciprocal coordinates:
            Coordinates               Weight
  0.000000  0.000000  0.000000      1.000000
  0.200000  0.000000  0.000000      2.000000
  0.400000  0.000000  0.000000      2.000000
  0.000000  0.200000  0.000000      2.000000
  0.200000  0.200000  0.000000      4.000000
  0.400000  0.200000  0.000000      4.000000
  0.000000  0.400000  0.000000      2.000000
  0.200000  0.400000  0.000000      4.000000
  0.400000  0.400000  0.000000      4.000000
  0.000000  0.000000  0.250000      2.000000
  0.200000  0.000000  0.250000      4.000000
  0.400000  0.000000  0.250000      4.000000
  0.000000  0.200000  0.250000      4.000000
  0.200000  0.200000  0.250000      8.000000
  0.400000  0.200000  0.250000      8.000000
  0.000000  0.400000  0.250000      4.000000
  0.200000  0.400000  0.250000      8.000000
  0.400000  0.400000  0.250000      8.000000
  0.000000  0.000000  0.500000      1.000000
  0.200000  0.000000  0.500000      2.000000
  0.400000  0.000000  0.500000      2.000000
  0.000000  0.200000  0.500000      2.000000
  0.200000  0.200000  0.500000      4.000000
  0.400000  0.200000  0.500000      4.000000
  0.000000  0.400000  0.500000      2.000000
  0.200000  0.400000  0.500000      4.000000
  0.400000  0.400000  0.500000      4.000000
 
 Following cartesian coordinates:
            Coordinates               Weight
  0.000000  0.000000  0.000000      1.000000
  0.024242  0.000000  0.000000      2.000000
  0.048484  0.000000  0.000000      2.000000
  0.000000  0.024242  0.000000      2.000000
  0.024242  0.024242  0.000000      4.000000
  0.048484  0.024242  0.000000      4.000000
  0.000000  0.048484  0.000000      2.000000
  0.024242  0.048484  0.000000      4.000000
  0.048484  0.048484  0.000000      4.000000
  0.000000  0.000000  0.023970      2.000000
  0.024242  0.000000  0.023970      4.000000
  0.048484  0.000000  0.023970      4.000000
  0.000000  0.024242  0.023970      4.000000
  0.024242  0.024242  0.023970      8.000000
  0.048484  0.024242  0.023970      8.000000
  0.000000  0.048484  0.023970      4.000000
  0.024242  0.048484  0.023970      8.000000
  0.048484  0.048484  0.023970      8.000000
  0.000000  0.000000  0.047939      1.000000
  0.024242  0.000000  0.047939      2.000000
  0.048484  0.000000  0.047939      2.000000
  0.000000  0.024242  0.047939      2.000000
  0.024242  0.024242  0.047939      4.000000
  0.048484  0.024242  0.047939      4.000000
  0.000000  0.048484  0.047939      2.000000
  0.024242  0.048484  0.047939      4.000000
  0.048484  0.048484  0.047939      4.000000
 


--------------------------------------------------------------------------------------------------------




 Dimension of arrays:
   k-points           NKPTS =     27   k-points in BZ     NKDIM =     27   number of bands    NBANDS=    156
   number of dos      NEDOS =    301   number of ions     NIONS =     54
   non local maximal  LDIM  =      6   non local SUM 2l+1 LMDIM =     18
   total plane-waves  NPLWV = 204120
   max r-space proj   IRMAX =      1   max aug-charges    IRDMAX=  89713
   dimension x,y,z NGX =    54 NGY =   54 NGZ =   70
   dimension x,y,z NGXF=   108 NGYF=  108 NGZF=  140
   support grid    NGXF=   216 NGYF=  216 NGZF=  280
   ions per type =              27  27
   NGX,Y,Z   is equivalent  to a cutoff of  10.88, 10.88, 11.16 a.u.
   NGXF,Y,Z  is equivalent  to a cutoff of  21.76, 21.76, 22.32 a.u.

 SYSTEM =  AlMn_pv                                 
 POSCAR =  NewRef: 27, @ ['Mn', array([1.37502469, 

 Startparameter for this run:
   NWRITE =      2    write-flag & timer
   PREC   = accura    normal or accurate (medium, high low for compatibility)
   ISTART =      0    job   : 0-new  1-cont  2-samecut
   ICHARG =      2    charge: 1-file 2-atom 10-const
   ISPIN  =      2    spin polarized calculation?
   LNONCOLLINEAR =      F non collinear calculations
   LSORBIT =      F    spin-orbit coupling
   INIWAV =      1    electr: 0-lowe 1-rand  2-diag
   LASPH  =      F    aspherical Exc in radial PAW
   METAGGA=      F    non-selfconsistent MetaGGA calc.

 Electronic Relaxation 1
   ENCUT  =  404.8 eV  29.75 Ry    5.45 a.u.  13.53 13.53 17.11*2*pi/ulx,y,z
   ENINI  =  404.8     initial cutoff
   ENAUG  =  500.7 eV  augmentation charge cutoff
   NELM   =    100;   NELMIN=  4; NELMDL= -8     # of ELM steps 
   EDIFF  = 0.1E-06   stopping-criterion for ELM
   LREAL  =      F    real-space projection
   NLSPLINE    = F    spline interpolate recip. space projectors
   LCOMPAT=      F    compatible to vasp.4.4
   GGA_COMPAT  = T    GGA compatible to vasp.4.4-vasp.4.6
   LMAXPAW     = -100 max onsite density
   LMAXMIX     =    2 max onsite mixed and CHGCAR
   VOSKOWN=      0    Vosko Wilk Nusair interpolation
   ROPT   =    0.00000   0.00000
 Ionic relaxation
   EDIFFG = 0.1E-05   stopping-criterion for IOM
   NSW    =      0    number of steps for IOM
   NBLOCK =      1;   KBLOCK =      1    inner block; outer block 
   IBRION =     -1    ionic relax: 0-MD 1-quasi-New 2-CG
   NFREE  =      0    steps in history (QN), initial steepest desc. (CG)
   ISIF   =      2    stress and relaxation
   IWAVPR =     10    prediction:  0-non 1-charg 2-wave 3-comb
   ISYM   =      2    0-nonsym 1-usesym 2-fastsym
   LCORR  =      T    Harris-Foulkes like correction to forces

   POTIM  = 0.2000    time-step for ionic-motion
   TEIN   =    0.0    initial temperature
   TEBEG  =    0.0;   TEEND  =   0.0 temperature during run
   SMASS  =  -3.00    Nose mass-parameter (am)
   estimated Nose-frequenzy (Omega)   =  0.10E-29 period in steps =****** mass=  -0.156E-26a.u.
   SCALEE = 1.0000    scale energy and forces
   NPACO  =    256;   APACO  = 16.0  distance and # of slots for P.C.
   PSTRESS=    0.0 pullay stress

  Mass of Ions in am
   POMASS =  26.98 54.94
  Ionic Valenz
   ZVAL   =   3.00  7.00
  Atomic Wigner-Seitz radii
   RWIGS  =  -1.00 -1.00
  virtual crystal weights 
   VCA    =   1.00  1.00
   NELECT =     270.0000    total number of electrons
   NUPDOWN=      -1.0000    fix difference up-down

 DOS related values:
   EMIN   =  10.00;   EMAX   =-10.00  energy-range for DOS
   EFERMI =   0.00
   ISMEAR =     1;   SIGMA  =   0.20  broadening in eV -4-tet -1-fermi 0-gaus

 Electronic relaxation 2 (details)
   IALGO  =     58    algorithm
   LDIAG  =      T    sub-space diagonalisation (order eigenvalues)
   LSUBROT=      F    optimize rotation matrix (better conditioning)
   TURBO    =      0    0=normal 1=particle mesh
   IRESTART =      0    0=no restart 2=restart with 2 vectors
   NREBOOT  =      0    no. of reboots
   NMIN     =      0    reboot dimension
   EREF     =   0.00    reference energy to select bands
   IMIX   =      4    mixing-type and parameters
     AMIX     =   0.40;   BMIX     =  1.00
     AMIX_MAG =   1.60;   BMIX_MAG =  1.00
     AMIN     =   0.10
     WC   =   100.;   INIMIX=   1;  MIXPRE=   1;  MAXMIX= -45

 Intra band minimization:
   WEIMIN = 0.0000     energy-eigenvalue tresh-hold
   EBREAK =  0.16E-09  absolut break condition
   DEPER  =   0.30     relativ break condition  

   TIME   =   0.40     timestep for ELM

  volume/ion in A,a.u.               =      13.15        88.72
  Fermi-wavevector in a.u.,A,eV,Ry     =   1.186118  2.241439 19.141722  1.406877
  Thomas-Fermi vector in A             =   2.322298
 
 Write flags
   LWAVE        =      F    write WAVECAR
   LDOWNSAMPLE  =      F    k-point downsampling of WAVECAR
   LCHARG       =      F    write CHGCAR
   LVTOT        =      F    write LOCPOT, total local potential
   LVHAR        =      F    write LOCPOT, Hartree potential only
   LELF         =      F    write electronic localiz. function (ELF)
   LORBIT       =     10    0 simple, 1 ext, 2 COOP (PROOUT), +10 PAW based schemes


 Dipole corrections
   LMONO  =      F    monopole corrections only (constant potential shift)
   LDIPOL =      F    correct potential (dipole corrections)
   IDIPOL =      0    1-x, 2-y, 3-z, 4-all directions 
   EPSILON=  1.0000000 bulk dielectric constant

 Exchange correlation treatment:
   GGA     =    --    GGA type
   LEXCH   =     8    internal setting for exchange type
   VOSKOWN=      0    Vosko Wilk Nusair interpolation
   LHFCALC =     F    Hartree Fock is set to
   LHFONE  =     F    Hartree Fock one center treatment
   AEXX    =    0.0000 exact exchange contribution

 Linear response parameters
   LEPSILON=     F    determine dielectric tensor
   LRPA    =     F    only Hartree local field effects (RPA)
   LNABLA  =     F    use nabla operator in PAW spheres
   LVEL    =     F    velocity operator in full k-point grid
   LINTERFAST=   F  fast interpolation
   KINTER  =     0    interpolate to denser k-point grid
   CSHIFT  =0.1000    complex shift for real part using Kramers Kronig
   OMEGAMAX=  -1.0    maximum frequency
   DEG_THRESHOLD= 0.2000000E-02 threshold for treating states as degnerate
   RTIME   =   -0.100 relaxation time in fs
  (WPLASMAI=    0.000 imaginary part of plasma frequency in eV, 0.658/RTIME)
   DFIELD  = 0.0000000 0.0000000 0.0000000 field for delta impulse in time
 
 Orbital magnetization related:
   ORBITALMAG=     F  switch on orbital magnetization
   LCHIMAG   =     F  perturbation theory with respect to B field
   DQ        =  0.001000  dq finite difference perturbation B field
   LLRAUG    =     F  two centre corrections for induced B field



--------------------------------------------------------------------------------------------------------


 Static calculation
 charge density and potential will be updated during run
 spin polarized calculation
 Conjugate gradient for all bands (Freysoldt, et al. PRB 79, 241103 (2009))
 preconditioned conjugated gradient                                        
 perform sub-space diagonalisation
    before iterative eigenvector-optimisation
 modified Broyden-mixing scheme, WC =      100.0
 initial mixing is a Kerker type mixing with AMIX =  0.4000 and BMIX =      1.0000
 Hartree-type preconditioning will be used
 using additional bands           21
 reciprocal scheme for non local part
 use partial core corrections
 no Harris-corrections to forces 
 use gradient corrections 
 use of overlap-Matrix (Vanderbilt PP)
 Methfessel and Paxton  Order N= 1 SIGMA  =   0.20


--------------------------------------------------------------------------------------------------------


  energy-cutoff  :      404.80
  volume of cell :      709.91
      direct lattice vectors                 reciprocal lattice vectors
     8.250148166  0.000000000  0.000000000     0.121209944  0.000000000  0.000000000
     0.000000000  8.250148166  0.000000000     0.000000000  0.121209944  0.000000000
     0.000000000  0.000000000 10.429911392     0.000000000  0.000000000  0.095878092

  length of vectors
     8.250148166  8.250148166 10.429911392     0.121209944  0.121209944  0.095878092


 
 k-points in units of 2pi/SCALE and weight: automatic KPOINTS                       
   0.00000000  0.00000000  0.00000000       0.010
   0.02424199  0.00000000  0.00000000       0.020
   0.04848398  0.00000000  0.00000000       0.020
   0.00000000  0.02424199  0.00000000       0.020
   0.02424199  0.02424199  0.00000000       0.040
   0.04848398  0.02424199  0.00000000       0.040
   0.00000000  0.04848398  0.00000000       0.020
   0.02424199  0.04848398  0.00000000       0.040
   0.04848398  0.04848398  0.00000000       0.040
   0.00000000  0.00000000  0.02396952       0.020
   0.02424199  0.00000000  0.02396952       0.040
   0.04848398  0.00000000  0.02396952       0.040
   0.00000000  0.02424199  0.02396952       0.040
   0.02424199  0.02424199  0.02396952       0.080
   0.04848398  0.02424199  0.02396952       0.080
   0.00000000  0.04848398  0.02396952       0.040
   0.02424199  0.04848398  0.02396952       0.080
   0.04848398  0.04848398  0.02396952       0.080
   0.00000000  0.00000000  0.04793905       0.010
   0.02424199  0.00000000  0.04793905       0.020
   0.04848398  0.00000000  0.04793905       0.020
   0.00000000  0.02424199  0.04793905       0.020
   0.02424199  0.02424199  0.04793905       0.040
   0.04848398  0.02424199  0.04793905       0.040
   0.00000000  0.04848398  0.04793905       0.020
   0.02424199  0.04848398  0.04793905       0.040
   0.04848398  0.04848398  0.04793905       0.040
 
 k-points in reciprocal lattice and weights: automatic KPOINTS                       
   0.00000000  0.00000000  0.00000000       0.010
   0.20000000  0.00000000  0.00000000       0.020
   0.40000000  0.00000000  0.00000000       0.020
   0.00000000  0.20000000  0.00000000       0.020
   0.20000000  0.20000000  0.00000000       0.040
   0.40000000  0.20000000  0.00000000       0.040
   0.00000000  0.40000000  0.00000000       0.020
   0.20000000  0.40000000  0.00000000       0.040
   0.40000000  0.40000000  0.00000000       0.040
   0.00000000  0.00000000  0.25000000       0.020
   0.20000000  0.00000000  0.25000000       0.040
   0.40000000  0.00000000  0.25000000       0.040
   0.00000000  0.20000000  0.25000000       0.040
   0.20000000  0.20000000  0.25000000       0.080
   0.40000000  0.20000000  0.25000000       0.080
   0.00000000  0.40000000  0.25000000       0.040
   0.20000000  0.40000000  0.25000000       0.080
   0.40000000  0.40000000  0.25000000       0.080
   0.00000000  0.00000000  0.50000000       0.010
   0.20000000  0.00000000  0.50000000       0.020
   0.40000000  0.00000000  0.50000000       0.020
   0.00000000  0.20000000  0.50000000       0.020
   0.20000000  0.20000000  0.50000000       0.040
   0.40000000  0.20000000  0.50000000       0.040
   0.00000000  0.40000000  0.50000000       0.020
   0.20000000  0.40000000  0.50000000       0.040
   0.40000000  0.40000000  0.50000000       0.040
 
 position of ions in fractional coordinates (direct lattice) 
   0.00000000  0.00000000  0.00000000
   0.00000000  0.00000000  0.33333333
   0.00000000  0.00000000  0.66666667
   0.00000000  0.33333333  0.00000000
   0.00000000  0.33333333  0.33333333
   0.00000000  0.33333333  0.66666667
   0.00000000  0.66666667  0.00000000
   0.00000000  0.66666667  0.33333333
   0.00000000  0.66666667  0.66666667
   0.33333333  0.00000000  0.00000000
   0.33333333  0.00000000  0.33333333
   0.33333333  0.00000000  0.66666667
   0.33333333  0.33333333  0.00000000
   0.33333333  0.33333333  0.33333333
   0.33333333  0.33333333  0.66666667
   0.33333333  0.66666667  0.00000000
   0.33333333  0.66666667  0.33333333
   0.33333333  0.66666667  0.66666667
   0.66666667  0.00000000  0.00000000
   0.66666667  0.00000000  0.33333333
   0.66666667  0.00000000  0.66666667
   0.66666667  0.33333333  0.00000000
   0.66666667  0.33333333  0.33333333
   0.66666667  0.33333333  0.66666667
   0.66666667  0.66666667  0.00000000
   0.66666667  0.66666667  0.33333333
   0.66666667  0.66666667  0.66666667
   0.16666667  0.16666667  0.16666667
   0.16666667  0.16666667  0.50000000
   0.16666667  0.16666667  0.83333333
   0.16666667  0.50000000  0.16666667
   0.16666667  0.50000000  0.50000000
   0.16666667  0.50000000  0.83333333
   0.16666667  0.83333333  0.16666667
   0.16666667  0.83333333  0.50000000
   0.16666667  0.83333333  0.83333333
   0.50000000  0.16666667  0.16666667
   0.50000000  0.16666667  0.50000000
   0.50000000  0.16666667  0.83333333
   0.50000000  0.50000000  0.16666667
   0.50000000  0.50000000  0.50000000
   0.50000000  0.50000000  0.83333333
   0.50000000  0.83333333  0.16666667
   0.50000000  0.83333333  0.50000000
   0.50000000  0.83333333  0.83333333
   0.83333333  0.16666667  0.16666667
   0.83333333  0.16666667  0.50000000
   0.83333333  0.16666667  0.83333333
   0.83333333  0.50000000  0.16666667
   0.83333333  0.50000000  0.50000000
   0.83333333  0.50000000  0.83333333
   0.83333333  0.83333333  0.16666667
   0.83333333  0.83333333  0.50000000
   0.83333333  0.83333333  0.83333333
 
 position of ions in cartesian coordinates  (Angst):
   0.00000000  0.00000000  0.00000000
   0.00000000  0.00000000  3.47663713
   0.00000000  0.00000000  6.95327426
   0.00000000  2.75004939  0.00000000
   0.00000000  2.75004939  3.47663713
   0.00000000  2.75004939  6.95327426
   0.00000000  5.50009878  0.00000000
   0.00000000  5.50009878  3.47663713
   0.00000000  5.50009878  6.95327426
   2.75004939  0.00000000  0.00000000
   2.75004939  0.00000000  3.47663713
   2.75004939  0.00000000  6.95327426
   2.75004939  2.75004939  0.00000000
   2.75004939  2.75004939  3.47663713
   2.75004939  2.75004939  6.95327426
   2.75004939  5.50009878  0.00000000
   2.75004939  5.50009878  3.47663713
   2.75004939  5.50009878  6.95327426
   5.50009878  0.00000000  0.00000000
   5.50009878  0.00000000  3.47663713
   5.50009878  0.00000000  6.95327426
   5.50009878  2.75004939  0.00000000
   5.50009878  2.75004939  3.47663713
   5.50009878  2.75004939  6.95327426
   5.50009878  5.50009878  0.00000000
   5.50009878  5.50009878  3.47663713
   5.50009878  5.50009878  6.95327426
   1.37502469  1.37502469  1.73831857
   1.37502469  1.37502469  5.21495570
   1.37502469  1.37502469  8.69159283
   1.37502469  4.12507408  1.73831857
   1.37502469  4.12507408  5.21495570
   1.37502469  4.12507408  8.69159283
   1.37502469  6.87512347  1.73831857
   1.37502469  6.87512347  5.21495570
   1.37502469  6.87512347  8.69159283
   4.12507408  1.37502469  1.73831857
   4.12507408  1.37502469  5.21495570
   4.12507408  1.37502469  8.69159283
   4.12507408  4.12507408  1.73831857
   4.12507408  4.12507408  5.21495570
   4.12507408  4.12507408  8.69159283
   4.12507408  6.87512347  1.73831857
   4.12507408  6.87512347  5.21495570
   4.12507408  6.87512347  8.69159283
   6.87512347  1.37502469  1.73831857
   6.87512347  1.37502469  5.21495570
   6.87512347  1.37502469  8.69159283
   6.87512347  4.12507408  1.73831857
   6.87512347  4.12507408  5.21495570
   6.87512347  4.12507408  8.69159283
   6.87512347  6.87512347  1.73831857
   6.87512347  6.87512347  5.21495570
   6.87512347  6.87512347  8.69159283
 


--------------------------------------------------------------------------------------------------------


 k-point  1 :   0.0000 0.0000 0.0000  plane waves:   13099
 k-point  2 :   0.2000 0.0000 0.0000  plane waves:   13101
 k-point  3 :   0.4000 0.0000 0.0000  plane waves:   13111
 k-point  4 :   0.0000 0.2000 0.0000  plane waves:   13101
 k-point  5 :   0.2000 0.2000 0.0000  plane waves:   13137
 k-point  6 :   0.4000 0.2000 0.0000  plane waves:   13119
 k-point  7 :   0.0000 0.4000 0.0000  plane waves:   13111
 k-point  8 :   0.2000 0.4000 0.0000  plane waves:   13119
 k-point  9 :   0.4000 0.4000 0.0000  plane waves:   13129
 k-point 10 :   0.0000 0.0000 0.2500  plane waves:   13134
 k-point 11 :   0.2000 0.0000 0.2500  plane waves:   13149
 k-point 12 :   0.4000 0.0000 0.2500  plane waves:   13119
 k-point 13 :   0.0000 0.2000 0.2500  plane waves:   13149
 k-point 14 :   0.2000 0.2000 0.2500  plane waves:   13145
 k-point 15 :   0.4000 0.2000 0.2500  plane waves:   13134
 k-point 16 :   0.0000 0.4000 0.2500  plane waves:   13119
 k-point 17 :   0.2000 0.4000 0.2500  plane waves:   13134
 k-point 18 :   0.4000 0.4000 0.2500  plane waves:   13108
 k-point 19 :   0.0000 0.0000 0.5000  plane waves:   13186
 k-point 20 :   0.2000 0.0000 0.5000  plane waves:   13124
 k-point 21 :   0.4000 0.0000 0.5000  plane waves:   13152
 k-point 22 :   0.0000 0.2000 0.5000  plane waves:   13124
 k-point 23 :   0.2000 0.2000 0.5000  plane waves:   13136
 k-point 24 :   0.4000 0.2000 0.5000  plane waves:   13128
 k-point 25 :   0.0000 0.4000 0.5000  plane waves:   13152
 k-point 26 :   0.2000 0.4000 0.5000  plane waves:   13128
 k-point 27 :   0.4000 0.4000 0.5000  plane waves:   13112

 maximum and minimum number of plane-waves per node :      3304     3246

 maximum number of plane-waves:     13186
 maximum index in each direction: 
   IXMAX=   13   IYMAX=   13   IZMAX=   17
   IXMIN=  -13   IYMIN=  -13   IZMIN=  -17


 parallel 3D FFT for wavefunctions:
    minimum data exchange during FFTs selected (reduces bandwidth)
 parallel 3D FFT for charge:
    minimum data exchange during FFTs selected (reduces bandwidth)


 total amount of memory used by VASP MPI-rank0   815466. kBytes
=======================================================================

   base      :      30000. kBytes
   nonl-proj :      28494. kBytes
   fftplans  :      31580. kBytes
   grid      :      21385. kBytes
   one-center:        435. kBytes
   wavefun   :     703572. kBytes
 
     INWAV:  cpu time    0.0001: real time    0.0001
 Broyden mixing: mesh for mixing (old mesh)
   NGX = 27   NGY = 27   NGZ = 35
  (NGX  =108   NGY  =108   NGZ  =140)
  gives a total of  25515 points

 initial charge density was supplied:
 charge density of overlapping atoms calculated
 number of electron     270.0000000 magnetization     -15.0000000
 keeping initial charge density in first step


--------------------------------------------------------------------------------------------------------


 Maximum index for augmentation-charges        10967 (set IRDMAX)


--------------------------------------------------------------------------------------------------------


 First call to EWALD:  gamma=   0.199
 Maximum number of real-space cells 3x 3x 2
 Maximum number of reciprocal cells 3x 3x 3

    FEWALD:  cpu time    0.0135: real time    0.0135


--------------------------------------- Iteration      1(   1)  ---------------------------------------


    POTLOK:  cpu time    0.3988: real time    0.3988
    SETDIJ:  cpu time    0.4770: real time    0.4780
    TRIAL :  cpu time   26.8892: real time   27.0698
    CORREC:  cpu time    0.0049: real time    0.0051
    --------------------------------------------
      LOOP:  cpu time   28.0096: real time   28.1978

 eigenvalue-minimisations  : 16848
 total energy-change (2. order) : 0.2089096E+04  (-0.8615931E+04)
 number of electron     270.0000000 magnetization     -15.0000000
 augmentation part      270.0000000 magnetization     -15.0000000

 Free energy of the ion-electron system (eV)
  ---------------------------------------------------
  alpha Z        PSCENC =       798.38614055
  Ewald energy   TEWEN  =    -12901.57693327
  -Hartree energ DENC   =     -2855.60785864
  -exchange      EXHF   =         0.00000000
  -V(xc)+E(xc)   XCENC  =      -996.06378190
  PAW double counting   =     12741.82587617   -11476.22345381
  entropy T*S    EENTRO =        -0.00600780
  eigenvalues    EBANDS =      4080.68817707
  atomic energy  EATOM  =     12697.67401269
  ---------------------------------------------------
  free energy    TOTEN  =      2089.09617105 eV

  energy without entropy =     2089.10217885  energy(sigma->0) =     2089.09817365


--------------------------------------------------------------------------------------------------------




--------------------------------------- Iteration      1(   2)  ---------------------------------------


    TRIAL :  cpu time   27.8322: real time   28.1814
    CORREC:  cpu time    0.0061: real time    0.0063
    --------------------------------------------
      LOOP:  cpu time   27.8393: real time   28.1913

 eigenvalue-minimisations  : 16848
 total energy-change (2. order) :-0.2126194E+04  (-0.2097921E+04)
 number of electron     270.0000000 magnetization     -15.0000000
 augmentation part      270.0000000 magnetization     -15.0000000

 Free energy of the ion-electron system (eV)
  ---------------------------------------------------
  alpha Z        PSCENC =       798.38614055
  Ewald energy   TEWEN  =    -12901.57693327
  -Hartree energ DENC   =     -2855.60785864
  -exchange      EXHF   =         0.00000000
  -V(xc)+E(xc)   XCENC  =      -996.06378190
  PAW double counting   =     12741.82587617   -11476.22345381
  entropy T*S    EENTRO =        -0.00335373
  eigenvalues    EBANDS =      1954.49113119
  atomic energy  EATOM  =     12697.67401269
  ---------------------------------------------------
  free energy    TOTEN  =       -37.09822076 eV

  energy without entropy =      -37.09486704  energy(sigma->0) =      -37.09710285


--------------------------------------------------------------------------------------------------------




--------------------------------------- Iteration      1(   3)  ---------------------------------------


    TRIAL :  cpu time   37.4959: real time   37.8893
    CORREC:  cpu time    0.0074: real time    0.0075
    --------------------------------------------
      LOOP:  cpu time   37.5044: real time   37.9004

 eigenvalue-minimisations  : 25540
 total energy-change (2. order) :-0.3017461E+03  (-0.2789863E+03)
 number of electron     270.0000000 magnetization     -15.0000000
 augmentation part      270.0000000 magnetization     -15.0000000

 Free energy of the ion-electron system (eV)
  ---------------------------------------------------
  alpha Z        PSCENC =       798.38614055
  Ewald energy   TEWEN  =    -12901.57693327
  -Hartree energ DENC   =     -2855.60785864
  -exchange      EXHF   =         0.00000000
  -V(xc)+E(xc)   XCENC  =      -996.06378190
  PAW double counting   =     12741.82587617   -11476.22345381
  entropy T*S    EENTRO =         0.00349699
  eigenvalues    EBANDS =      1652.73814396
  atomic energy  EATOM  =     12697.67401269
  ---------------------------------------------------
  free energy    TOTEN  =      -338.84435727 eV

  energy without entropy =     -338.84785426  energy(sigma->0) =     -338.84552293


--------------------------------------------------------------------------------------------------------




--------------------------------------- Iteration      1(   4)  ---------------------------------------


    TRIAL :  cpu time   40.5242: real time   40.8572
    CORREC:  cpu time    0.0076: real time    0.0085
    --------------------------------------------
      LOOP:  cpu time   40.5327: real time   40.8686

 eigenvalue-minimisations  : 27560
 total energy-change (2. order) :-0.5635472E+02  (-0.5160703E+02)
 number of electron     270.0000000 magnetization     -15.0000000
 augmentation part      270.0000000 magnetization     -15.0000000

 Free energy of the ion-electron system (eV)
  ---------------------------------------------------
  alpha Z        PSCENC =       798.38614055
  Ewald energy   TEWEN  =    -12901.57693327
  -Hartree energ DENC   =     -2855.60785864
  -exchange      EXHF   =         0.00000000
  -V(xc)+E(xc)   XCENC  =      -996.06378190
  PAW double counting   =     12741.82587617   -11476.22345381
  entropy T*S    EENTRO =         0.01595481
  eigenvalues    EBANDS =      1596.37096642
  atomic energy  EATOM  =     12697.67401269
  ---------------------------------------------------
  free energy    TOTEN  =      -395.19907699 eV

  energy without entropy =     -395.21503180  energy(sigma->0) =     -395.20439526


--------------------------------------------------------------------------------------------------------




--------------------------------------- Iteration      1(   5)  ---------------------------------------


    TRIAL :  cpu time   42.0192: real time   42.5048
    CORREC:  cpu time    0.0078: real time    0.0086
    --------------------------------------------
      LOOP:  cpu time   42.0279: real time   42.5172

 eigenvalue-minimisations  : 28784
 total energy-change (2. order) :-0.7928663E+01  (-0.7494282E+01)
 number of electron     270.0000000 magnetization     -15.0000000
 augmentation part      270.0000000 magnetization     -15.0000000

 Free energy of the ion-electron system (eV)
  ---------------------------------------------------
  alpha Z        PSCENC =       798.38614055
  Ewald energy   TEWEN  =    -12901.57693327
  -Hartree energ DENC   =     -2855.60785864
  -exchange      EXHF   =         0.00000000
  -V(xc)+E(xc)   XCENC  =      -996.06378190
  PAW double counting   =     12741.82587617   -11476.22345381
  entropy T*S    EENTRO =         0.03168251
  eigenvalues    EBANDS =      1588.42657546
  atomic energy  EATOM  =     12697.67401269
  ---------------------------------------------------
  free energy    TOTEN  =      -403.12774025 eV

  energy without entropy =     -403.15942277  energy(sigma->0) =     -403.13830109


--------------------------------------------------------------------------------------------------------




--------------------------------------- Iteration      1(   6)  ---------------------------------------


    TRIAL :  cpu time   41.2112: real time   41.6216
    CORREC:  cpu time    0.0077: real time    0.0086
    --------------------------------------------
      LOOP:  cpu time   41.2198: real time   41.6341

 eigenvalue-minimisations  : 28496
 total energy-change (2. order) :-0.8955359E+00  (-0.8588459E+00)
 number of electron     270.0000000 magnetization     -15.0000000
 augmentation part      270.0000000 magnetization     -15.0000000

 Free energy of the ion-electron system (eV)
  ---------------------------------------------------
  alpha Z        PSCENC =       798.38614055
  Ewald energy   TEWEN  =    -12901.57693327
  -Hartree energ DENC   =     -2855.60785864
  -exchange      EXHF   =         0.00000000
  -V(xc)+E(xc)   XCENC  =      -996.06378190
  PAW double counting   =     12741.82587617   -11476.22345381
  entropy T*S    EENTRO =         0.03965947
  eigenvalues    EBANDS =      1587.52306264
  atomic energy  EATOM  =     12697.67401269
  ---------------------------------------------------
  free energy    TOTEN  =      -404.02327612 eV

  energy without entropy =     -404.06293558  energy(sigma->0) =     -404.03649594


--------------------------------------------------------------------------------------------------------




--------------------------------------- Iteration      1(   7)  ---------------------------------------


    TRIAL :  cpu time   42.4419: real time   42.7969
    CORREC:  cpu time    0.0078: real time    0.0079
    --------------------------------------------
      LOOP:  cpu time   42.4505: real time   42.8085

 eigenvalue-minimisations  : 29000
 total energy-change (2. order) :-0.1366830E+00  (-0.1318964E+00)
 number of electron     270.0000000 magnetization     -15.0000000
 augmentation part      270.0000000 magnetization     -15.0000000

 Free energy of the ion-electron system (eV)
  ---------------------------------------------------
  alpha Z        PSCENC =       798.38614055
  Ewald energy   TEWEN  =    -12901.57693327
  -Hartree energ DENC   =     -2855.60785864
  -exchange      EXHF   =         0.00000000
  -V(xc)+E(xc)   XCENC  =      -996.06378190
  PAW double counting   =     12741.82587617   -11476.22345381
  entropy T*S    EENTRO =         0.04276461
  eigenvalues    EBANDS =      1587.38327450
  atomic energy  EATOM  =     12697.67401269
  ---------------------------------------------------
  free energy    TOTEN  =      -404.15995911 eV

  energy without entropy =     -404.20272372  energy(sigma->0) =     -404.17421398


--------------------------------------------------------------------------------------------------------




--------------------------------------- Iteration      1(   8)  ---------------------------------------


    TRIAL :  cpu time   40.8232: real time   41.2959
    CORREC:  cpu time    0.0082: real time    0.0090
    CHARGE:  cpu time    1.4811: real time    1.4814
    --------------------------------------------
      LOOP:  cpu time   42.3142: real time   42.7905

 eigenvalue-minimisations  : 28000
 total energy-change (2. order) :-0.2400600E-01  (-0.2333857E-01)
 number of electron     269.9999995 magnetization     -10.3369073
 augmentation part       64.2126394 magnetization      -6.0056893

 Free energy of the ion-electron system (eV)
  ---------------------------------------------------
  alpha Z        PSCENC =       798.38614055
  Ewald energy   TEWEN  =    -12901.57693327
  -Hartree energ DENC   =     -2855.60785864
  -exchange      EXHF   =         0.00000000
  -V(xc)+E(xc)   XCENC  =      -996.06378190
  PAW double counting   =     12741.82587617   -11476.22345381
  entropy T*S    EENTRO =         0.04436070
  eigenvalues    EBANDS =      1587.35767241
  atomic energy  EATOM  =     12697.67401269
  ---------------------------------------------------
  free energy    TOTEN  =      -404.18396512 eV

  energy without entropy =     -404.22832581  energy(sigma->0) =     -404.19875201


--------------------------------------------------------------------------------------------------------




--------------------------------------- Iteration      1(   9)  ---------------------------------------


    POTLOK:  cpu time    0.3985: real time    0.4229
    SETDIJ:  cpu time    0.4496: real time    0.4536
    TRIAL :  cpu time   13.6285: real time   13.7046
    CORREC:  cpu time    4.4330: real time    4.5150
    CHARGE:  cpu time    1.4381: real time    1.4386
    --------------------------------------------
      LOOP:  cpu time   20.3674: real time   20.5546

 eigenvalue-minimisations  :     0
 total energy-change (2. order) : 0.2994329E+03  (-0.2190916E+03)
 number of electron     269.9999993 magnetization     -10.8465291
 augmentation part       82.6705727 magnetization      -7.2222921

 Free energy of the ion-electron system (eV)
  ---------------------------------------------------
  alpha Z        PSCENC =       798.38614055
  Ewald energy   TEWEN  =    -12901.57693327
  -Hartree energ DENC   =     -1273.13614873
  -exchange      EXHF   =         0.00000000
  -V(xc)+E(xc)   XCENC  =     -1041.63042836
  PAW double counting   =     19169.39262009   -17749.88474545
  entropy T*S    EENTRO =         0.02839063
  eigenvalues    EBANDS =       195.98002273
  atomic energy  EATOM  =     12697.67401269
  ---------------------------------------------------
  free energy    TOTEN  =      -104.75109905 eV

  energy without entropy =     -104.77948968  energy(sigma->0) =     -104.76056259


--------------------------------------------------------------------------------------------------------




--------------------------------------- Iteration      1(  10)  ---------------------------------------


    POTLOK:  cpu time    0.3934: real time    0.3934
    SETDIJ:  cpu time    0.5237: real time    0.5237
    TRIAL :  cpu time   13.5855: real time   13.7818
    CORREC:  cpu time    5.2110: real time    5.2842
    CHARGE:  cpu time    1.4463: real time    1.4774
    --------------------------------------------
      LOOP:  cpu time   21.1630: real time   21.4643

 eigenvalue-minimisations  :     0
 total energy-change (2. order) :-0.2137683E+03  (-0.1203766E+02)
 number of electron     269.9999993 magnetization     -11.0913760
 augmentation part       86.6937913 magnetization      -7.5047351

 Free energy of the ion-electron system (eV)
  ---------------------------------------------------
  alpha Z        PSCENC =       798.38614055
  Ewald energy   TEWEN  =    -12901.57693327
  -Hartree energ DENC   =     -2115.06239118
  -exchange      EXHF   =         0.00000000
  -V(xc)+E(xc)   XCENC  =     -1012.30977660
  PAW double counting   =     20650.41831779   -19413.42366195
  entropy T*S    EENTRO =         0.02076033
  eigenvalues    EBANDS =       977.34650186
  atomic energy  EATOM  =     12697.67401269
  ---------------------------------------------------
  free energy    TOTEN  =      -318.51939948 eV

  energy without entropy =     -318.54015981  energy(sigma->0) =     -318.52631959


--------------------------------------------------------------------------------------------------------




--------------------------------------- Iteration      1(  11)  ---------------------------------------


    POTLOK:  cpu time    0.3942: real time    0.3943
    SETDIJ:  cpu time    0.4845: real time    0.4845
    TRIAL :  cpu time   14.1976: real time   14.3294
    CORREC:  cpu time    4.4939: real time    4.5248
    CHARGE:  cpu time    1.4324: real time    1.4325
    --------------------------------------------
      LOOP:  cpu time   21.0071: real time   21.1701

 eigenvalue-minimisations  :     0
 total energy-change (2. order) :-0.1148626E+02  (-0.1124503E+02)
 number of electron     269.9999993 magnetization     -11.0867571
 augmentation part       89.0409739 magnetization      -7.7312276

 Free energy of the ion-electron system (eV)
  ---------------------------------------------------
  alpha Z        PSCENC =       798.38614055
  Ewald energy   TEWEN  =    -12901.57693327
  -Hartree energ DENC   =     -2354.42154177
  -exchange      EXHF   =         0.00000000
  -V(xc)+E(xc)   XCENC  =     -1003.47875381
  PAW double counting   =     21582.15288818   -20384.98538280
  entropy T*S    EENTRO =         0.02307217
  eigenvalues    EBANDS =      1236.22314991
  atomic energy  EATOM  =     12697.67401269
  ---------------------------------------------------
  free energy    TOTEN  =      -330.00566000 eV

  energy without entropy =     -330.02873217  energy(sigma->0) =     -330.01335072


--------------------------------------------------------------------------------------------------------




--------------------------------------- Iteration      1(  12)  ---------------------------------------


    POTLOK:  cpu time    0.4241: real time    0.4396
    SETDIJ:  cpu time    0.4540: real time    0.4540
    TRIAL :  cpu time   13.5656: real time   13.6994
    CORREC:  cpu time    4.5191: real time    4.5442
    CHARGE:  cpu time    1.4436: real time    1.4439
    --------------------------------------------
      LOOP:  cpu time   20.4116: real time   20.5891

 eigenvalue-minimisations  :     0
 total energy-change (2. order) :-0.1129924E+02  (-0.1154188E+02)
 number of electron     269.9999993 magnetization     -11.3403109
 augmentation part       86.7498843 magnetization      -7.8539719

 Free energy of the ion-electron system (eV)
  ---------------------------------------------------
  alpha Z        PSCENC =       798.38614055
  Ewald energy   TEWEN  =    -12901.57693327
  -Hartree energ DENC   =     -2552.76626951
  -exchange      EXHF   =         0.00000000
  -V(xc)+E(xc)   XCENC  =      -996.75795025
  PAW double counting   =     21824.90815185   -20637.34280452
  entropy T*S    EENTRO =        -0.00222930
  eigenvalues    EBANDS =      1426.14768345
  atomic energy  EATOM  =     12697.67401269
  ---------------------------------------------------
  free energy    TOTEN  =      -341.30489685 eV

  energy without entropy =     -341.30266755  energy(sigma->0) =     -341.30415375


--------------------------------------------------------------------------------------------------------




--------------------------------------- Iteration      1(  13)  ---------------------------------------


    POTLOK:  cpu time    0.3962: real time    0.4065
    SETDIJ:  cpu time    0.4412: real time    0.4816
    TRIAL :  cpu time   14.4150: real time   14.6370
    CORREC:  cpu time    4.5798: real time    4.5944
    CHARGE:  cpu time    1.7377: real time    1.7597
    --------------------------------------------
      LOOP:  cpu time   21.5732: real time   21.8835

 eigenvalue-minimisations  :     0
 total energy-change (2. order) :-0.1141218E+02  (-0.8965854E+00)
 number of electron     269.9999993 magnetization     -11.5224599
 augmentation part       86.1522057 magnetization      -7.8471294

 Free energy of the ion-electron system (eV)
  ---------------------------------------------------
  alpha Z        PSCENC =       798.38614055
  Ewald energy   TEWEN  =    -12901.57693327
  -Hartree energ DENC   =     -2516.89124260
  -exchange      EXHF   =         0.00000000
  -V(xc)+E(xc)   XCENC  =      -998.92238772
  PAW double counting   =     21289.71752749   -20051.55041438
  entropy T*S    EENTRO =        -0.00836790
  eigenvalues    EBANDS =      1330.44844941
  atomic energy  EATOM  =     12697.67401269
  ---------------------------------------------------
  free energy    TOTEN  =      -352.71707712 eV

  energy without entropy =     -352.70870922  energy(sigma->0) =     -352.71428782


--------------------------------------------------------------------------------------------------------




--------------------------------------- Iteration      1(  14)  ---------------------------------------


    POTLOK:  cpu time    0.3928: real time    0.3928
    SETDIJ:  cpu time    0.4729: real time    0.4729
    TRIAL :  cpu time   13.5730: real time   13.7089
    CORREC:  cpu time    4.5123: real time    4.5185
    CHARGE:  cpu time    1.4703: real time    1.4704
    --------------------------------------------
      LOOP:  cpu time   21.1478: real time   21.2933

 eigenvalue-minimisations  :     0
 total energy-change (2. order) :-0.8935369E+00  (-0.1236134E+01)
 number of electron     269.9999993 magnetization     -11.4603211
 augmentation part       85.9088575 magnetization      -7.7453838

 Free energy of the ion-electron system (eV)
  ---------------------------------------------------
  alpha Z        PSCENC =       798.38614055
  Ewald energy   TEWEN  =    -12901.57693327
  -Hartree energ DENC   =     -2483.41983193
  -exchange      EXHF   =         0.00000000
  -V(xc)+E(xc)   XCENC  =     -1000.20563194
  PAW double counting   =     20876.54089673   -19628.41437664
  entropy T*S    EENTRO =        -0.01076504
  eigenvalues    EBANDS =      1287.41347772
  atomic energy  EATOM  =     12697.67401269
  ---------------------------------------------------
  free energy    TOTEN  =      -353.61061399 eV

  energy without entropy =     -353.59984895  energy(sigma->0) =     -353.60702564


--------------------------------------------------------------------------------------------------------




--------------------------------------- Iteration      1(  15)  ---------------------------------------


    POTLOK:  cpu time    0.3925: real time    0.3931
    SETDIJ:  cpu time    0.4492: real time    0.4564
    TRIAL :  cpu time   13.6221: real time   13.7740
    CORREC:  cpu time    4.5249: real time    4.5512
    CHARGE:  cpu time    1.4163: real time    1.4354
    --------------------------------------------
      LOOP:  cpu time   20.4175: real time   20.6243

 eigenvalue-minimisations  :     0
 total energy-change (2. order) :-0.1231601E+01  (-0.6212134E+00)
 number of electron     269.9999992 magnetization     -11.4114254
 augmentation part       86.7289433 magnetization      -7.7548438

 Free energy of the ion-electron system (eV)
  ---------------------------------------------------
  alpha Z        PSCENC =       798.38614055
  Ewald energy   TEWEN  =    -12901.57693327
  -Hartree energ DENC   =     -2457.52654403
  -exchange      EXHF   =         0.00000000
  -V(xc)+E(xc)   XCENC  =     -1001.28758888
  PAW double counting   =     20063.61905413   -18807.03139568
  entropy T*S    EENTRO =        -0.01485090
  eigenvalues    EBANDS =      1252.91180464
  atomic energy  EATOM  =     12697.67401269
  ---------------------------------------------------
  free energy    TOTEN  =      -354.84221489 eV

  energy without entropy =     -354.82736400  energy(sigma->0) =     -354.83726459


--------------------------------------------------------------------------------------------------------




--------------------------------------- Iteration      1(  16)  ---------------------------------------


    POTLOK:  cpu time    0.3892: real time    0.3943
    SETDIJ:  cpu time    0.4560: real time    0.4560
    TRIAL :  cpu time   14.4215: real time   14.6330
    CORREC:  cpu time    5.2500: real time    5.3005
    CHARGE:  cpu time    1.4370: real time    1.4375
    --------------------------------------------
      LOOP:  cpu time   21.9567: real time   22.2257

 eigenvalue-minimisations  :     0
 total energy-change (2. order) :-0.6241913E+00  (-0.2335836E+00)
 number of electron     269.9999992 magnetization     -11.5137732
 augmentation part       87.1962651 magnetization      -7.8142148

 Free energy of the ion-electron system (eV)
  ---------------------------------------------------
  alpha Z        PSCENC =       798.38614055
  Ewald energy   TEWEN  =    -12901.57693327
  -Hartree energ DENC   =     -2490.88682281
  -exchange      EXHF   =         0.00000000
  -V(xc)+E(xc)   XCENC  =     -1000.07224463
  PAW double counting   =     19711.35485044   -18461.22275858
  entropy T*S    EENTRO =        -0.01608396
  eigenvalues    EBANDS =      1290.89220029
  atomic energy  EATOM  =     12697.67401269
  ---------------------------------------------------
  free energy    TOTEN  =      -355.46640622 eV

  energy without entropy =     -355.45032226  energy(sigma->0) =     -355.46104490


--------------------------------------------------------------------------------------------------------




--------------------------------------- Iteration      1(  17)  ---------------------------------------


    POTLOK:  cpu time    0.3924: real time    0.3924
    SETDIJ:  cpu time    0.4576: real time    0.4576
    TRIAL :  cpu time   13.7054: real time   13.8209
    CORREC:  cpu time    4.5186: real time    4.5295
    CHARGE:  cpu time    1.4309: real time    1.4370
    --------------------------------------------
      LOOP:  cpu time   20.5073: real time   20.6407

 eigenvalue-minimisations  :     0
 total energy-change (2. order) :-0.2343300E+00  (-0.3605168E+00)
 number of electron     269.9999992 magnetization     -11.4694762
 augmentation part       87.2355042 magnetization      -7.8940150

 Free energy of the ion-electron system (eV)
  ---------------------------------------------------
  alpha Z        PSCENC =       798.38614055
  Ewald energy   TEWEN  =    -12901.57693327
  -Hartree energ DENC   =     -2511.54655681
  -exchange      EXHF   =         0.00000000
  -V(xc)+E(xc)   XCENC  =      -999.19719763
  PAW double counting   =     19609.97647291   -18364.37000691
  entropy T*S    EENTRO =        -0.01785765
  eigenvalues    EBANDS =      1314.96941624
  atomic energy  EATOM  =     12697.67401269
  ---------------------------------------------------
  free energy    TOTEN  =      -355.70073619 eV

  energy without entropy =     -355.68287854  energy(sigma->0) =     -355.69478364


--------------------------------------------------------------------------------------------------------




--------------------------------------- Iteration      1(  18)  ---------------------------------------


    POTLOK:  cpu time    0.3940: real time    0.3942
    SETDIJ:  cpu time    0.4748: real time    0.4748
    TRIAL :  cpu time   13.5938: real time   13.7476
    CORREC:  cpu time    4.5276: real time    4.5761
    CHARGE:  cpu time    1.4326: real time    1.4580
    --------------------------------------------
      LOOP:  cpu time   20.4280: real time   20.6563

 eigenvalue-minimisations  :     0
 total energy-change (2. order) :-0.3606602E+00  (-0.9493594E-01)
 number of electron     269.9999992 magnetization     -11.4887057
 augmentation part       87.0333973 magnetization      -7.9287175

 Free energy of the ion-electron system (eV)
  ---------------------------------------------------
  alpha Z        PSCENC =       798.38614055
  Ewald energy   TEWEN  =    -12901.57693327
  -Hartree energ DENC   =     -2508.86720486
  -exchange      EXHF   =         0.00000000
  -V(xc)+E(xc)   XCENC  =      -998.86628569
  PAW double counting   =     19481.09142903   -18235.65396365
  entropy T*S    EENTRO =        -0.01885022
  eigenvalues    EBANDS =      1311.76926649
  atomic energy  EATOM  =     12697.67401269
  ---------------------------------------------------
  free energy    TOTEN  =      -356.06139636 eV

  energy without entropy =     -356.04254615  energy(sigma->0) =     -356.05511296


--------------------------------------------------------------------------------------------------------




--------------------------------------- Iteration      1(  19)  ---------------------------------------


    POTLOK:  cpu time    0.3928: real time    0.3929
    SETDIJ:  cpu time    0.4759: real time    0.4759
    TRIAL :  cpu time   15.0843: real time   15.2802
    CORREC:  cpu time    4.5224: real time    4.5425
    CHARGE:  cpu time    1.4299: real time    1.4389
    --------------------------------------------
      LOOP:  cpu time   21.9064: real time   22.1343

 eigenvalue-minimisations  :     0
 total energy-change (2. order) :-0.9464301E-01  (-0.8082909E-01)
 number of electron     269.9999992 magnetization     -11.5167382
 augmentation part       86.7885314 magnetization      -7.9605210

 Free energy of the ion-electron system (eV)
  ---------------------------------------------------
  alpha Z        PSCENC =       798.38614055
  Ewald energy   TEWEN  =    -12901.57693327
  -Hartree energ DENC   =     -2498.03843161
  -exchange      EXHF   =         0.00000000
  -V(xc)+E(xc)   XCENC  =      -999.12316021
  PAW double counting   =     19447.37493680   -18199.79956459
  entropy T*S    EENTRO =        -0.01892455
  eigenvalues    EBANDS =      1298.96581048
  atomic energy  EATOM  =     12697.67401269
  ---------------------------------------------------
  free energy    TOTEN  =      -356.15603938 eV

  energy without entropy =     -356.13711483  energy(sigma->0) =     -356.14973119


--------------------------------------------------------------------------------------------------------




--------------------------------------- Iteration      1(  20)  ---------------------------------------


    POTLOK:  cpu time    0.3875: real time    0.4451
    SETDIJ:  cpu time    0.4491: real time    0.4496
    TRIAL :  cpu time   13.6204: real time   13.6594
    CORREC:  cpu time    4.4930: real time    4.5506
    CHARGE:  cpu time    1.4250: real time    1.4253
    --------------------------------------------
      LOOP:  cpu time   20.4016: real time   20.5571

 eigenvalue-minimisations  :     0
 total energy-change (2. order) :-0.8076684E-01  (-0.1108931E+00)
 number of electron     269.9999992 magnetization     -11.5287936
 augmentation part       86.7451361 magnetization      -8.0118080

 Free energy of the ion-electron system (eV)
  ---------------------------------------------------
  alpha Z        PSCENC =       798.38614055
  Ewald energy   TEWEN  =    -12901.57693327
  -Hartree energ DENC   =     -2487.22759012
  -exchange      EXHF   =         0.00000000
  -V(xc)+E(xc)   XCENC  =      -999.40186450
  PAW double counting   =     19427.17449914   -18177.19105169
  entropy T*S    EENTRO =        -0.01977430
  eigenvalues    EBANDS =      1285.94490554
  atomic energy  EATOM  =     12697.67401269
  ---------------------------------------------------
  free energy    TOTEN  =      -356.23680621 eV

  energy without entropy =     -356.21703191  energy(sigma->0) =     -356.23021478


--------------------------------------------------------------------------------------------------------




--------------------------------------- Iteration      1(  21)  ---------------------------------------


    POTLOK:  cpu time    0.3926: real time    0.3925
    SETDIJ:  cpu time    0.4738: real time    0.4739
    TRIAL :  cpu time   13.6333: real time   13.7611
    CORREC:  cpu time    4.4476: real time    4.5625
    CHARGE:  cpu time    1.4094: real time    1.4555
    --------------------------------------------
      LOOP:  cpu time   20.3595: real time   20.6500

 eigenvalue-minimisations  :     0
 total energy-change (2. order) :-0.1108890E+00  (-0.5876284E-01)
 number of electron     269.9999992 magnetization     -11.5620143
 augmentation part       86.9477388 magnetization      -8.0515654

 Free energy of the ion-electron system (eV)
  ---------------------------------------------------
  alpha Z        PSCENC =       798.38614055
  Ewald energy   TEWEN  =    -12901.57693327
  -Hartree energ DENC   =     -2489.44652607
  -exchange      EXHF   =         0.00000000
  -V(xc)+E(xc)   XCENC  =      -999.18026034
  PAW double counting   =     19441.30075639   -18191.50122473
  entropy T*S    EENTRO =        -0.02012315
  eigenvalues    EBANDS =      1288.01611387
  atomic energy  EATOM  =     12697.67401269
  ---------------------------------------------------
  free energy    TOTEN  =      -356.34769521 eV

  energy without entropy =     -356.32757207  energy(sigma->0) =     -356.34098750


--------------------------------------------------------------------------------------------------------




--------------------------------------- Iteration      1(  22)  ---------------------------------------


    POTLOK:  cpu time    0.3927: real time    0.3928
    SETDIJ:  cpu time    0.4756: real time    0.4756
    TRIAL :  cpu time   14.6178: real time   14.7213
    CORREC:  cpu time    4.5285: real time    4.6003
    CHARGE:  cpu time    1.4383: real time    1.4385
    --------------------------------------------
      LOOP:  cpu time   21.4723: real time   21.6484

 eigenvalue-minimisations  :     0
 total energy-change (2. order) :-0.5887727E-01  (-0.2627130E-01)
 number of electron     269.9999992 magnetization     -11.5875826
 augmentation part       86.9888373 magnetization      -8.0666605

 Free energy of the ion-electron system (eV)
  ---------------------------------------------------
  alpha Z        PSCENC =       798.38614055
  Ewald energy   TEWEN  =    -12901.57693327
  -Hartree energ DENC   =     -2502.63343030
  -exchange      EXHF   =         0.00000000
  -V(xc)+E(xc)   XCENC  =      -998.63292499
  PAW double counting   =     19472.26540928   -18225.07381290
  entropy T*S    EENTRO =        -0.01982629
  eigenvalues    EBANDS =      1303.20508961
  atomic energy  EATOM  =     12697.67401269
  ---------------------------------------------------
  free energy    TOTEN  =      -356.40657249 eV

  energy without entropy =     -356.38674620  energy(sigma->0) =     -356.39996373


--------------------------------------------------------------------------------------------------------




--------------------------------------- Iteration      1(  23)  ---------------------------------------


    POTLOK:  cpu time    0.3936: real time    0.3936
    SETDIJ:  cpu time    0.4726: real time    0.4727
    TRIAL :  cpu time   13.6365: real time   13.6855
    CORREC:  cpu time    4.4644: real time    4.5193
    CHARGE:  cpu time    1.4200: real time    1.4620
    --------------------------------------------
      LOOP:  cpu time   20.3907: real time   20.5375

 eigenvalue-minimisations  :     0
 total energy-change (2. order) :-0.2627226E-01  (-0.3305103E-01)
 number of electron     269.9999992 magnetization     -11.6316448
 augmentation part       86.9510793 magnetization      -8.0891136

 Free energy of the ion-electron system (eV)
  ---------------------------------------------------
  alpha Z        PSCENC =       798.38614055
  Ewald energy   TEWEN  =    -12901.57693327
  -Hartree energ DENC   =     -2505.27969529
  -exchange      EXHF   =         0.00000000
  -V(xc)+E(xc)   XCENC  =      -998.48740421
  PAW double counting   =     19477.31855050   -18230.57469726
  entropy T*S    EENTRO =        -0.01963774
  eigenvalues    EBANDS =      1306.12700783
  atomic energy  EATOM  =     12697.67401269
  ---------------------------------------------------
  free energy    TOTEN  =      -356.43284475 eV

  energy without entropy =     -356.41320701  energy(sigma->0) =     -356.42629884


--------------------------------------------------------------------------------------------------------




--------------------------------------- Iteration      1(  24)  ---------------------------------------


    POTLOK:  cpu time    0.3933: real time    0.3934
    SETDIJ:  cpu time    0.4849: real time    0.4849
    TRIAL :  cpu time   13.5934: real time   13.7722
    CORREC:  cpu time    4.4681: real time    4.5250
    CHARGE:  cpu time    2.3560: real time    2.4172
    --------------------------------------------
      LOOP:  cpu time   21.2972: real time   21.5961

 eigenvalue-minimisations  :     0
 total energy-change (2. order) :-0.3309334E-01  (-0.3061262E-01)
[...]
   45       -0.021  -0.021  -2.384  -2.426
   46        0.016   0.015   2.306   2.337
   47       -0.016  -0.023  -2.370  -2.409
   48       -0.010  -0.009  -2.327  -2.346
   49        0.015   0.019   2.295   2.329
   50       -0.018  -0.019  -2.383  -2.420
   51       -0.021  -0.021  -2.384  -2.426
   52        0.014   0.019   2.288   2.321
   53       -0.018  -0.018  -2.380  -2.417
   54       -0.021  -0.021  -2.379  -2.420
--------------------------------------------------
tot          0.016   0.064 -11.971 -11.892
 
    FORLOC:  cpu time    0.0583: real time    0.0583
    FORNL :  cpu time   22.0442: real time   22.4566
    STRESS:  cpu time   31.1215: real time   31.9638
    FORCOR:  cpu time    0.4417: real time    0.4552
    OFIELD:  cpu time    0.0023: real time    0.0023

  FORCE on cell =-STRESS in cart. coord.  units (eV):
  Direction    XX          YY          ZZ          XY          YZ          ZX
  --------------------------------------------------------------------------------------
  Alpha Z   798.38614   798.38614   798.38614
  Ewald   -4053.61603 -4053.61603 -4794.40593    -0.00000    -0.00000    -0.00000
  Hartree  1084.01997  1085.33711   332.00555    -0.00000    -0.00000    -0.00000
  E(xc)   -1141.61685 -1141.86460 -1139.72268    -0.00000    -0.00000     0.00000
  Local     369.49072   366.33714  1906.89617     0.00000     0.00000     0.00000
  n-local  -170.18297  -170.64837  -175.51083     0.38572    -0.26370    -0.27534
  augment   784.47314   785.48591   767.04286     0.00000     0.00001     0.00001
  Kinetic  2334.89174  2337.30693  2307.52782    -2.53625    -1.53434    -1.36536
  Fock        0.00000     0.00000     0.00000     0.00000     0.00000     0.00000
  -------------------------------------------------------------------------------------
  Total       5.84587     6.72424     2.21909     0.00000     0.00000     0.00000
  in kB      13.19336    15.17573     5.00820     0.00000     0.00000     0.00000
  external pressure =       11.13 kB  Pullay stress =        0.00 kB


 VOLUME and BASIS-vectors are now :
 -----------------------------------------------------------------------------
  energy-cutoff  :      404.80
  volume of cell :      709.91
      direct lattice vectors                 reciprocal lattice vectors
     8.250148166  0.000000000  0.000000000     0.121209944  0.000000000  0.000000000
     0.000000000  8.250148166  0.000000000     0.000000000  0.121209944  0.000000000
     0.000000000  0.000000000 10.429911392     0.000000000  0.000000000  0.095878092

  length of vectors
     8.250148166  8.250148166 10.429911392     0.121209944  0.121209944  0.095878092


 FORCES acting on ions:
    Electron-Ion                     Ewald-Force                    Non-Local-Force
 -----------------------------------------------------------------------------------------------
   -.101E+00 0.134E+00 0.124E+00   -.239E-08 -.239E-08 -.210E-08   0.817E-01 -.643E-01 -.415E-01
   -.172E-03 0.109E-01 -.576E-01   -.239E-08 -.239E-08 0.171E-08   0.974E-02 -.922E-02 0.198E-01
   -.226E-01 0.595E-01 -.297E-01   -.239E-08 -.239E-08 0.861E-08   -.166E-01 0.234E-01 -.156E-02
   -.101E+00 -.134E+00 0.124E+00   -.239E-08 -.802E-09 -.210E-08   0.817E-01 0.643E-01 -.415E-01
   -.172E-03 -.109E-01 -.576E-01   -.239E-08 -.802E-09 0.171E-08   0.974E-02 0.922E-02 0.198E-01
   -.226E-01 -.595E-01 -.297E-01   -.239E-08 -.802E-09 0.861E-08   -.166E-01 -.234E-01 -.156E-02
   -.720E-01 -.328E-08 0.507E-01   -.239E-08 0.631E-08 -.210E-08   0.166E+00 0.000E+00 0.999E-02
   -.911E-02 -.329E-08 0.393E-01   -.239E-08 0.631E-08 0.171E-08   0.100E-01 0.000E+00 -.213E-01
   0.826E-01 -.328E-08 -.145E-01   -.239E-08 0.631E-08 0.861E-08   -.556E-01 0.000E+00 -.522E-01
   0.101E+00 0.134E+00 0.124E+00   -.802E-09 -.239E-08 -.210E-08   -.817E-01 -.643E-01 -.415E-01
   0.172E-03 0.109E-01 -.576E-01   -.802E-09 -.239E-08 0.171E-08   -.974E-02 -.922E-02 0.198E-01
   0.226E-01 0.595E-01 -.297E-01   -.803E-09 -.239E-08 0.861E-08   0.166E-01 0.234E-01 -.156E-02
   0.101E+00 -.134E+00 0.124E+00   -.802E-09 -.802E-09 -.210E-08   -.817E-01 0.643E-01 -.415E-01
   0.172E-03 -.109E-01 -.576E-01   -.802E-09 -.802E-09 0.171E-08   -.974E-02 0.922E-02 0.198E-01
   0.226E-01 -.595E-01 -.297E-01   -.803E-09 -.802E-09 0.861E-08   0.166E-01 -.234E-01 -.156E-02
   0.720E-01 -.328E-08 0.507E-01   -.802E-09 0.631E-08 -.210E-08   -.166E+00 0.217E-18 0.999E-02
   0.911E-02 -.329E-08 0.393E-01   -.802E-09 0.631E-08 0.171E-08   -.100E-01 0.000E+00 -.213E-01
   -.826E-01 -.328E-08 -.145E-01   -.803E-09 0.631E-08 0.861E-08   0.556E-01 0.000E+00 -.522E-01
   -.329E-08 -.264E-01 0.616E-01   0.631E-08 -.239E-08 -.210E-08   0.000E+00 0.149E-01 -.658E-01
   -.329E-08 0.542E-02 -.114E+00   0.631E-08 -.239E-08 0.171E-08   0.000E+00 -.594E-02 0.646E-01
   -.328E-08 -.197E-01 -.167E-01   0.631E-08 -.239E-08 0.861E-08   0.136E-19 -.805E-02 0.634E-01
   -.329E-08 0.264E-01 0.616E-01   0.631E-08 -.802E-09 -.210E-08   0.000E+00 -.149E-01 -.658E-01
   -.329E-08 -.542E-02 -.114E+00   0.631E-08 -.802E-09 0.171E-08   0.136E-19 0.594E-02 0.646E-01
   -.328E-08 0.197E-01 -.167E-01   0.631E-08 -.802E-09 0.861E-08   0.000E+00 0.805E-02 0.634E-01
   -.328E-08 -.330E-08 0.414E-01   0.631E-08 0.631E-08 -.210E-08   0.000E+00 0.000E+00 -.178E-01
   -.329E-08 -.330E-08 -.182E+00   0.631E-08 0.631E-08 0.171E-08   0.000E+00 0.000E+00 0.753E-01
   -.327E-08 -.329E-08 -.627E-02   0.631E-08 0.631E-08 0.861E-08   0.000E+00 0.000E+00 0.405E-01
   0.488E-08 0.483E-08 0.293E+00   -.169E-07 -.169E-07 -.180E-07   0.000E+00 0.000E+00 -.356E+00
   0.483E-08 0.484E-08 0.807E-01   -.169E-07 -.169E-07 -.170E-08   0.000E+00 0.000E+00 -.114E+00
   0.488E-08 0.474E-08 -.157E+00   -.169E-07 -.169E-07 0.115E-07   0.000E+00 0.000E+00 0.110E+00
   0.483E-08 -.973E-02 -.210E+00   -.169E-07 0.802E-09 -.180E-07   0.108E-18 -.356E-01 0.346E+00
   0.485E-08 0.999E-01 -.167E+00   -.169E-07 0.802E-09 -.170E-08   0.000E+00 -.224E-01 0.126E+00
   0.478E-08 0.553E+00 0.239E+00   -.169E-07 0.802E-09 0.115E-07   0.000E+00 -.237E+00 -.214E+00
   0.483E-08 0.973E-02 -.210E+00   -.169E-07 0.130E-07 -.180E-07   0.000E+00 0.356E-01 0.346E+00
   0.485E-08 -.999E-01 -.167E+00   -.169E-07 0.130E-07 -.170E-08   0.000E+00 0.224E-01 0.126E+00
   0.478E-08 -.553E+00 0.239E+00   -.169E-07 0.130E-07 0.115E-07   0.000E+00 0.237E+00 -.214E+00
   -.601E-01 0.484E-08 -.337E-01   0.802E-09 -.169E-07 -.180E-07   0.212E-01 -.217E-18 0.322E-01
   -.744E-01 0.483E-08 -.452E-01   0.802E-09 -.169E-07 -.170E-08   0.126E+00 0.000E+00 -.272E-01
   -.214E+00 0.486E-08 0.180E-01   0.802E-09 -.169E-07 0.115E-07   0.218E+00 -.867E-18 0.599E-01
   0.498E-01 0.304E-01 0.119E+00   0.802E-09 0.802E-09 -.180E-07   -.105E-01 0.518E-03 -.121E+00
   -.424E-01 0.137E-01 0.348E-01   0.802E-09 0.802E-09 -.170E-08   0.260E-01 -.351E-01 -.100E+00
   0.272E+00 -.273E-01 -.619E-01   0.802E-09 0.802E-09 0.115E-07   -.970E-01 0.609E-02 0.965E-01
   0.498E-01 -.304E-01 0.119E+00   0.802E-09 0.130E-07 -.180E-07   -.105E-01 -.518E-03 -.121E+00
   -.424E-01 -.137E-01 0.348E-01   0.802E-09 0.130E-07 -.170E-08   0.260E-01 0.351E-01 -.100E+00
   0.272E+00 0.273E-01 -.619E-01   0.802E-09 0.130E-07 0.115E-07   -.970E-01 -.609E-02 0.965E-01
   0.601E-01 0.483E-08 -.337E-01   0.130E-07 -.169E-07 -.180E-07   -.212E-01 0.000E+00 0.322E-01
   0.744E-01 0.483E-08 -.452E-01   0.130E-07 -.169E-07 -.170E-08   -.126E+00 0.000E+00 -.272E-01
   0.214E+00 0.486E-08 0.180E-01   0.130E-07 -.169E-07 0.115E-07   -.218E+00 0.867E-18 0.599E-01
   -.498E-01 0.304E-01 0.119E+00   0.130E-07 0.802E-09 -.180E-07   0.105E-01 0.518E-03 -.121E+00
   0.424E-01 0.137E-01 0.348E-01   0.130E-07 0.802E-09 -.170E-08   -.260E-01 -.351E-01 -.100E+00
   -.272E+00 -.273E-01 -.619E-01   0.130E-07 0.802E-09 0.115E-07   0.970E-01 0.609E-02 0.965E-01
   -.498E-01 -.304E-01 0.119E+00   0.130E-07 0.130E-07 -.180E-07   0.105E-01 -.518E-03 -.121E+00
   0.424E-01 -.137E-01 0.348E-01   0.130E-07 0.130E-07 -.170E-08   -.260E-01 0.351E-01 -.100E+00
   -.272E+00 0.273E-01 -.619E-01   0.130E-07 0.130E-07 0.115E-07   0.970E-01 -.609E-02 0.965E-01
 -----------------------------------------------------------------------------------------------
   -.405E-07 -.406E-07 0.212E+00   -.614E-13 -.142E-13 0.128E-13   0.833E-16 0.173E-17 -.212E+00
 
 
 POSITION                                       TOTAL-FORCE (eV/Angst)
 -----------------------------------------------------------------------------------
      0.00000      0.00000      0.00000        -0.026261      0.075154      0.085753
      0.00000      0.00000      3.47664         0.008841      0.002554     -0.039824
      0.00000      0.00000      6.95327        -0.037298      0.080545     -0.029836
      0.00000      2.75005      0.00000        -0.026261     -0.075154      0.085753
      0.00000      2.75005      3.47664         0.008841     -0.002554     -0.039824
      0.00000      2.75005      6.95327        -0.037298     -0.080545     -0.029836
      0.00000      5.50010      0.00000         0.079730      0.000000      0.058503
      0.00000      5.50010      3.47664         0.000094      0.000000      0.020538
      0.00000      5.50010      6.95327         0.032398      0.000000     -0.060706
      2.75005      0.00000      0.00000         0.026261      0.075154      0.085753
      2.75005      0.00000      3.47664        -0.008841      0.002554     -0.039824
      2.75005      0.00000      6.95327         0.037298      0.080545     -0.029836
      2.75005      2.75005      0.00000         0.026261     -0.075154      0.085753
      2.75005      2.75005      3.47664        -0.008841     -0.002554     -0.039824
      2.75005      2.75005      6.95327         0.037298     -0.080545     -0.029836
      2.75005      5.50010      0.00000        -0.079730      0.000000      0.058503
      2.75005      5.50010      3.47664        -0.000094      0.000000      0.020538
      2.75005      5.50010      6.95327        -0.032398      0.000000     -0.060706
      5.50010      0.00000      0.00000        -0.000000     -0.013144      0.001252
      5.50010      0.00000      3.47664        -0.000000     -0.000108     -0.055247
      5.50010      0.00000      6.95327        -0.000000     -0.027431      0.041685
      5.50010      2.75005      0.00000        -0.000000      0.013144      0.001252
      5.50010      2.75005      3.47664        -0.000000      0.000108     -0.055247
      5.50010      2.75005      6.95327        -0.000000      0.027431      0.041685
      5.50010      5.50010      0.00000        -0.000000      0.000000      0.024444
      5.50010      5.50010      3.47664        -0.000000      0.000000     -0.114947
      5.50010      5.50010      6.95327        -0.000000      0.000000      0.031312
      1.37502      1.37502      1.73832        -0.000000      0.000000     -0.055576
      1.37502      1.37502      5.21496        -0.000000      0.000000     -0.026194
      1.37502      1.37502      8.69159        -0.000000      0.000000     -0.050204
      1.37502      4.12507      1.73832        -0.000000     -0.043377      0.127135
      1.37502      4.12507      5.21496        -0.000000      0.077176     -0.041505
      1.37502      4.12507      8.69159        -0.000000      0.324315      0.030097
      1.37502      6.87512      1.73832        -0.000000      0.043377      0.127135
      1.37502      6.87512      5.21496        -0.000000     -0.077176     -0.041505
      1.37502      6.87512      8.69159        -0.000000     -0.324315      0.030097
      4.12507      1.37502      1.73832        -0.039496      0.000000     -0.004709
      4.12507      1.37502      5.21496         0.050348      0.000000     -0.064698
      4.12507      1.37502      8.69159         0.001068      0.000000      0.070276
      4.12507      4.12507      1.73832         0.038910      0.031101     -0.001526
      4.12507      4.12507      5.21496        -0.014176     -0.021169     -0.056863
      4.12507      4.12507      8.69159         0.178014     -0.021802      0.028777
      4.12507      6.87512      1.73832         0.038910     -0.031101     -0.001526
      4.12507      6.87512      5.21496        -0.014176      0.021169     -0.056863
      4.12507      6.87512      8.69159         0.178014      0.021802      0.028777
      6.87512      1.37502      1.73832         0.039496      0.000000     -0.004709
      6.87512      1.37502      5.21496        -0.050348      0.000000     -0.064698
      6.87512      1.37502      8.69159        -0.001068      0.000000      0.070276
      6.87512      4.12507      1.73832        -0.038910      0.031101     -0.001526
      6.87512      4.12507      5.21496         0.014176     -0.021169     -0.056863
      6.87512      4.12507      8.69159        -0.178014     -0.021802      0.028777
      6.87512      6.87512      1.73832        -0.038910     -0.031101     -0.001526
      6.87512      6.87512      5.21496         0.014176      0.021169     -0.056863
      6.87512      6.87512      8.69159        -0.178014      0.021802      0.028777
 -----------------------------------------------------------------------------------
    total drift:                               -0.000000     -0.000000      0.000029


--------------------------------------------------------------------------------------------------------



  FREE ENERGIE OF THE ION-ELECTRON SYSTEM (eV)
  ---------------------------------------------------
  free  energy   TOTEN  =      -356.58703993 eV

  energy  without entropy=     -356.57138727  energy(sigma->0) =     -356.58182238
 


--------------------------------------------------------------------------------------------------------


    POTLOK:  cpu time    1.5955: real time    1.6600


--------------------------------------------------------------------------------------------------------


     LOOP+:  cpu time 1811.1376: real time 1843.3241
    4ORBIT:  cpu time    0.0000: real time    0.0000
 


 total charge     
 
# of ion       s       p       d       tot
------------------------------------------
    1        0.405   0.428   0.000   0.833
    2        0.405   0.427   0.000   0.832
    3        0.404   0.430   0.000   0.834
    4        0.405   0.428   0.000   0.834
    5        0.405   0.427   0.000   0.832
    6        0.405   0.430   0.000   0.834
    7        0.405   0.429   0.000   0.834
    8        0.405   0.427   0.000   0.832
    9        0.405   0.429   0.000   0.834
   10        0.405   0.428   0.000   0.833
   11        0.405   0.427   0.000   0.832
   12        0.404   0.430   0.000   0.834
   13        0.405   0.428   0.000   0.834
   14        0.405   0.427   0.000   0.832
   15        0.404   0.429   0.000   0.834
   16        0.405   0.428   0.000   0.834
   17        0.405   0.427   0.000   0.833
   18        0.405   0.429   0.000   0.834
   19        0.405   0.426   0.000   0.831
   20        0.405   0.428   0.000   0.833
   21        0.404   0.428   0.000   0.832
   22        0.405   0.426   0.000   0.831
   23        0.405   0.428   0.000   0.833
   24        0.404   0.428   0.000   0.832
   25        0.405   0.426   0.000   0.831
   26        0.405   0.427   0.000   0.832
   27        0.404   0.427   0.000   0.832
   28        0.334   0.353   5.131   5.819
   29        0.334   0.349   5.138   5.821
   30        0.331   0.358   5.131   5.821
   31        0.335   0.350   5.136   5.820
   32        0.331   0.353   5.129   5.813
   33        0.334   0.355   5.128   5.817
   34        0.335   0.349   5.139   5.823
   35        0.331   0.352   5.143   5.826
   36        0.334   0.355   5.128   5.818
   37        0.335   0.350   5.141   5.826
   38        0.334   0.352   5.137   5.823
   39        0.331   0.353   5.137   5.821
   40        0.334   0.352   5.141   5.826
   41        0.333   0.350   5.141   5.825
   42        0.333   0.354   5.126   5.814
   43        0.334   0.352   5.142   5.827
   44        0.333   0.350   5.145   5.828
   45        0.334   0.355   5.133   5.822
   46        0.335   0.350   5.132   5.817
   47        0.334   0.352   5.131   5.818
   48        0.331   0.353   5.139   5.823
   49        0.333   0.352   5.127   5.813
   50        0.333   0.351   5.130   5.815
   51        0.333   0.355   5.133   5.822
   52        0.334   0.352   5.128   5.813
   53        0.333   0.351   5.130   5.815
   54        0.333   0.355   5.127   5.815
--------------------------------------------------
tot         19.936  21.064 138.626 179.625
 


 magnetization (x)
 
# of ion       s       p       d       tot
------------------------------------------
    1       -0.005  -0.010   0.000  -0.015
    2       -0.000  -0.000   0.000  -0.000
    3        0.017   0.029   0.000   0.046
    4       -0.005  -0.009   0.000  -0.014
    5       -0.000  -0.000   0.000  -0.000
    6        0.017   0.029   0.000   0.045
    7       -0.010  -0.019   0.000  -0.028
    8        0.000  -0.002   0.000  -0.002
    9        0.012   0.020   0.000   0.032
   10       -0.005  -0.011   0.000  -0.016
   11        0.000  -0.000   0.000  -0.000
   12        0.016   0.030   0.000   0.046
   13       -0.005  -0.010   0.000  -0.015
   14        0.000  -0.000   0.000  -0.000
   15        0.017   0.029   0.000   0.046
   16       -0.010  -0.020   0.000  -0.029
   17        0.000  -0.002   0.000  -0.002
   18        0.012   0.021   0.000   0.033
   19       -0.000  -0.002   0.000  -0.002
   20        0.000  -0.001   0.000  -0.001
   21        0.022   0.037   0.000   0.059
   22       -0.000  -0.002   0.000  -0.002
   23        0.000  -0.001   0.000  -0.000
   24        0.022   0.037   0.000   0.059
   25       -0.002  -0.005   0.000  -0.006
   26       -0.000   0.002   0.000   0.002
   27        0.021   0.035   0.000   0.056
   28        0.013   0.023   2.266   2.302
   29       -0.020  -0.015  -2.401  -2.437
   30       -0.030  -0.032  -2.235  -2.297
   31        0.019   0.017   2.366   2.401
   32       -0.013  -0.020  -2.239  -2.272
   33        0.024   0.018   2.406   2.448
   34        0.019   0.017   2.357   2.392
   35       -0.013  -0.020  -2.222  -2.255
   36        0.024   0.018   2.406   2.449
   37        0.016   0.015   2.296   2.327
   38       -0.016  -0.023  -2.362  -2.401
   39       -0.010  -0.009  -2.328  -2.347
   40        0.014   0.019   2.274   2.307
   41       -0.018  -0.019  -2.365  -2.402
   42       -0.021  -0.020  -2.382  -2.424
   43        0.014   0.019   2.271   2.304
   44       -0.018  -0.019  -2.363  -2.400
   45       -0.021  -0.021  -2.384  -2.426
   46        0.016   0.015   2.306   2.337
   47       -0.016  -0.023  -2.370  -2.409
   48       -0.010  -0.009  -2.327  -2.346
   49        0.015   0.019   2.295   2.329
   50       -0.018  -0.019  -2.383  -2.420
   51       -0.021  -0.021  -2.384  -2.426
   52        0.014   0.019   2.288   2.321
   53       -0.018  -0.018  -2.380  -2.417
   54       -0.021  -0.021  -2.379  -2.420
--------------------------------------------------
tot          0.016   0.064 -11.971 -11.892
 

 total amount of memory used by VASP MPI-rank0   815466. kBytes
=======================================================================

   base      :      30000. kBytes
   nonl-proj :      28494. kBytes
   fftplans  :      31580. kBytes
   grid      :      21385. kBytes
   one-center:        435. kBytes
   wavefun   :     703572. kBytes
 
  
  
 General timing and accounting informations for this job:
 ========================================================
  
                  Total CPU time used (sec):     1840.680
                            User time (sec):     1814.868
                          System time (sec):       25.812
                         Elapsed time (sec):     1877.394
  
                   Maximum memory used (kb):      976188.
                   Average memory used (kb):           0.
  
                          Minor page faults:       701798
                          Major page faults:           17
                 Voluntary context switches:         3012
