 vasp.5.4.4.18Apr17-6-g9f103f2a35 (build Dec 20 2018 12:05:58) complex          
  
 executed on             LinuxIFC date 2019.06.20  21:59:50
 running on   32 total cores
 distrk:  each k-point on    8 cores,    4 groups
 distr:  one band on NCORES_PER_BAND=   4 cores,    2 groups


--------------------------------------------------------------------------------------------------------


 INCAR:
 POTCAR:    PAW_PBE Al 04Jan2001                  
 POTCAR:    PAW_PBE Mn 06Sep2000                  

 ----------------------------------------------------------------------------- 
|                                                                             |
|           W    W    AA    RRRRR   N    N  II  N    N   GGGG   !!!           |
|           W    W   A  A   R    R  NN   N  II  NN   N  G    G  !!!           |
|           W    W  A    A  R    R  N N  N  II  N N  N  G       !!!           |
|           W WW W  AAAAAA  RRRRR   N  N N  II  N  N N  G  GGG   !            |
|           WW  WW  A    A  R   R   N   NN  II  N   NN  G    G                |
|           W    W  A    A  R    R  N    N  II  N    N   GGGG   !!!           |
|                                                                             |
|      You have enabled k-point parallelism (KPAR>1).                         |
|      This developmental code was originally  written by Paul Kent at ORNL,  |
|      and carefully double checked in Vienna.                                |
|      GW as well as linear response parallelism added by Martijn Marsman     |
|      and Georg Kresse.                                                      |
|      Carefully verify results versus KPAR=1.                                |
|      Report problems to Paul Kent and Vienna.                               |
|                                                                             |
 ----------------------------------------------------------------------------- 

 POTCAR:    PAW_PBE Al 04Jan2001                  
   VRHFIN =Al: s2p1                                                             
   LEXCH  = PE                                                                  
   EATOM  =    53.5387 eV,    3.9350 Ry                                         
                                                                                
   TITEL  = PAW_PBE Al 04Jan2001                                                
   LULTRA =        F    use ultrasoft PP ?                                      
   IUNSCR =        1    unscreen: 0-lin 1-nonlin 2-no                           
   RPACOR =    1.500    partial core radius                                     
   POMASS =   26.981; ZVAL   =    3.000    mass and valenz                      
   RCORE  =    1.900    outmost cutoff radius                                   
   RWIGS  =    2.650; RWIGS  =    1.402    wigner-seitz radius (au A)           
   ENMAX  =  240.300; ENMIN  =  180.225 eV                                      
   ICORE  =        2    local potential                                         
   LCOR   =        T    correct aug charges                                     
   LPAW   =        T    paw PP                                                  
   EAUG   =  291.052                                                            
   DEXC   =    0.000                                                            
   RMAX   =    1.939    core radius for proj-oper                               
   RAUG   =    1.300    factor for augmentation sphere                          
   RDEP   =    1.966    radius for radial grids                                 
   RDEPT  =    1.856    core radius for aug-charge                              
                                                                                
   Atomic configuration                                                         
    6 entries                                                                   
     n  l   j            E        occ.                                          
     1  0  0.50     -1511.1048   2.0000                                         
     2  0  0.50      -108.1629   2.0000                                         
     2  1  1.50       -69.6402   6.0000                                         
     3  0  0.50        -7.7528   2.0000                                         
     3  1  1.50        -2.7121   1.0000                                         
     3  2  2.50        -2.7212   0.0000                                         
   Description                                                                  
     l       E           TYP  RCUT    TYP  RCUT                                 
     0     -7.7528455     23  1.900                                             
     0     -3.3096929     23  1.900                                             
     1     -2.7120682     23  1.900                                             
     1     13.6058260     23  1.900                                             
     2     -2.7211652      7  1.900                                             
  local pseudopotential read in
  partial core-charges read in
  partial kinetic energy density read in
  atomic valenz-charges read in
  non local Contribution for L=           0  read in
    real space projection operators read in
  non local Contribution for L=           0  read in
    real space projection operators read in
  non local Contribution for L=           1  read in
    real space projection operators read in
  non local Contribution for L=           1  read in
    real space projection operators read in
    PAW grid and wavefunctions read in
 
   number of l-projection  operators is LMAX  =           4
   number of lm-projection operators is LMMAX =           8
 
 POTCAR:    PAW_PBE Mn 06Sep2000                  
   VRHFIN =Mn: d6 s1                                                            
   LEXCH  = PE                                                                  
   EATOM  =   416.7541 eV,   30.6306 Ry                                         
                                                                                
   TITEL  = PAW_PBE Mn 06Sep2000                                                
   LULTRA =        F    use ultrasoft PP ?                                      
   IUNSCR =        1    unscreen: 0-lin 1-nonlin 2-no                           
   RPACOR =    2.000    partial core radius                                     
   POMASS =   54.938; ZVAL   =    7.000    mass and valenz                      
   RCORE  =    2.300    outmost cutoff radius                                   
   RWIGS  =    2.500; RWIGS  =    1.323    wigner-seitz radius (au A)           
   ENMAX  =  269.864; ENMIN  =  202.398 eV                                      
   RCLOC  =    1.725    cutoff for local pot                                    
   LCOR   =        T    correct aug charges                                     
   LPAW   =        T    paw PP                                                  
   EAUG   =  500.711                                                            
   DEXC   =    0.000                                                            
   RMAX   =    2.343    core radius for proj-oper                               
   RAUG   =    1.300    factor for augmentation sphere                          
   RDEP   =    2.338    radius for radial grids                                 
   RDEPT  =    1.911    core radius for aug-charge                              
                                                                                
   Atomic configuration                                                         
    9 entries                                                                   
     n  l   j            E        occ.                                          
     1  0  0.50     -6424.8288   2.0000                                         
     2  0  0.50      -739.1154   2.0000                                         
     2  1  1.50      -625.3949   6.0000                                         
     3  0  0.50       -81.6100   2.0000                                         
     3  1  1.50       -50.4667   6.0000                                         
     3  2  2.50        -3.3745   6.0000                                         
     4  0  0.50        -4.1331   1.0000                                         
     4  1  0.50        -4.0817   0.0000                                         
     4  3  2.50        -1.3606   0.0000                                         
   Description                                                                  
     l       E           TYP  RCUT    TYP  RCUT                                 
     2     -3.3744664     23  2.300                                             
     2     -4.7350490     23  2.300                                             
     0     -4.1331408     23  2.300                                             
     0      7.6656614     23  2.300                                             
     1     -2.7211652     23  2.300                                             
     1     20.4087390     23  2.300                                             
  local pseudopotential read in
  partial core-charges read in
  partial kinetic energy density read in
  atomic valenz-charges read in
  non local Contribution for L=           2  read in
    real space projection operators read in
  non local Contribution for L=           2  read in
    real space projection operators read in
  non local Contribution for L=           0  read in
    real space projection operators read in
  non local Contribution for L=           0  read in
    real space projection operators read in
  non local Contribution for L=           1  read in
    real space projection operators read in
  non local Contribution for L=           1  read in
    real space projection operators read in
    PAW grid and wavefunctions read in
 
   number of l-projection  operators is LMAX  =           6
   number of lm-projection operators is LMMAX =          18
 

 ----------------------------------------------------------------------------- 
|                                                                             |
|  ADVICE TO THIS USER RUNNING 'VASP/VAMP'   (HEAR YOUR MASTER'S VOICE ...):  |
|                                                                             |
|      You have a (more or less) 'large supercell' and for larger cells       |
|      it might be more efficient to use real space projection opertators     |
|      So try LREAL= Auto  in the INCAR   file.                               |
|      Mind:          For very  accurate calculation you might also keep the  |
|      reciprocal projection scheme          (i.e. LREAL=.FALSE.)             |
|                                                                             |
 ----------------------------------------------------------------------------- 

  PAW_PBE Al 04Jan2001                  :
 energy of atom  1       EATOM=  -53.5387
 kinetic energy error for atom=    0.0005 (will be added to EATOM!!)
  PAW_PBE Mn 06Sep2000                  :
 energy of atom  2       EATOM= -416.7541
 kinetic energy error for atom=    0.0080 (will be added to EATOM!!)
 
 
 POSCAR: NewRef: 27, @ ['Mn', array([1.37502469, 
  positions in cartesian coordinates
  velocities in cartesian coordinates
  No initial velocities read in
 exchange correlation table for  LEXCH =        8
   RHO(1)=    0.500       N(1)  =     2000
   RHO(2)=  100.500       N(2)  =     4000
 


--------------------------------------------------------------------------------------------------------


 ion  position               nearest neighbor table
   1  0.000  0.000  0.000-  28 2.61  30 2.61  34 2.61  36 2.61  46 2.61  48 2.61  52 2.61  54 2.61
                             4 2.75  10 2.75   7 2.75  19 2.75
   2  0.000  0.000  0.333-  28 2.61  34 2.61  46 2.61  52 2.61  29 2.61  47 2.61  35 2.61  53 2.61
                             5 2.75  11 2.75   8 2.75  20 2.75
   3  0.000  0.000  0.667-  29 2.61  35 2.61  47 2.61  53 2.61  30 2.61  48 2.61  36 2.61  54 2.61
                             6 2.75  12 2.75   9 2.75  21 2.75
   4  0.000  0.333  0.000-  28 2.61  30 2.61  46 2.61  48 2.61  31 2.61  33 2.61  49 2.61  51 2.61
                            13 2.75   1 2.75   7 2.75  22 2.75
   5  0.000  0.333  0.333-  28 2.61  46 2.61  31 2.61  49 2.61  47 2.61  29 2.61  32 2.61  50 2.61
                            14 2.75   2 2.75   8 2.75  23 2.75
   6  0.000  0.333  0.667-  29 2.61  47 2.61  32 2.61  50 2.61  48 2.61  30 2.61  33 2.61  51 2.61
                            15 2.75   3 2.75   9 2.75  24 2.75
   7  0.000  0.667  0.000-  31 2.61  33 2.61  49 2.61  51 2.61  34 2.61  36 2.61  52 2.61  54 2.61
                             4 2.75  16 2.75   1 2.75  25 2.75
   8  0.000  0.667  0.333-  31 2.61  49 2.61  34 2.61  52 2.61  50 2.61  32 2.61  35 2.61  53 2.61
                             5 2.75  17 2.75   2 2.75  26 2.75
   9  0.000  0.667  0.667-  32 2.61  50 2.61  35 2.61  53 2.61  51 2.61  33 2.61  36 2.61  54 2.61
                             6 2.75  18 2.75   3 2.75  27 2.75
  10  0.333  0.000  0.000-  28 2.61  30 2.61  34 2.61  36 2.61  37 2.61  39 2.61  43 2.61  45 2.61
                            19 2.75   1 2.75  13 2.75  16 2.75
  11  0.333  0.000  0.333-  28 2.61  34 2.61  37 2.61  43 2.61  29 2.61  35 2.61  38 2.61  44 2.61
                            20 2.75   2 2.75  14 2.75  17 2.75
  12  0.333  0.000  0.667-  29 2.61  35 2.61  38 2.61  44 2.61  30 2.61  36 2.61  39 2.61  45 2.61
                            21 2.75   3 2.75  15 2.75  18 2.75
  13  0.333  0.333  0.000-  28 2.61  30 2.61  31 2.61  33 2.61  37 2.61  39 2.61  40 2.61  42 2.61
                             4 2.75  10 2.75  16 2.75  22 2.75
  14  0.333  0.333  0.333-  28 2.61  31 2.61  37 2.61  29 2.61  40 2.61  38 2.61  32 2.61  41 2.61
                             5 2.75  11 2.75  17 2.75  23 2.75
  15  0.333  0.333  0.667-  29 2.61  32 2.61  38 2.61  30 2.61  41 2.61  39 2.61  33 2.61  42 2.61
                             6 2.75  12 2.75  18 2.75  24 2.75
  16  0.333  0.667  0.000-  31 2.61  33 2.61  34 2.61  36 2.61  40 2.61  42 2.61  43 2.61  45 2.61
                            25 2.75   7 2.75  13 2.75  10 2.75
  17  0.333  0.667  0.333-  31 2.61  34 2.61  40 2.61  32 2.61  43 2.61  41 2.61  35 2.61  44 2.61
                            26 2.75   8 2.75  14 2.75  11 2.75
  18  0.333  0.667  0.667-  32 2.61  35 2.61  41 2.61  33 2.61  44 2.61  42 2.61  36 2.61  45 2.61
                            27 2.75   9 2.75  15 2.75  12 2.75
  19  0.667  0.000  0.000-  37 2.61  39 2.61  43 2.61  45 2.61  46 2.61  48 2.61  52 2.61  54 2.61
                            10 2.75  22 2.75   1 2.75  25 2.75
  20  0.667  0.000  0.333-  37 2.61  43 2.61  46 2.61  52 2.61  38 2.61  44 2.61  47 2.61  53 2.61
                            11 2.75  23 2.75   2 2.75  26 2.75
  21  0.667  0.000  0.667-  38 2.61  44 2.61  47 2.61  53 2.61  39 2.61  45 2.61  48 2.61  54 2.61
                            12 2.75  24 2.75   3 2.75  27 2.75
  22  0.667  0.333  0.000-  37 2.61  39 2.61  40 2.61  42 2.61  46 2.61  48 2.61  49 2.61  51 2.61
                            25 2.75  13 2.75  19 2.75   4 2.75
  23  0.667  0.333  0.333-  37 2.61  40 2.61  46 2.61  38 2.61  49 2.61  47 2.61  41 2.61  50 2.61
                            26 2.75  14 2.75  20 2.75   5 2.75
  24  0.667  0.333  0.667-  38 2.61  41 2.61  47 2.61  39 2.61  50 2.61  48 2.61  42 2.61  51 2.61
                            27 2.75  15 2.75  21 2.75   6 2.75
  25  0.667  0.667  0.000-  40 2.61  42 2.61  43 2.61  45 2.61  49 2.61  51 2.61  52 2.61  54 2.61
                            16 2.75  22 2.75  19 2.75   7 2.75
  26  0.667  0.667  0.333-  40 2.61  43 2.61  49 2.61  41 2.61  52 2.61  50 2.61  44 2.61  53 2.61
                            17 2.75  23 2.75  20 2.75   8 2.75
  27  0.667  0.667  0.667-  41 2.61  44 2.61  50 2.61  42 2.61  53 2.61  51 2.61  45 2.61  54 2.61
                            18 2.75  24 2.75  21 2.75   9 2.75
  28  0.167  0.167  0.167-  14 2.61  11 2.61   5 2.61  13 2.61   2 2.61  10 2.61   4 2.61   1 2.61
                            31 2.75  37 2.75  34 2.75  46 2.75
  29  0.167  0.167  0.500-  15 2.61  12 2.61   6 2.61  14 2.61   3 2.61  11 2.61   5 2.61   2 2.61
                            32 2.75  38 2.75  35 2.75  47 2.75
  30  0.167  0.167  0.833-  13 2.61  15 2.61  10 2.61  12 2.61   4 2.61   6 2.61   1 2.61   3 2.61
                            33 2.75  39 2.75  36 2.75  48 2.75
  31  0.167  0.500  0.167-  17 2.61  14 2.61   8 2.61  16 2.61   5 2.61  13 2.61   7 2.61   4 2.61
                            28 2.75  34 2.75  40 2.75  49 2.75
  32  0.167  0.500  0.500-  18 2.61  15 2.61   9 2.61  17 2.61   6 2.61  14 2.61   8 2.61   5 2.61
                            29 2.75  35 2.75  41 2.75  50 2.75
  33  0.167  0.500  0.833-  16 2.61  18 2.61  13 2.61  15 2.61   7 2.61   9 2.61   4 2.61   6 2.61
                            30 2.75  36 2.75  42 2.75  51 2.75
  34  0.167  0.833  0.167-  11 2.61  17 2.61   2 2.61   8 2.61  16 2.61  10 2.61   7 2.61   1 2.61
                            31 2.75  43 2.75  28 2.75  52 2.75
  35  0.167  0.833  0.500-  12 2.61  18 2.61   3 2.61   9 2.61  17 2.61  11 2.61   8 2.61   2 2.61
                            32 2.75  44 2.75  29 2.75  53 2.75
  36  0.167  0.833  0.833-  10 2.61  12 2.61  16 2.61  18 2.61   1 2.61   3 2.61   7 2.61   9 2.61
                            33 2.75  45 2.75  30 2.75  54 2.75
  37  0.500  0.167  0.167-  23 2.61  20 2.61  14 2.61  22 2.61  11 2.61  19 2.61  13 2.61  10 2.61
                            28 2.75  40 2.75  46 2.75  43 2.75
  38  0.500  0.167  0.500-  24 2.61  21 2.61  15 2.61  23 2.61  12 2.61  20 2.61  14 2.61  11 2.61
                            29 2.75  41 2.75  47 2.75  44 2.75
  39  0.500  0.167  0.833-  22 2.61  24 2.61  19 2.61  21 2.61  13 2.61  15 2.61  10 2.61  12 2.61
                            30 2.75  42 2.75  48 2.75  45 2.75
  40  0.500  0.500  0.167-  26 2.61  23 2.61  17 2.61  25 2.61  14 2.61  22 2.61  16 2.61  13 2.61
                            31 2.75  37 2.75  43 2.75  49 2.75
  41  0.500  0.500  0.500-  27 2.61  24 2.61  18 2.61  26 2.61  15 2.61  23 2.61  17 2.61  14 2.61
                            32 2.75  38 2.75  44 2.75  50 2.75
  42  0.500  0.500  0.833-  25 2.61  27 2.61  22 2.61  24 2.61  16 2.61  18 2.61  13 2.61  15 2.61
                            33 2.75  39 2.75  45 2.75  51 2.75
  43  0.500  0.833  0.167-  20 2.61  26 2.61  11 2.61  17 2.61  25 2.61  19 2.61  16 2.61  10 2.61
                            34 2.75  40 2.75  52 2.75  37 2.75
  44  0.500  0.833  0.500-  21 2.61  27 2.61  12 2.61  18 2.61  26 2.61  20 2.61  17 2.61  11 2.61
                            35 2.75  41 2.75  53 2.75  38 2.75
  45  0.500  0.833  0.833-  19 2.61  21 2.61  25 2.61  27 2.61  10 2.61  12 2.61  16 2.61  18 2.61
                            36 2.75  42 2.75  54 2.75  39 2.75
  46  0.833  0.167  0.167-   5 2.61  23 2.61  20 2.61   2 2.61  22 2.61   4 2.61  19 2.61   1 2.61
                            37 2.75  49 2.75  28 2.75  52 2.75
  47  0.833  0.167  0.500-   6 2.61  24 2.61  21 2.61   3 2.61  23 2.61   5 2.61  20 2.61   2 2.61
                            38 2.75  50 2.75  29 2.75  53 2.75
  48  0.833  0.167  0.833-   4 2.61   6 2.61  22 2.61  24 2.61  19 2.61  21 2.61   1 2.61   3 2.61
                            39 2.75  51 2.75  30 2.75  54 2.75
  49  0.833  0.500  0.167-   8 2.61  26 2.61  23 2.61   5 2.61  25 2.61   7 2.61  22 2.61   4 2.61
                            40 2.75  46 2.75  52 2.75  31 2.75
  50  0.833  0.500  0.500-   9 2.61  27 2.61  24 2.61   6 2.61  26 2.61   8 2.61  23 2.61   5 2.61
                            41 2.75  47 2.75  53 2.75  32 2.75
  51  0.833  0.500  0.833-   7 2.61   9 2.61  25 2.61  27 2.61  22 2.61  24 2.61   4 2.61   6 2.61
                            42 2.75  48 2.75  54 2.75  33 2.75
  52  0.833  0.833  0.167-   2 2.61   8 2.61  20 2.61  26 2.61  19 2.61   7 2.61  25 2.61   1 2.61
                            43 2.75  49 2.75  46 2.75  34 2.75
  53  0.833  0.833  0.500-   3 2.61   9 2.61  21 2.61  27 2.61  20 2.61   8 2.61  26 2.61   2 2.61
                            44 2.75  50 2.75  47 2.75  35 2.75
  54  0.833  0.833  0.833-   1 2.61   3 2.61   7 2.61   9 2.61  19 2.61  21 2.61  25 2.61  27 2.61
                            45 2.75  51 2.75  48 2.75  36 2.75
 
  LATTYP: Found a simple tetragonal cell.
 ALAT       =     8.2501481662
 C/A-ratio  =     1.2642089792
  
  Lattice vectors:
  
 A1 = (   8.2501481662,   0.0000000000,   0.0000000000)
 A2 = (   0.0000000000,   8.2501481662,   0.0000000000)
 A3 = (   0.0000000000,   0.0000000000,  10.4299113916)


Analysis of symmetry for initial positions (statically):
=====================================================================
 Subroutine PRICEL returns following result:
 
  LATTYP: Found a simple tetragonal cell.
 ALAT       =     2.7500493888
 C/A-ratio  =     1.2642089792
  
  Lattice vectors:
  
 A1 = (   2.7500493888,   0.0000000000,   0.0000000000)
 A2 = (   0.0000000000,   2.7500493888,   0.0000000000)
 A3 = (   0.0000000000,   0.0000000000,   3.4766371306)
 
  27 primitive cells build up your supercell.
 

 Routine SETGRP: Setting up the symmetry group for a 
 simple tetragonal supercell.


 Subroutine GETGRP returns: Found 16 space group operations
 (whereof 16 operations were pure point group operations)
 out of a pool of 16 trial point group operations.


The static configuration has the point symmetry D_4h.


Analysis of symmetry for dynamics (positions and initial velocities):
=====================================================================
 Subroutine PRICEL returns following result:
 
  LATTYP: Found a simple tetragonal cell.
 ALAT       =     2.7500493888
 C/A-ratio  =     1.2642089792
  
  Lattice vectors:
  
 A1 = (   2.7500493888,   0.0000000000,   0.0000000000)
 A2 = (   0.0000000000,   2.7500493888,   0.0000000000)
 A3 = (   0.0000000000,   0.0000000000,   3.4766371306)
 
  27 primitive cells build up your supercell.
 

 Routine SETGRP: Setting up the symmetry group for a 
 simple tetragonal supercell.


 Subroutine GETGRP returns: Found 16 space group operations
 (whereof 16 operations were pure point group operations)
 out of a pool of 16 trial point group operations.


The dynamic configuration has the point symmetry D_4h.


Analysis of structural, dynamic, and magnetic symmetry:
=====================================================================
 Subroutine PRICEL returns:
 Original cell was already a primitive cell.
 

 Routine SETGRP: Setting up the symmetry group for a 
 simple tetragonal supercell.


 Subroutine GETGRP returns: Found  2 space group operations
 (whereof  2 operations were pure point group operations)
 out of a pool of 16 trial point group operations.


The magnetic configuration has the point symmetry C_1h.


 Subroutine INISYM returns: Found  2 space group operations
 (whereof  2 operations are pure point group operations),
 and found     1 'primitive' translations

 
 
 KPOINTS: automatic KPOINTS                       

Automatic generation of k-mesh.
 generate k-points for:    5    5    4
Space group operators:
 irot       det(A)        alpha          n_x          n_y          n_z        tau_x        tau_y        tau_z
    1     1.000000     0.000001     1.000000     0.000000     0.000000     0.000000     0.000000     0.000000
    2    -1.000000   180.000000     0.707107     0.707107     0.000000     0.000000     0.000000     0.000000
 
 Subroutine IBZKPT returns following result:
 ===========================================
 
 Found     33 irreducible k-points:
 
 Following reciprocal coordinates:
            Coordinates               Weight
  0.000000  0.000000  0.000000      1.000000
  0.200000  0.000000  0.000000      4.000000
  0.400000  0.000000  0.000000      4.000000
  0.200000  0.200000  0.000000      2.000000
  0.400000  0.200000  0.000000      4.000000
 -0.400000  0.200000  0.000000      4.000000
 -0.200000  0.200000  0.000000      2.000000
  0.400000  0.400000  0.000000      2.000000
 -0.400000  0.400000  0.000000      2.000000
  0.000000  0.000000  0.250000      2.000000
  0.200000  0.000000  0.250000      4.000000
  0.400000  0.000000  0.250000      4.000000
 -0.400000  0.000000  0.250000      4.000000
 -0.200000  0.000000  0.250000      4.000000
  0.200000  0.200000  0.250000      4.000000
  0.400000  0.200000  0.250000      4.000000
 -0.400000  0.200000  0.250000      4.000000
 -0.200000  0.200000  0.250000      2.000000
  0.200000  0.400000  0.250000      4.000000
  0.400000  0.400000  0.250000      4.000000
 -0.400000  0.400000  0.250000      2.000000
  0.200000 -0.400000  0.250000      4.000000
  0.400000 -0.400000  0.250000      2.000000
  0.200000 -0.200000  0.250000      2.000000
  0.000000  0.000000  0.500000      1.000000
  0.200000  0.000000  0.500000      4.000000
  0.400000  0.000000  0.500000      4.000000
  0.200000  0.200000  0.500000      2.000000
  0.400000  0.200000  0.500000      4.000000
 -0.400000  0.200000  0.500000      4.000000
 -0.200000  0.200000  0.500000      2.000000
  0.400000  0.400000  0.500000      2.000000
 -0.400000  0.400000  0.500000      2.000000
 
 Following cartesian coordinates:
            Coordinates               Weight
  0.000000  0.000000  0.000000      1.000000
  0.024242  0.000000  0.000000      4.000000
  0.048484  0.000000  0.000000      4.000000
  0.024242  0.024242  0.000000      2.000000
  0.048484  0.024242  0.000000      4.000000
 -0.048484  0.024242  0.000000      4.000000
 -0.024242  0.024242  0.000000      2.000000
  0.048484  0.048484  0.000000      2.000000
 -0.048484  0.048484  0.000000      2.000000
  0.000000  0.000000  0.023970      2.000000
  0.024242  0.000000  0.023970      4.000000
  0.048484  0.000000  0.023970      4.000000
 -0.048484  0.000000  0.023970      4.000000
 -0.024242  0.000000  0.023970      4.000000
  0.024242  0.024242  0.023970      4.000000
  0.048484  0.024242  0.023970      4.000000
 -0.048484  0.024242  0.023970      4.000000
 -0.024242  0.024242  0.023970      2.000000
  0.024242  0.048484  0.023970      4.000000
  0.048484  0.048484  0.023970      4.000000
 -0.048484  0.048484  0.023970      2.000000
  0.024242 -0.048484  0.023970      4.000000
  0.048484 -0.048484  0.023970      2.000000
  0.024242 -0.024242  0.023970      2.000000
  0.000000  0.000000  0.047939      1.000000
  0.024242  0.000000  0.047939      4.000000
  0.048484  0.000000  0.047939      4.000000
  0.024242  0.024242  0.047939      2.000000
  0.048484  0.024242  0.047939      4.000000
 -0.048484  0.024242  0.047939      4.000000
 -0.024242  0.024242  0.047939      2.000000
  0.048484  0.048484  0.047939      2.000000
 -0.048484  0.048484  0.047939      2.000000
 


--------------------------------------------------------------------------------------------------------




 Dimension of arrays:
   k-points           NKPTS =     33   k-points in BZ     NKDIM =     33   number of bands    NBANDS=    178
   number of dos      NEDOS =    301   number of ions     NIONS =     54
   non local maximal  LDIM  =      6   non local SUM 2l+1 LMDIM =     18
   total plane-waves  NPLWV = 204120
   max r-space proj   IRMAX =      1   max aug-charges    IRDMAX=  89713
   dimension x,y,z NGX =    54 NGY =   54 NGZ =   70
   dimension x,y,z NGXF=   108 NGYF=  108 NGZF=  140
   support grid    NGXF=   216 NGYF=  216 NGZF=  280
   ions per type =              27  27
   NGX,Y,Z   is equivalent  to a cutoff of  10.88, 10.88, 11.16 a.u.
   NGXF,Y,Z  is equivalent  to a cutoff of  21.76, 21.76, 22.32 a.u.

 SYSTEM =  AlMn_pv                                 
 POSCAR =  NewRef: 27, @ ['Mn', array([1.37502469, 

 Startparameter for this run:
   NWRITE =      2    write-flag & timer
   PREC   = accura    normal or accurate (medium, high low for compatibility)
   ISTART =      0    job   : 0-new  1-cont  2-samecut
   ICHARG =      2    charge: 1-file 2-atom 10-const
   ISPIN  =      2    spin polarized calculation?
   LNONCOLLINEAR =      F non collinear calculations
   LSORBIT =      F    spin-orbit coupling
   INIWAV =      1    electr: 0-lowe 1-rand  2-diag
   LASPH  =      F    aspherical Exc in radial PAW
   METAGGA=      F    non-selfconsistent MetaGGA calc.

 Electronic Relaxation 1
   ENCUT  =  404.8 eV  29.75 Ry    5.45 a.u.  13.53 13.53 17.11*2*pi/ulx,y,z
   ENINI  =  404.8     initial cutoff
   ENAUG  =  500.7 eV  augmentation charge cutoff
   NELM   =    100;   NELMIN=  4; NELMDL= -8     # of ELM steps 
   EDIFF  = 0.1E-06   stopping-criterion for ELM
   LREAL  =      F    real-space projection
   NLSPLINE    = F    spline interpolate recip. space projectors
   LCOMPAT=      F    compatible to vasp.4.4
   GGA_COMPAT  = T    GGA compatible to vasp.4.4-vasp.4.6
   LMAXPAW     = -100 max onsite density
   LMAXMIX     =    2 max onsite mixed and CHGCAR
   VOSKOWN=      0    Vosko Wilk Nusair interpolation
   ROPT   =    0.00000   0.00000
 Ionic relaxation
   EDIFFG = 0.1E-05   stopping-criterion for IOM
   NSW    =      0    number of steps for IOM
   NBLOCK =      1;   KBLOCK =      1    inner block; outer block 
   IBRION =     -1    ionic relax: 0-MD 1-quasi-New 2-CG
   NFREE  =      0    steps in history (QN), initial steepest desc. (CG)
   ISIF   =      2    stress and relaxation
   IWAVPR =     10    prediction:  0-non 1-charg 2-wave 3-comb
   ISYM   =      2    0-nonsym 1-usesym 2-fastsym
   LCORR  =      T    Harris-Foulkes like correction to forces

   POTIM  = 0.2000    time-step for ionic-motion
   TEIN   =    0.0    initial temperature
   TEBEG  =    0.0;   TEEND  =   0.0 temperature during run
   SMASS  =  -3.00    Nose mass-parameter (am)
   estimated Nose-frequenzy (Omega)   =  0.10E-29 period in steps =****** mass=  -0.156E-26a.u.
   SCALEE = 1.0000    scale energy and forces
   NPACO  =    256;   APACO  = 16.0  distance and # of slots for P.C.
   PSTRESS=    0.0 pullay stress

  Mass of Ions in am
   POMASS =  26.98 54.94
  Ionic Valenz
   ZVAL   =   3.00  7.00
  Atomic Wigner-Seitz radii
   RWIGS  =  -1.00 -1.00
  virtual crystal weights 
   VCA    =   1.00  1.00
   NELECT =     270.0000    total number of electrons
   NUPDOWN=      -1.0000    fix difference up-down

 DOS related values:
   EMIN   =  10.00;   EMAX   =-10.00  energy-range for DOS
   EFERMI =   0.00
   ISMEAR =     1;   SIGMA  =   0.20  broadening in eV -4-tet -1-fermi 0-gaus

 Electronic relaxation 2 (details)
   IALGO  =     58    algorithm
   LDIAG  =      T    sub-space diagonalisation (order eigenvalues)
   LSUBROT=      F    optimize rotation matrix (better conditioning)
   TURBO    =      0    0=normal 1=particle mesh
   IRESTART =      0    0=no restart 2=restart with 2 vectors
   NREBOOT  =      0    no. of reboots
   NMIN     =      0    reboot dimension
   EREF     =   0.00    reference energy to select bands
   IMIX   =      4    mixing-type and parameters
     AMIX     =   0.40;   BMIX     =  1.00
     AMIX_MAG =   1.60;   BMIX_MAG =  1.00
     AMIN     =   0.10
     WC   =   100.;   INIMIX=   1;  MIXPRE=   1;  MAXMIX= -45

 Intra band minimization:
   WEIMIN = 0.0000     energy-eigenvalue tresh-hold
   EBREAK =  0.14E-09  absolut break condition
   DEPER  =   0.30     relativ break condition  

   TIME   =   0.40     timestep for ELM

  volume/ion in A,a.u.               =      13.15        88.72
  Fermi-wavevector in a.u.,A,eV,Ry     =   1.186118  2.241439 19.141722  1.406877
  Thomas-Fermi vector in A             =   2.322298
 
 Write flags
   LWAVE        =      F    write WAVECAR
   LDOWNSAMPLE  =      F    k-point downsampling of WAVECAR
   LCHARG       =      F    write CHGCAR
   LVTOT        =      F    write LOCPOT, total local potential
   LVHAR        =      F    write LOCPOT, Hartree potential only
   LELF         =      F    write electronic localiz. function (ELF)
   LORBIT       =     10    0 simple, 1 ext, 2 COOP (PROOUT), +10 PAW based schemes


 Dipole corrections
   LMONO  =      F    monopole corrections only (constant potential shift)
   LDIPOL =      F    correct potential (dipole corrections)
   IDIPOL =      0    1-x, 2-y, 3-z, 4-all directions 
   EPSILON=  1.0000000 bulk dielectric constant

 Exchange correlation treatment:
   GGA     =    --    GGA type
   LEXCH   =     8    internal setting for exchange type
   VOSKOWN=      0    Vosko Wilk Nusair interpolation
   LHFCALC =     F    Hartree Fock is set to
   LHFONE  =     F    Hartree Fock one center treatment
   AEXX    =    0.0000 exact exchange contribution

 Linear response parameters
   LEPSILON=     F    determine dielectric tensor
   LRPA    =     F    only Hartree local field effects (RPA)
   LNABLA  =     F    use nabla operator in PAW spheres
   LVEL    =     F    velocity operator in full k-point grid
   LINTERFAST=   F  fast interpolation
   KINTER  =     0    interpolate to denser k-point grid
   CSHIFT  =0.1000    complex shift for real part using Kramers Kronig
   OMEGAMAX=  -1.0    maximum frequency
   DEG_THRESHOLD= 0.2000000E-02 threshold for treating states as degnerate
   RTIME   =   -0.100 relaxation time in fs
  (WPLASMAI=    0.000 imaginary part of plasma frequency in eV, 0.658/RTIME)
   DFIELD  = 0.0000000 0.0000000 0.0000000 field for delta impulse in time
 
 Orbital magnetization related:
   ORBITALMAG=     F  switch on orbital magnetization
   LCHIMAG   =     F  perturbation theory with respect to B field
   DQ        =  0.001000  dq finite difference perturbation B field
   LLRAUG    =     F  two centre corrections for induced B field



--------------------------------------------------------------------------------------------------------


 Static calculation
 charge density and potential will be updated during run
 spin polarized calculation
 Conjugate gradient for all bands (Freysoldt, et al. PRB 79, 241103 (2009))
 preconditioned conjugated gradient                                        
 perform sub-space diagonalisation
    before iterative eigenvector-optimisation
 modified Broyden-mixing scheme, WC =      100.0
 initial mixing is a Kerker type mixing with AMIX =  0.4000 and BMIX =      1.0000
 Hartree-type preconditioning will be used
 using additional bands           43
 reciprocal scheme for non local part
 use partial core corrections
 no Harris-corrections to forces 
 use gradient corrections 
 use of overlap-Matrix (Vanderbilt PP)
 Methfessel and Paxton  Order N= 1 SIGMA  =   0.20


--------------------------------------------------------------------------------------------------------


  energy-cutoff  :      404.80
  volume of cell :      709.91
      direct lattice vectors                 reciprocal lattice vectors
     8.250148166  0.000000000  0.000000000     0.121209944  0.000000000  0.000000000
     0.000000000  8.250148166  0.000000000     0.000000000  0.121209944  0.000000000
     0.000000000  0.000000000 10.429911392     0.000000000  0.000000000  0.095878092

  length of vectors
     8.250148166  8.250148166 10.429911392     0.121209944  0.121209944  0.095878092


 
 k-points in units of 2pi/SCALE and weight: automatic KPOINTS                       
   0.00000000  0.00000000  0.00000000       0.010
   0.02424199  0.00000000  0.00000000       0.040
   0.04848398  0.00000000  0.00000000       0.040
   0.02424199  0.02424199  0.00000000       0.020
   0.04848398  0.02424199  0.00000000       0.040
  -0.04848398  0.02424199  0.00000000       0.040
  -0.02424199  0.02424199  0.00000000       0.020
   0.04848398  0.04848398  0.00000000       0.020
  -0.04848398  0.04848398  0.00000000       0.020
   0.00000000  0.00000000  0.02396952       0.020
   0.02424199  0.00000000  0.02396952       0.040
   0.04848398  0.00000000  0.02396952       0.040
  -0.04848398  0.00000000  0.02396952       0.040
  -0.02424199  0.00000000  0.02396952       0.040
   0.02424199  0.02424199  0.02396952       0.040
   0.04848398  0.02424199  0.02396952       0.040
  -0.04848398  0.02424199  0.02396952       0.040
  -0.02424199  0.02424199  0.02396952       0.020
   0.02424199  0.04848398  0.02396952       0.040
   0.04848398  0.04848398  0.02396952       0.040
  -0.04848398  0.04848398  0.02396952       0.020
   0.02424199 -0.04848398  0.02396952       0.040
   0.04848398 -0.04848398  0.02396952       0.020
   0.02424199 -0.02424199  0.02396952       0.020
   0.00000000  0.00000000  0.04793905       0.010
   0.02424199  0.00000000  0.04793905       0.040
   0.04848398  0.00000000  0.04793905       0.040
   0.02424199  0.02424199  0.04793905       0.020
   0.04848398  0.02424199  0.04793905       0.040
  -0.04848398  0.02424199  0.04793905       0.040
  -0.02424199  0.02424199  0.04793905       0.020
   0.04848398  0.04848398  0.04793905       0.020
  -0.04848398  0.04848398  0.04793905       0.020
 
 k-points in reciprocal lattice and weights: automatic KPOINTS                       
   0.00000000  0.00000000  0.00000000       0.010
   0.20000000  0.00000000  0.00000000       0.040
   0.40000000  0.00000000  0.00000000       0.040
   0.20000000  0.20000000  0.00000000       0.020
   0.40000000  0.20000000  0.00000000       0.040
  -0.40000000  0.20000000  0.00000000       0.040
  -0.20000000  0.20000000  0.00000000       0.020
   0.40000000  0.40000000  0.00000000       0.020
  -0.40000000  0.40000000  0.00000000       0.020
   0.00000000  0.00000000  0.25000000       0.020
   0.20000000  0.00000000  0.25000000       0.040
   0.40000000  0.00000000  0.25000000       0.040
  -0.40000000  0.00000000  0.25000000       0.040
  -0.20000000  0.00000000  0.25000000       0.040
   0.20000000  0.20000000  0.25000000       0.040
   0.40000000  0.20000000  0.25000000       0.040
  -0.40000000  0.20000000  0.25000000       0.040
  -0.20000000  0.20000000  0.25000000       0.020
   0.20000000  0.40000000  0.25000000       0.040
   0.40000000  0.40000000  0.25000000       0.040
  -0.40000000  0.40000000  0.25000000       0.020
   0.20000000 -0.40000000  0.25000000       0.040
   0.40000000 -0.40000000  0.25000000       0.020
   0.20000000 -0.20000000  0.25000000       0.020
   0.00000000  0.00000000  0.50000000       0.010
   0.20000000  0.00000000  0.50000000       0.040
   0.40000000  0.00000000  0.50000000       0.040
   0.20000000  0.20000000  0.50000000       0.020
   0.40000000  0.20000000  0.50000000       0.040
  -0.40000000  0.20000000  0.50000000       0.040
  -0.20000000  0.20000000  0.50000000       0.020
   0.40000000  0.40000000  0.50000000       0.020
  -0.40000000  0.40000000  0.50000000       0.020
 
 position of ions in fractional coordinates (direct lattice) 
   0.00000000  0.00000000  0.00000000
   0.00000000  0.00000000  0.33333333
   0.00000000  0.00000000  0.66666667
   0.00000000  0.33333333  0.00000000
   0.00000000  0.33333333  0.33333333
   0.00000000  0.33333333  0.66666667
   0.00000000  0.66666667  0.00000000
   0.00000000  0.66666667  0.33333333
   0.00000000  0.66666667  0.66666667
   0.33333333  0.00000000  0.00000000
   0.33333333  0.00000000  0.33333333
   0.33333333  0.00000000  0.66666667
   0.33333333  0.33333333  0.00000000
   0.33333333  0.33333333  0.33333333
   0.33333333  0.33333333  0.66666667
   0.33333333  0.66666667  0.00000000
   0.33333333  0.66666667  0.33333333
   0.33333333  0.66666667  0.66666667
   0.66666667  0.00000000  0.00000000
   0.66666667  0.00000000  0.33333333
   0.66666667  0.00000000  0.66666667
   0.66666667  0.33333333  0.00000000
   0.66666667  0.33333333  0.33333333
   0.66666667  0.33333333  0.66666667
   0.66666667  0.66666667  0.00000000
   0.66666667  0.66666667  0.33333333
   0.66666667  0.66666667  0.66666667
   0.16666667  0.16666667  0.16666667
   0.16666667  0.16666667  0.50000000
   0.16666667  0.16666667  0.83333333
   0.16666667  0.50000000  0.16666667
   0.16666667  0.50000000  0.50000000
   0.16666667  0.50000000  0.83333333
   0.16666667  0.83333333  0.16666667
   0.16666667  0.83333333  0.50000000
   0.16666667  0.83333333  0.83333333
   0.50000000  0.16666667  0.16666667
   0.50000000  0.16666667  0.50000000
   0.50000000  0.16666667  0.83333333
   0.50000000  0.50000000  0.16666667
   0.50000000  0.50000000  0.50000000
   0.50000000  0.50000000  0.83333333
   0.50000000  0.83333333  0.16666667
   0.50000000  0.83333333  0.50000000
   0.50000000  0.83333333  0.83333333
   0.83333333  0.16666667  0.16666667
   0.83333333  0.16666667  0.50000000
   0.83333333  0.16666667  0.83333333
   0.83333333  0.50000000  0.16666667
   0.83333333  0.50000000  0.50000000
   0.83333333  0.50000000  0.83333333
   0.83333333  0.83333333  0.16666667
   0.83333333  0.83333333  0.50000000
   0.83333333  0.83333333  0.83333333
 
 position of ions in cartesian coordinates  (Angst):
   0.00000000  0.00000000  0.00000000
   0.00000000  0.00000000  3.47663713
   0.00000000  0.00000000  6.95327426
   0.00000000  2.75004939  0.00000000
   0.00000000  2.75004939  3.47663713
   0.00000000  2.75004939  6.95327426
   0.00000000  5.50009878  0.00000000
   0.00000000  5.50009878  3.47663713
   0.00000000  5.50009878  6.95327426
   2.75004939  0.00000000  0.00000000
   2.75004939  0.00000000  3.47663713
   2.75004939  0.00000000  6.95327426
   2.75004939  2.75004939  0.00000000
   2.75004939  2.75004939  3.47663713
   2.75004939  2.75004939  6.95327426
   2.75004939  5.50009878  0.00000000
   2.75004939  5.50009878  3.47663713
   2.75004939  5.50009878  6.95327426
   5.50009878  0.00000000  0.00000000
   5.50009878  0.00000000  3.47663713
   5.50009878  0.00000000  6.95327426
   5.50009878  2.75004939  0.00000000
   5.50009878  2.75004939  3.47663713
   5.50009878  2.75004939  6.95327426
   5.50009878  5.50009878  0.00000000
   5.50009878  5.50009878  3.47663713
   5.50009878  5.50009878  6.95327426
   1.37502469  1.37502469  1.73831857
   1.37502469  1.37502469  5.21495570
   1.37502469  1.37502469  8.69159283
   1.37502469  4.12507408  1.73831857
   1.37502469  4.12507408  5.21495570
   1.37502469  4.12507408  8.69159283
   1.37502469  6.87512347  1.73831857
   1.37502469  6.87512347  5.21495570
   1.37502469  6.87512347  8.69159283
   4.12507408  1.37502469  1.73831857
   4.12507408  1.37502469  5.21495570
   4.12507408  1.37502469  8.69159283
   4.12507408  4.12507408  1.73831857
   4.12507408  4.12507408  5.21495570
   4.12507408  4.12507408  8.69159283
   4.12507408  6.87512347  1.73831857
   4.12507408  6.87512347  5.21495570
   4.12507408  6.87512347  8.69159283
   6.87512347  1.37502469  1.73831857
   6.87512347  1.37502469  5.21495570
   6.87512347  1.37502469  8.69159283
   6.87512347  4.12507408  1.73831857
   6.87512347  4.12507408  5.21495570
   6.87512347  4.12507408  8.69159283
   6.87512347  6.87512347  1.73831857
   6.87512347  6.87512347  5.21495570
   6.87512347  6.87512347  8.69159283
 


--------------------------------------------------------------------------------------------------------


 k-point  1 :   0.0000 0.0000 0.0000  plane waves:   13099
 k-point  2 :   0.2000 0.0000 0.0000  plane waves:   13101
 k-point  3 :   0.4000 0.0000 0.0000  plane waves:   13111
 k-point  4 :   0.2000 0.2000 0.0000  plane waves:   13137
 k-point  5 :   0.4000 0.2000 0.0000  plane waves:   13119
 k-point  6 :  -0.4000 0.2000 0.0000  plane waves:   13119
 k-point  7 :  -0.2000 0.2000 0.0000  plane waves:   13137
 k-point  8 :   0.4000 0.4000 0.0000  plane waves:   13129
 k-point  9 :  -0.4000 0.4000 0.0000  plane waves:   13129
 k-point 10 :   0.0000 0.0000 0.2500  plane waves:   13134
 k-point 11 :   0.2000 0.0000 0.2500  plane waves:   13149
 k-point 12 :   0.4000 0.0000 0.2500  plane waves:   13119
 k-point 13 :  -0.4000 0.0000 0.2500  plane waves:   13119
 k-point 14 :  -0.2000 0.0000 0.2500  plane waves:   13149
 k-point 15 :   0.2000 0.2000 0.2500  plane waves:   13145
 k-point 16 :   0.4000 0.2000 0.2500  plane waves:   13134
 k-point 17 :  -0.4000 0.2000 0.2500  plane waves:   13134
 k-point 18 :  -0.2000 0.2000 0.2500  plane waves:   13145
 k-point 19 :   0.2000 0.4000 0.2500  plane waves:   13134
 k-point 20 :   0.4000 0.4000 0.2500  plane waves:   13108
 k-point 21 :  -0.4000 0.4000 0.2500  plane waves:   13108
 k-point 22 :   0.2000-0.4000 0.2500  plane waves:   13134
 k-point 23 :   0.4000-0.4000 0.2500  plane waves:   13108
 k-point 24 :   0.2000-0.2000 0.2500  plane waves:   13145
 k-point 25 :   0.0000 0.0000 0.5000  plane waves:   13186
 k-point 26 :   0.2000 0.0000 0.5000  plane waves:   13124
 k-point 27 :   0.4000 0.0000 0.5000  plane waves:   13152
 k-point 28 :   0.2000 0.2000 0.5000  plane waves:   13136
 k-point 29 :   0.4000 0.2000 0.5000  plane waves:   13128
 k-point 30 :  -0.4000 0.2000 0.5000  plane waves:   13128
 k-point 31 :  -0.2000 0.2000 0.5000  plane waves:   13136
 k-point 32 :   0.4000 0.4000 0.5000  plane waves:   13112
 k-point 33 :  -0.4000 0.4000 0.5000  plane waves:   13112

 maximum and minimum number of plane-waves per node :      3313     3260

 maximum number of plane-waves:     13186
 maximum index in each direction: 
   IXMAX=   13   IYMAX=   13   IZMAX=   17
   IXMIN=  -13   IYMIN=  -13   IZMIN=  -17


 parallel 3D FFT for wavefunctions:
    minimum data exchange during FFTs selected (reduces bandwidth)
 parallel 3D FFT for charge:
    minimum data exchange during FFTs selected (reduces bandwidth)


 total amount of memory used by VASP MPI-rank0  1097031. kBytes
=======================================================================

   base      :      30000. kBytes
   nonl-proj :      34131. kBytes
   fftplans  :      31580. kBytes
   grid      :      21385. kBytes
   one-center:        435. kBytes
   wavefun   :     979500. kBytes
 
     INWAV:  cpu time    0.0001: real time    0.0001
 Broyden mixing: mesh for mixing (old mesh)
   NGX = 27   NGY = 27   NGZ = 35
  (NGX  =108   NGY  =108   NGZ  =140)
  gives a total of  25515 points

 initial charge density was supplied:
 charge density of overlapping atoms calculated
 number of electron     270.0000000 magnetization      27.0000000
 keeping initial charge density in first step


--------------------------------------------------------------------------------------------------------


 Maximum index for augmentation-charges        10967 (set IRDMAX)


--------------------------------------------------------------------------------------------------------


 First call to EWALD:  gamma=   0.199
 Maximum number of real-space cells 3x 3x 2
 Maximum number of reciprocal cells 3x 3x 3

    FEWALD:  cpu time    0.0065: real time    0.0065


--------------------------------------- Iteration      1(   1)  ---------------------------------------


    POTLOK:  cpu time    0.3971: real time    0.3980
    SETDIJ:  cpu time    0.4532: real time    0.4605
    TRIAL :  cpu time   40.1539: real time   40.6050
    CORREC:  cpu time    0.0070: real time    0.0078
    --------------------------------------------
      LOOP:  cpu time   41.3420: real time   41.8122

 eigenvalue-minimisations  : 23496
 total energy-change (2. order) : 0.2028471E+04  (-0.8919331E+04)
 number of electron     270.0000000 magnetization      27.0000000
 augmentation part      270.0000000 magnetization      27.0000000

 Free energy of the ion-electron system (eV)
  ---------------------------------------------------
  alpha Z        PSCENC =       798.38614055
  Ewald energy   TEWEN  =    -12901.57693327
  -Hartree energ DENC   =     -2855.60785864
  -exchange      EXHF   =         0.00000000
  -V(xc)+E(xc)   XCENC  =      -996.10899489
  PAW double counting   =     12741.82587617   -11476.22345381
  entropy T*S    EENTRO =        -0.00587721
  eigenvalues    EBANDS =      4020.10852879
  atomic energy  EATOM  =     12697.67401269
  ---------------------------------------------------
  free energy    TOTEN  =      2028.47144038 eV

  energy without entropy =     2028.47731758  energy(sigma->0) =     2028.47339945


--------------------------------------------------------------------------------------------------------




--------------------------------------- Iteration      1(   2)  ---------------------------------------


    TRIAL :  cpu time   40.8940: real time   41.2865
    CORREC:  cpu time    0.0087: real time    0.0095
    --------------------------------------------
      LOOP:  cpu time   40.9037: real time   41.2991

 eigenvalue-minimisations  : 23496
 total energy-change (2. order) :-0.2133157E+04  (-0.2068366E+04)
 number of electron     270.0000000 magnetization      27.0000000
 augmentation part      270.0000000 magnetization      27.0000000

 Free energy of the ion-electron system (eV)
  ---------------------------------------------------
  alpha Z        PSCENC =       798.38614055
  Ewald energy   TEWEN  =    -12901.57693327
  -Hartree energ DENC   =     -2855.60785864
  -exchange      EXHF   =         0.00000000
  -V(xc)+E(xc)   XCENC  =      -996.10899489
  PAW double counting   =     12741.82587617   -11476.22345381
  entropy T*S    EENTRO =        -0.00174740
  eigenvalues    EBANDS =      1886.94692005
  atomic energy  EATOM  =     12697.67401269
  ---------------------------------------------------
  free energy    TOTEN  =      -104.68603856 eV

  energy without entropy =     -104.68429116  energy(sigma->0) =     -104.68545609


--------------------------------------------------------------------------------------------------------




--------------------------------------- Iteration      1(   3)  ---------------------------------------


    TRIAL :  cpu time   55.8710: real time   56.3871
    CORREC:  cpu time    0.0100: real time    0.0108
    --------------------------------------------
      LOOP:  cpu time   55.8821: real time   56.4013

 eigenvalue-minimisations  : 35130
 total energy-change (2. order) :-0.2549262E+03  (-0.2226366E+03)
 number of electron     270.0000000 magnetization      27.0000000
 augmentation part      270.0000000 magnetization      27.0000000

 Free energy of the ion-electron system (eV)
  ---------------------------------------------------
  alpha Z        PSCENC =       798.38614055
  Ewald energy   TEWEN  =    -12901.57693327
  -Hartree energ DENC   =     -2855.60785864
  -exchange      EXHF   =         0.00000000
  -V(xc)+E(xc)   XCENC  =      -996.10899489
  PAW double counting   =     12741.82587617   -11476.22345381
  entropy T*S    EENTRO =         0.00273850
  eigenvalues    EBANDS =      1632.01622754
  atomic energy  EATOM  =     12697.67401269
  ---------------------------------------------------
  free energy    TOTEN  =      -359.61224517 eV

  energy without entropy =     -359.61498367  energy(sigma->0) =     -359.61315800


--------------------------------------------------------------------------------------------------------




--------------------------------------- Iteration      1(   4)  ---------------------------------------


    TRIAL :  cpu time   60.0656: real time   60.5662
    CORREC:  cpu time    0.0106: real time    0.0115
    --------------------------------------------
      LOOP:  cpu time   60.0773: real time   60.5812

 eigenvalue-minimisations  : 38184
 total energy-change (2. order) :-0.4039636E+02  (-0.3515303E+02)
 number of electron     270.0000000 magnetization      27.0000000
 augmentation part      270.0000000 magnetization      27.0000000

 Free energy of the ion-electron system (eV)
  ---------------------------------------------------
  alpha Z        PSCENC =       798.38614055
  Ewald energy   TEWEN  =    -12901.57693327
  -Hartree energ DENC   =     -2855.60785864
  -exchange      EXHF   =         0.00000000
  -V(xc)+E(xc)   XCENC  =      -996.10899489
  PAW double counting   =     12741.82587617   -11476.22345381
  entropy T*S    EENTRO =         0.00325462
  eigenvalues    EBANDS =      1591.61935423
  atomic energy  EATOM  =     12697.67401269
  ---------------------------------------------------
  free energy    TOTEN  =      -400.00860236 eV

  energy without entropy =     -400.01185698  energy(sigma->0) =     -400.00968723


--------------------------------------------------------------------------------------------------------




--------------------------------------- Iteration      1(   5)  ---------------------------------------


    TRIAL :  cpu time   60.1552: real time   60.6432
    CORREC:  cpu time    0.0106: real time    0.0114
    --------------------------------------------
      LOOP:  cpu time   60.1821: real time   60.6733

 eigenvalue-minimisations  : 38408
 total energy-change (2. order) :-0.3823843E+01  (-0.3643516E+01)
 number of electron     270.0000000 magnetization      27.0000000
 augmentation part      270.0000000 magnetization      27.0000000

 Free energy of the ion-electron system (eV)
  ---------------------------------------------------
  alpha Z        PSCENC =       798.38614055
  Ewald energy   TEWEN  =    -12901.57693327
  -Hartree energ DENC   =     -2855.60785864
  -exchange      EXHF   =         0.00000000
  -V(xc)+E(xc)   XCENC  =      -996.10899489
  PAW double counting   =     12741.82587617   -11476.22345381
  entropy T*S    EENTRO =         0.00567562
  eigenvalues    EBANDS =      1587.79309006
  atomic energy  EATOM  =     12697.67401269
  ---------------------------------------------------
  free energy    TOTEN  =      -403.83244553 eV

  energy without entropy =     -403.83812115  energy(sigma->0) =     -403.83433740


--------------------------------------------------------------------------------------------------------




--------------------------------------- Iteration      1(   6)  ---------------------------------------


    TRIAL :  cpu time   59.4793: real time   60.6446
    CORREC:  cpu time    0.0108: real time    0.0116
    --------------------------------------------
      LOOP:  cpu time   59.4918: real time   60.6596

 eigenvalue-minimisations  : 38440
 total energy-change (2. order) :-0.3205889E+00  (-0.3147728E+00)
 number of electron     270.0000000 magnetization      27.0000000
 augmentation part      270.0000000 magnetization      27.0000000

 Free energy of the ion-electron system (eV)
  ---------------------------------------------------
  alpha Z        PSCENC =       798.38614055
  Ewald energy   TEWEN  =    -12901.57693327
  -Hartree energ DENC   =     -2855.60785864
  -exchange      EXHF   =         0.00000000
  -V(xc)+E(xc)   XCENC  =      -996.10899489
  PAW double counting   =     12741.82587617   -11476.22345381
  entropy T*S    EENTRO =         0.00618625
  eigenvalues    EBANDS =      1587.47199050
  atomic energy  EATOM  =     12697.67401269
  ---------------------------------------------------
  free energy    TOTEN  =      -404.15303446 eV

  energy without entropy =     -404.15922071  energy(sigma->0) =     -404.15509655


--------------------------------------------------------------------------------------------------------




--------------------------------------- Iteration      1(   7)  ---------------------------------------


    TRIAL :  cpu time   60.4576: real time   61.5956
    CORREC:  cpu time    0.0109: real time    0.0117
    --------------------------------------------
      LOOP:  cpu time   60.4695: real time   61.6107

 eigenvalue-minimisations  : 39096
 total energy-change (2. order) :-0.3493108E-01  (-0.3465819E-01)
 number of electron     270.0000000 magnetization      27.0000000
 augmentation part      270.0000000 magnetization      27.0000000

 Free energy of the ion-electron system (eV)
  ---------------------------------------------------
  alpha Z        PSCENC =       798.38614055
  Ewald energy   TEWEN  =    -12901.57693327
  -Hartree energ DENC   =     -2855.60785864
  -exchange      EXHF   =         0.00000000
  -V(xc)+E(xc)   XCENC  =      -996.10899489
  PAW double counting   =     12741.82587617   -11476.22345381
  entropy T*S    EENTRO =         0.00621789
  eigenvalues    EBANDS =      1587.43702778
  atomic energy  EATOM  =     12697.67401269
  ---------------------------------------------------
  free energy    TOTEN  =      -404.18796554 eV

  energy without entropy =     -404.19418343  energy(sigma->0) =     -404.19003817


--------------------------------------------------------------------------------------------------------




--------------------------------------- Iteration      1(   8)  ---------------------------------------


    TRIAL :  cpu time   58.7627: real time   59.8795
    CORREC:  cpu time    0.0110: real time    0.0118
    CHARGE:  cpu time    1.8445: real time    1.8900
    --------------------------------------------
      LOOP:  cpu time   60.6194: real time   61.7849

 eigenvalue-minimisations  : 37832
 total energy-change (2. order) :-0.2744034E-02  (-0.2731996E-02)
 number of electron     269.9999995 magnetization      19.4445875
 augmentation part       64.2266014 magnetization      11.2047219

 Free energy of the ion-electron system (eV)
  ---------------------------------------------------
  alpha Z        PSCENC =       798.38614055
  Ewald energy   TEWEN  =    -12901.57693327
  -Hartree energ DENC   =     -2855.60785864
  -exchange      EXHF   =         0.00000000
  -V(xc)+E(xc)   XCENC  =      -996.10899489
  PAW double counting   =     12741.82587617   -11476.22345381
  entropy T*S    EENTRO =         0.00623146
  eigenvalues    EBANDS =      1587.43427017
  atomic energy  EATOM  =     12697.67401269
  ---------------------------------------------------
  free energy    TOTEN  =      -404.19070958 eV

  energy without entropy =     -404.19694103  energy(sigma->0) =     -404.19278673


--------------------------------------------------------------------------------------------------------




--------------------------------------- Iteration      1(   9)  ---------------------------------------


    POTLOK:  cpu time    0.3982: real time    0.3982
    SETDIJ:  cpu time    0.4834: real time    0.4834
    TRIAL :  cpu time   20.5240: real time   20.6820
    CORREC:  cpu time    6.8895: real time    6.9030
    CHARGE:  cpu time    1.8272: real time    1.8270
    --------------------------------------------
      LOOP:  cpu time   30.1419: real time   30.3135

 eigenvalue-minimisations  :     0
 total energy-change (2. order) : 0.2997357E+03  (-0.2166175E+03)
 number of electron     269.9999993 magnetization      20.5247840
 augmentation part       82.5521150 magnetization      13.4797803

 Free energy of the ion-electron system (eV)
  ---------------------------------------------------
  alpha Z        PSCENC =       798.38614055
  Ewald energy   TEWEN  =    -12901.57693327
  -Hartree energ DENC   =     -1274.77027421
  -exchange      EXHF   =         0.00000000
  -V(xc)+E(xc)   XCENC  =     -1041.49170869
  PAW double counting   =     19173.04387821   -17753.74420064
  entropy T*S    EENTRO =         0.01870150
  eigenvalues    EBANDS =       198.01779925
  atomic energy  EATOM  =     12697.67401269
  ---------------------------------------------------
  free energy    TOTEN  =      -104.45505466 eV

  energy without entropy =     -104.47375616  energy(sigma->0) =     -104.46128850


--------------------------------------------------------------------------------------------------------




--------------------------------------- Iteration      1(  10)  ---------------------------------------


    POTLOK:  cpu time    0.3927: real time    0.3997
    SETDIJ:  cpu time    0.9736: real time    1.0049
    TRIAL :  cpu time   20.8093: real time   20.9645
    CORREC:  cpu time    6.1673: real time    6.1946
    CHARGE:  cpu time    1.8511: real time    1.8695
    --------------------------------------------
      LOOP:  cpu time   30.2001: real time   30.4403

 eigenvalue-minimisations  :     0
 total energy-change (2. order) :-0.2142637E+03  (-0.1262625E+02)
 number of electron     269.9999993 magnetization      20.9003452
 augmentation part       86.8502225 magnetization      14.1258939

 Free energy of the ion-electron system (eV)
  ---------------------------------------------------
  alpha Z        PSCENC =       798.38614055
  Ewald energy   TEWEN  =    -12901.57693327
  -Hartree energ DENC   =     -2110.84155680
  -exchange      EXHF   =         0.00000000
  -V(xc)+E(xc)   XCENC  =     -1012.14826450
  PAW double counting   =     20681.35466175   -19443.86759102
  entropy T*S    EENTRO =         0.01068116
  eigenvalues    EBANDS =       972.28210185
  atomic energy  EATOM  =     12697.67401269
  ---------------------------------------------------
  free energy    TOTEN  =      -318.71872726 eV

  energy without entropy =     -318.72940842  energy(sigma->0) =     -318.72228765


--------------------------------------------------------------------------------------------------------




--------------------------------------- Iteration      1(  11)  ---------------------------------------


    POTLOK:  cpu time    0.3920: real time    0.3919
    SETDIJ:  cpu time    0.4711: real time    0.4711
    TRIAL :  cpu time   20.5186: real time   20.6418
    CORREC:  cpu time    6.6978: real time    6.7098
    CHARGE:  cpu time    1.8221: real time    1.8339
    --------------------------------------------
      LOOP:  cpu time   29.9052: real time   30.0536

 eigenvalue-minimisations  :     0
 total energy-change (2. order) :-0.1218360E+02  (-0.1006179E+02)
 number of electron     269.9999992 magnetization      21.3664996
 augmentation part       88.8463076 magnetization      14.6381325

 Free energy of the ion-electron system (eV)
  ---------------------------------------------------
  alpha Z        PSCENC =       798.38614055
  Ewald energy   TEWEN  =    -12901.57693327
  -Hartree energ DENC   =     -2368.48578220
  -exchange      EXHF   =         0.00000000
  -V(xc)+E(xc)   XCENC  =     -1002.83198156
  PAW double counting   =     21667.53708846   -20472.34730429
  entropy T*S    EENTRO =        -0.01146893
  eigenvalues    EBANDS =      1250.73175022
  atomic energy  EATOM  =     12697.67401269
  ---------------------------------------------------
  free energy    TOTEN  =      -330.90232825 eV

  energy without entropy =     -330.89085931  energy(sigma->0) =     -330.89850527


--------------------------------------------------------------------------------------------------------




--------------------------------------- Iteration      1(  12)  ---------------------------------------


    POTLOK:  cpu time    0.3880: real time    0.4043
    SETDIJ:  cpu time    1.2346: real time    1.2350
    TRIAL :  cpu time   20.4783: real time   20.6853
    CORREC:  cpu time    6.1547: real time    6.1851
    CHARGE:  cpu time    1.8315: real time    1.8409
    --------------------------------------------
      LOOP:  cpu time   30.0885: real time   30.3528

 eigenvalue-minimisations  :     0
 total energy-change (2. order) :-0.1026137E+02  (-0.1113725E+02)
 number of electron     269.9999993 magnetization      21.3217995
 augmentation part       87.2063375 magnetization      14.6816091

 Free energy of the ion-electron system (eV)
  ---------------------------------------------------
  alpha Z        PSCENC =       798.38614055
  Ewald energy   TEWEN  =    -12901.57693327
  -Hartree energ DENC   =     -2541.59388997
  -exchange      EXHF   =         0.00000000
  -V(xc)+E(xc)   XCENC  =      -997.13556340
  PAW double counting   =     21793.48163533   -20604.93813827
  entropy T*S    EENTRO =        -0.03001716
  eigenvalues    EBANDS =      1414.55050290
  atomic energy  EATOM  =     12697.67401269
  ---------------------------------------------------
  free energy    TOTEN  =      -341.16370237 eV

  energy without entropy =     -341.13368521  energy(sigma->0) =     -341.15369665


--------------------------------------------------------------------------------------------------------




--------------------------------------- Iteration      1(  13)  ---------------------------------------


    POTLOK:  cpu time    0.3921: real time    0.3921
    SETDIJ:  cpu time    0.4764: real time    0.4764
    TRIAL :  cpu time   20.5369: real time   20.6246
    CORREC:  cpu time    6.7549: real time    6.7710
    CHARGE:  cpu time    1.8187: real time    1.8479
    --------------------------------------------
      LOOP:  cpu time   29.9858: real time   30.1196

 eigenvalue-minimisations  :     0
 total energy-change (2. order) :-0.1113127E+02  (-0.1287585E+01)
 number of electron     269.9999993 magnetization      21.4427225
 augmentation part       86.5147709 magnetization      14.7170531

 Free energy of the ion-electron system (eV)
  ---------------------------------------------------
  alpha Z        PSCENC =       798.38614055
  Ewald energy   TEWEN  =    -12901.57693327
  -Hartree energ DENC   =     -2541.91818202
  -exchange      EXHF   =         0.00000000
  -V(xc)+E(xc)   XCENC  =      -998.00910456
  PAW double counting   =     21255.68230292   -20023.03627727
  entropy T*S    EENTRO =        -0.03596162
  eigenvalues    EBANDS =      1360.53308595
  atomic energy  EATOM  =     12697.67401269
  ---------------------------------------------------
  free energy    TOTEN  =      -352.29497218 eV

  energy without entropy =     -352.25901056  energy(sigma->0) =     -352.28298497


--------------------------------------------------------------------------------------------------------




--------------------------------------- Iteration      1(  14)  ---------------------------------------


    POTLOK:  cpu time    1.0873: real time    1.0878
    SETDIJ:  cpu time    0.4485: real time    0.4485
    TRIAL :  cpu time   20.4903: real time   20.6855
    CORREC:  cpu time    6.1399: real time    6.1824
    CHARGE:  cpu time    1.8254: real time    1.8252
    --------------------------------------------
      LOOP:  cpu time   30.2207: real time   30.4597

 eigenvalue-minimisations  :     0
 total energy-change (2. order) :-0.1158438E+01  (-0.1068180E+01)
 number of electron     269.9999993 magnetization      21.4523678
 augmentation part       85.8527801 magnetization      14.5814136

 Free energy of the ion-electron system (eV)
  ---------------------------------------------------
  alpha Z        PSCENC =       798.38614055
  Ewald energy   TEWEN  =    -12901.57693327
  -Hartree energ DENC   =     -2510.53971223
  -exchange      EXHF   =         0.00000000
  -V(xc)+E(xc)   XCENC  =      -999.16078440
  PAW double counting   =     21024.79200442   -19780.77176165
  entropy T*S    EENTRO =        -0.03756630
  eigenvalues    EBANDS =      1317.77958493
  atomic energy  EATOM  =     12697.67401269
  ---------------------------------------------------
  free energy    TOTEN  =      -353.45341058 eV

  energy without entropy =     -353.41584429  energy(sigma->0) =     -353.44088848


--------------------------------------------------------------------------------------------------------




--------------------------------------- Iteration      1(  15)  ---------------------------------------


    POTLOK:  cpu time    0.3919: real time    0.3919
    SETDIJ:  cpu time    0.4539: real time    0.4631
    TRIAL :  cpu time   20.9225: real time   21.0472
    CORREC:  cpu time    6.1544: real time    6.1747
    CHARGE:  cpu time    2.7787: real time    2.7989
    --------------------------------------------
      LOOP:  cpu time   30.7072: real time   30.8817

 eigenvalue-minimisations  :     0
 total energy-change (2. order) :-0.1068176E+01  (-0.8985460E+00)
 number of electron     269.9999992 magnetization      21.5284712
 augmentation part       86.4654648 magnetization      14.6289327

 Free energy of the ion-electron system (eV)
  ---------------------------------------------------
  alpha Z        PSCENC =       798.38614055
  Ewald energy   TEWEN  =    -12901.57693327
  -Hartree energ DENC   =     -2467.47696313
  -exchange      EXHF   =         0.00000000
  -V(xc)+E(xc)   XCENC  =     -1000.68155589
  PAW double counting   =     20398.26371446   -19142.18821003
  entropy T*S    EENTRO =        -0.04114260
  eigenvalues    EBANDS =      1263.11577432
  atomic energy  EATOM  =     12697.67401269
  ---------------------------------------------------
  free energy    TOTEN  =      -354.52158659 eV

  energy without entropy =     -354.48044399  energy(sigma->0) =     -354.50787239


--------------------------------------------------------------------------------------------------------




--------------------------------------- Iteration      1(  16)  ---------------------------------------


    POTLOK:  cpu time    0.3907: real time    0.3911
    SETDIJ:  cpu time    0.5118: real time    0.5133
    TRIAL :  cpu time   20.5420: real time   20.7286
    CORREC:  cpu time    6.1834: real time    6.2334
    CHARGE:  cpu time    1.8322: real time    1.8322
    --------------------------------------------
      LOOP:  cpu time   29.4627: real time   29.7021

 eigenvalue-minimisations  :     0
 total energy-change (2. order) :-0.8982378E+00  (-0.3337821E+00)
 number of electron     269.9999992 magnetization      21.4645883
 augmentation part       86.9304180 magnetization      14.6194374

 Free energy of the ion-electron system (eV)
  ---------------------------------------------------
  alpha Z        PSCENC =       798.38614055
  Ewald energy   TEWEN  =    -12901.57693327
  -Hartree energ DENC   =     -2485.36486270
  -exchange      EXHF   =         0.00000000
  -V(xc)+E(xc)   XCENC  =      -999.86228869
  PAW double counting   =     19864.94621520   -18612.20239689
  entropy T*S    EENTRO =        -0.04210901
  eigenvalues    EBANDS =      1282.62143127
  atomic energy  EATOM  =     12697.67401269
  ---------------------------------------------------
  free energy    TOTEN  =      -355.41982444 eV

  energy without entropy =     -355.37771542  energy(sigma->0) =     -355.40578810


--------------------------------------------------------------------------------------------------------




--------------------------------------- Iteration      1(  17)  ---------------------------------------


    POTLOK:  cpu time    0.3880: real time    0.3954
    SETDIJ:  cpu time    0.4575: real time    0.4575
    TRIAL :  cpu time   20.9200: real time   21.0334
    CORREC:  cpu time    6.1571: real time    6.1695
    CHARGE:  cpu time    2.4604: real time    2.4810
    --------------------------------------------
      LOOP:  cpu time   30.3849: real time   30.5388

 eigenvalue-minimisations  :     0
 total energy-change (2. order) :-0.3369044E+00  (-0.1780593E+00)
 number of electron     269.9999992 magnetization      21.5442401
 augmentation part       87.1926649 magnetization      14.7158163

 Free energy of the ion-electron system (eV)
  ---------------------------------------------------
  alpha Z        PSCENC =       798.38614055
  Ewald energy   TEWEN  =    -12901.57693327
  -Hartree energ DENC   =     -2503.32828000
  -exchange      EXHF   =         0.00000000
  -V(xc)+E(xc)   XCENC  =      -999.08566012
  PAW double counting   =     19694.10148827   -18445.42733442
  entropy T*S    EENTRO =        -0.04302599
  eigenvalues    EBANDS =      1303.54194646
  atomic energy  EATOM  =     12697.67401269
  ---------------------------------------------------
  free energy    TOTEN  =      -355.75672886 eV

  energy without entropy =     -355.71370287  energy(sigma->0) =     -355.74238686


--------------------------------------------------------------------------------------------------------




--------------------------------------- Iteration      1(  18)  ---------------------------------------


    POTLOK:  cpu time    0.3916: real time    0.3916
    SETDIJ:  cpu time    0.4845: real time    0.4845
    TRIAL :  cpu time   20.5124: real time   20.7220
    CORREC:  cpu time    6.1862: real time    6.2605
    CHARGE:  cpu time    1.8206: real time    1.8309
    --------------------------------------------
      LOOP:  cpu time   29.4011: real time   29.6956

 eigenvalue-minimisations  :     0
 total energy-change (2. order) :-0.1782200E+00  (-0.2299177E+00)
 number of electron     269.9999992 magnetization      21.4536736
 augmentation part       87.2297061 magnetization      14.7870718

 Free energy of the ion-electron system (eV)
  ---------------------------------------------------
  alpha Z        PSCENC =       798.38614055
  Ewald energy   TEWEN  =    -12901.57693327
  -Hartree energ DENC   =     -2513.23975043
  -exchange      EXHF   =         0.00000000
  -V(xc)+E(xc)   XCENC  =      -998.52908945
  PAW double counting   =     19617.27484989   -18371.34394103
  entropy T*S    EENTRO =        -0.04385047
  eigenvalues    EBANDS =      1315.46278813
  atomic energy  EATOM  =     12697.67401269
  ---------------------------------------------------
  free energy    TOTEN  =      -355.93494890 eV

  energy without entropy =     -355.89109843  energy(sigma->0) =     -355.92033208


--------------------------------------------------------------------------------------------------------




--------------------------------------- Iteration      1(  19)  ---------------------------------------


    POTLOK:  cpu time    0.3920: real time    0.3920
    SETDIJ:  cpu time    0.4604: real time    0.4603
    TRIAL :  cpu time   20.9201: real time   21.0525
    CORREC:  cpu time    6.1597: real time    6.1730
    CHARGE:  cpu time    2.4475: real time    2.4675
    --------------------------------------------
      LOOP:  cpu time   30.3919: real time   30.5587

 eigenvalue-minimisations  :     0
 total energy-change (2. order) :-0.2299273E+00  (-0.6527164E-01)
 number of electron     269.9999992 magnetization      21.4992460
 augmentation part       87.0692443 magnetization      14.8438731

 Free energy of the ion-electron system (eV)
  ---------------------------------------------------
  alpha Z        PSCENC =       798.38614055
  Ewald energy   TEWEN  =    -12901.57693327
  -Hartree energ DENC   =     -2510.47215939
  -exchange      EXHF   =         0.00000000
  -V(xc)+E(xc)   XCENC  =      -998.26774931
  PAW double counting   =     19527.91164258   -18282.54003502
  entropy T*S    EENTRO =        -0.04483803
  eigenvalues    EBANDS =      1312.76405540
  atomic energy  EATOM  =     12697.67401269
  ---------------------------------------------------
  free energy    TOTEN  =      -356.16487625 eV

  energy without entropy =     -356.12003822  energy(sigma->0) =     -356.14993024


--------------------------------------------------------------------------------------------------------




--------------------------------------- Iteration      1(  20)  ---------------------------------------


    POTLOK:  cpu time    0.3929: real time    0.3932
    SETDIJ:  cpu time    0.4901: real time    0.4901
    TRIAL :  cpu time   20.4651: real time   20.6808
    CORREC:  cpu time    6.1647: real time    6.2087
    CHARGE:  cpu time    1.8199: real time    1.8297
    --------------------------------------------
      LOOP:  cpu time   29.3504: real time   29.6218

 eigenvalue-minimisations  :     0
 total energy-change (2. order) :-0.6505401E-01  (-0.4527356E-01)
 number of electron     269.9999992 magnetization      21.5044836
 augmentation part       86.8943065 magnetization      14.8667871

 Free energy of the ion-electron system (eV)
  ---------------------------------------------------
  alpha Z        PSCENC =       798.38614055
  Ewald energy   TEWEN  =    -12901.57693327
  -Hartree energ DENC   =     -2501.46648984
  -exchange      EXHF   =         0.00000000
  -V(xc)+E(xc)   XCENC  =      -998.46213303
  PAW double counting   =     19500.65249058   -18253.67053612
  entropy T*S    EENTRO =        -0.04492187
  eigenvalues    EBANDS =      1302.27835622
  atomic energy  EATOM  =     12697.67401269
  ---------------------------------------------------
  free energy    TOTEN  =      -356.22993026 eV

  energy without entropy =     -356.18500838  energy(sigma->0) =     -356.21495630


--------------------------------------------------------------------------------------------------------




--------------------------------------- Iteration      1(  21)  ---------------------------------------


    POTLOK:  cpu time    0.3920: real time    0.3920
    SETDIJ:  cpu time    0.4789: real time    0.4789
    TRIAL :  cpu time   21.0353: real time   21.1514
    CORREC:  cpu time    6.1638: real time    6.1871
    CHARGE:  cpu time    2.4481: real time    2.4598
    --------------------------------------------
      LOOP:  cpu time   30.5211: real time   30.6740

 eigenvalue-minimisations  :     0
 total energy-change (2. order) :-0.4524677E-01  (-0.5669644E-01)
 number of electron     269.9999992 magnetization      21.5531928
 augmentation part       86.8115580 magnetization      14.9475258

 Free energy of the ion-electron system (eV)
  ---------------------------------------------------
  alpha Z        PSCENC =       798.38614055
  Ewald energy   TEWEN  =    -12901.57693327
  -Hartree energ DENC   =     -2492.92651248
  -exchange      EXHF   =         0.00000000
  -V(xc)+E(xc)   XCENC  =      -998.67028526
  PAW double counting   =     19484.99276516   -18236.29624076
  entropy T*S    EENTRO =        -0.04594936
  eigenvalues    EBANDS =      1292.18679822
  atomic energy  EATOM  =     12697.67401269
  ---------------------------------------------------
  free energy    TOTEN  =      -356.27517702 eV

  energy without entropy =     -356.22922766  energy(sigma->0) =     -356.25986057


--------------------------------------------------------------------------------------------------------




--------------------------------------- Iteration      1(  22)  ---------------------------------------


    POTLOK:  cpu time    0.3934: real time    0.3935
    SETDIJ:  cpu time    0.4775: real time    0.4775
    TRIAL :  cpu time   20.4741: real time   20.6943
    CORREC:  cpu time    6.1466: real time    6.1769
    CHARGE:  cpu time    1.8259: real time    1.8360
    --------------------------------------------
      LOOP:  cpu time   29.3410: real time   29.6023

 eigenvalue-minimisations  :     0
 total energy-change (2. order) :-0.5669157E-01  (-0.3774086E-01)
 number of electron     269.9999992 magnetization      21.5601398
 augmentation part       86.9058409 magnetization      14.9949980

 Free energy of the ion-electron system (eV)
  ---------------------------------------------------
  alpha Z        PSCENC =       798.38614055
  Ewald energy   TEWEN  =    -12901.57693327
  -Hartree energ DENC   =     -2491.08916482
  -exchange      EXHF   =         0.00000000
  -V(xc)+E(xc)   XCENC  =      -998.58740513
  PAW double counting   =     19490.31374414   -18241.21313696
  entropy T*S    EENTRO =        -0.04617774
  eigenvalues    EBANDS =      1289.80682357
  atomic energy  EATOM  =     12697.67401269
  ---------------------------------------------------
  free energy    TOTEN  =      -356.33186859 eV

  energy without entropy =     -356.28569085  energy(sigma->0) =     -356.31647601


--------------------------------------------------------------------------------------------------------




--------------------------------------- Iteration      1(  23)  ---------------------------------------


    POTLOK:  cpu time    0.3921: real time    0.3920
    SETDIJ:  cpu time    0.4595: real time    0.4595
    TRIAL :  cpu time   20.9957: real time   21.1185
    CORREC:  cpu time    6.3067: real time    6.3404
    CHARGE:  cpu time    2.4492: real time    2.4493
    --------------------------------------------
      LOOP:  cpu time   30.6102: real time   30.7681

 eigenvalue-minimisations  :     0
 total energy-change (2. order) :-0.3777846E-01  (-0.1284246E-01)
 number of electron     269.9999992 magnetization      21.5934487
 augmentation part       86.9583693 magnetization      15.0269836

 Free energy of the ion-electron system (eV)
  ---------------------------------------------------
  alpha Z        PSCENC =       798.38614055
  Ewald energy   TEWEN  =    -12901.57693327
  -Hartree energ DENC   =     -2498.25544219
[...]
   45        0.013   0.018   2.348   2.380
   46        0.013   0.021   2.216   2.250
   47       -0.016  -0.009  -2.355  -2.380
   48       -0.028  -0.026  -2.200  -2.254
   49        0.020   0.016   2.381   2.417
   50       -0.010  -0.014  -2.248  -2.273
   51        0.025   0.026   2.414   2.464
   52        0.018   0.021   2.370   2.409
   53       -0.020  -0.026  -2.315  -2.361
   54        0.023   0.030   2.399   2.452
--------------------------------------------------
tot         -0.015  -0.111  21.668  21.541
 
    FORLOC:  cpu time    0.0579: real time    0.0581
    FORNL :  cpu time   30.3258: real time   30.5786
    STRESS:  cpu time   41.3243: real time   42.2839
    FORCOR:  cpu time    0.4413: real time    0.4413
    OFIELD:  cpu time    0.0024: real time    0.0024

  FORCE on cell =-STRESS in cart. coord.  units (eV):
  Direction    XX          YY          ZZ          XY          YZ          ZX
  --------------------------------------------------------------------------------------
  Alpha Z   798.38614   798.38614   798.38614
  Ewald   -4053.61603 -4053.61603 -4794.40593    -0.00000    -0.00000    -0.00000
  Hartree  1083.96358  1083.96358   333.42104    -0.12669    -0.05956     0.05956
  E(xc)   -1141.55038 -1141.55038 -1140.01760     0.05493     0.01093    -0.01093
  Local     369.57552   369.57552  1903.58504     0.43258     0.18509    -0.18509
  n-local  -171.21267  -168.63096  -176.08564     0.20152    -0.05804    -0.12139
  augment   784.31896   784.31896   768.23136    -0.18639    -0.05077     0.05048
  Kinetic  2330.17434  2339.78644  2309.87757    -0.49346    -0.93047    -0.61607
  Fock        0.00000     0.00000     0.00000     0.00000     0.00000     0.00000
  -------------------------------------------------------------------------------------
  Total       6.13636     6.13636     2.99198    -0.11756    -0.03988     0.03988
  in kB      13.84897    13.84897     6.75250    -0.26533    -0.08999     0.08999
  external pressure =       11.48 kB  Pullay stress =        0.00 kB


 VOLUME and BASIS-vectors are now :
 -----------------------------------------------------------------------------
  energy-cutoff  :      404.80
  volume of cell :      709.91
      direct lattice vectors                 reciprocal lattice vectors
     8.250148166  0.000000000  0.000000000     0.121209944  0.000000000  0.000000000
     0.000000000  8.250148166  0.000000000     0.000000000  0.121209944  0.000000000
     0.000000000  0.000000000 10.429911392     0.000000000  0.000000000  0.095878092

  length of vectors
     8.250148166  8.250148166 10.429911392     0.121209944  0.121209944  0.095878092


 FORCES acting on ions:
    Electron-Ion                     Ewald-Force                    Non-Local-Force
 -----------------------------------------------------------------------------------------------
   0.133E-01 -.133E-01 0.225E-01   -.239E-08 -.239E-08 -.210E-08   0.153E-02 -.153E-02 0.141E-01
   -.113E+00 0.113E+00 0.667E-02   -.239E-08 -.239E-08 0.171E-08   0.870E-01 -.870E-01 -.257E-01
   -.165E-01 0.165E-01 -.506E-01   -.239E-08 -.239E-08 0.861E-08   0.668E-02 -.668E-02 0.310E-01
   0.146E-01 0.464E-02 0.263E-01   -.239E-08 -.802E-09 -.210E-08   0.240E-01 0.212E-01 0.200E-01
   0.743E-02 -.322E-02 0.478E-01   -.239E-08 -.802E-09 0.171E-08   -.311E-02 -.728E-02 -.186E-01
   0.116E+00 0.124E+00 -.132E+00   -.239E-08 -.802E-09 0.861E-08   -.910E-01 -.951E-01 0.424E-01
   -.297E-01 -.654E-02 -.154E-01   -.239E-08 0.631E-08 -.210E-08   -.465E-02 -.628E-02 -.118E-01
   -.112E+00 -.121E+00 0.540E-01   -.239E-08 0.631E-08 0.171E-08   0.873E-01 0.966E-01 -.481E-01
   -.141E+00 -.148E+00 0.578E-02   -.239E-08 0.631E-08 0.861E-08   0.102E+00 0.105E+00 0.324E-01
   0.654E-02 0.297E-01 -.154E-01   -.802E-09 -.239E-08 -.210E-08   0.628E-02 0.465E-02 -.118E-01
   0.121E+00 0.112E+00 0.540E-01   -.802E-09 -.239E-08 0.171E-08   -.966E-01 -.873E-01 -.481E-01
   0.148E+00 0.141E+00 0.578E-02   -.803E-09 -.239E-08 0.861E-08   -.105E+00 -.102E+00 0.324E-01
   -.157E-01 -.189E-01 -.218E-01   -.802E-09 -.802E-09 -.210E-08   0.203E-02 -.216E-02 -.598E-02
   -.120E-01 0.628E-02 0.149E+00   -.802E-09 -.802E-09 0.171E-08   0.146E-02 0.155E-02 -.635E-01
   -.173E-01 -.178E-01 -.769E-01   -.803E-09 -.802E-09 0.861E-08   0.415E-02 0.769E-02 0.376E-01
   0.277E-02 -.277E-02 0.139E-01   -.802E-09 0.631E-08 -.210E-08   0.104E-01 -.104E-01 -.433E-01
   0.124E+00 -.124E+00 0.423E-01   -.802E-09 0.631E-08 0.171E-08   -.104E+00 0.104E+00 -.532E-01
   0.126E+00 -.126E+00 -.498E-01   -.803E-09 0.631E-08 0.861E-08   -.109E+00 0.109E+00 0.815E-01
   -.464E-02 -.146E-01 0.263E-01   0.631E-08 -.239E-08 -.210E-08   -.212E-01 -.240E-01 0.200E-01
   0.322E-02 -.743E-02 0.478E-01   0.631E-08 -.239E-08 0.171E-08   0.728E-02 0.311E-02 -.186E-01
   -.124E+00 -.116E+00 -.132E+00   0.631E-08 -.239E-08 0.861E-08   0.951E-01 0.910E-01 0.424E-01
   -.382E-02 0.382E-02 0.182E-01   0.631E-08 -.802E-09 -.210E-08   -.173E-01 0.173E-01 0.143E-01
   -.620E-02 0.620E-02 0.763E-01   0.631E-08 -.802E-09 0.171E-08   0.127E-01 -.127E-01 0.549E-02
   -.979E-01 0.979E-01 -.145E+00   0.631E-08 -.802E-09 0.861E-08   0.980E-01 -.980E-01 0.123E-01
   0.189E-01 0.157E-01 -.218E-01   0.631E-08 0.631E-08 -.210E-08   0.216E-02 -.203E-02 -.598E-02
   -.628E-02 0.120E-01 0.149E+00   0.631E-08 0.631E-08 0.171E-08   -.155E-02 -.146E-02 -.635E-01
   0.178E-01 0.173E-01 -.769E-01   0.631E-08 0.631E-08 0.861E-08   -.769E-02 -.415E-02 0.376E-01
   -.499E-01 0.577E-01 -.934E-01   -.169E-07 -.169E-07 -.180E-07   0.101E-01 -.339E-01 0.102E+00
   0.390E-01 0.342E+00 -.147E+00   -.169E-07 -.169E-07 -.170E-08   -.159E-01 -.205E+00 0.168E+00
   0.318E+00 0.634E-01 0.916E-01   -.169E-07 -.169E-07 0.115E-07   -.179E+00 -.533E-01 -.854E-01
   -.230E-01 -.831E-01 -.140E-01   -.169E-07 0.802E-09 -.180E-07   0.546E-01 0.932E-01 0.375E-01
   -.770E-02 -.327E+00 0.179E-01   -.169E-07 0.802E-09 -.170E-08   -.525E-02 0.173E+00 -.217E-01
   -.108E+00 -.158E+00 0.177E-01   -.169E-07 0.802E-09 0.115E-07   0.113E+00 0.143E+00 -.423E-01
   -.233E-01 0.233E-01 0.211E+00   -.169E-07 0.130E-07 -.180E-07   0.503E-01 -.503E-01 -.185E+00
   0.254E-01 -.254E-01 -.798E-01   -.169E-07 0.130E-07 -.170E-08   -.411E-01 0.411E-01 0.875E-01
   -.928E-01 0.928E-01 -.189E+00   -.169E-07 0.130E-07 0.115E-07   0.933E-01 -.933E-01 0.176E+00
   0.200E-01 -.472E-01 -.688E-01   0.802E-09 -.169E-07 -.180E-07   0.211E-01 0.414E-01 0.145E+00
   -.117E+00 -.936E-01 -.120E+00   0.802E-09 -.169E-07 -.170E-08   0.849E-01 0.859E-01 0.106E+00
   -.343E+00 -.401E-01 0.555E-01   0.802E-09 -.169E-07 0.115E-07   0.198E+00 0.386E-01 -.680E-01
   -.206E-01 0.206E-01 0.162E-01   0.802E-09 0.802E-09 -.180E-07   -.252E-01 0.252E-01 0.643E-01
   -.806E-01 0.806E-01 0.817E-02   0.802E-09 0.802E-09 -.170E-08   0.951E-01 -.951E-01 0.115E-01
   0.689E-01 -.689E-01 0.658E-02   0.802E-09 0.802E-09 0.115E-07   -.865E-01 0.865E-01 -.945E-01
   0.831E-01 0.230E-01 -.140E-01   0.802E-09 0.130E-07 -.180E-07   -.932E-01 -.546E-01 0.375E-01
   0.327E+00 0.770E-02 0.179E-01   0.802E-09 0.130E-07 -.170E-08   -.173E+00 0.525E-02 -.217E-01
   0.158E+00 0.108E+00 0.177E-01   0.802E-09 0.130E-07 0.115E-07   -.143E+00 -.113E+00 -.423E-01
   0.280E-01 -.280E-01 0.267E+00   0.130E-07 -.169E-07 -.180E-07   -.246E-01 0.246E-01 -.276E+00
   0.961E-01 -.961E-01 0.242E+00   0.130E-07 -.169E-07 -.170E-08   -.811E-01 0.811E-01 -.412E+00
   -.204E-01 0.204E-01 -.196E+00   0.130E-07 -.169E-07 0.115E-07   0.170E-01 -.170E-01 0.179E+00
   0.472E-01 -.200E-01 -.688E-01   0.130E-07 0.802E-09 -.180E-07   -.414E-01 -.211E-01 0.145E+00
   0.936E-01 0.117E+00 -.120E+00   0.130E-07 0.802E-09 -.170E-08   -.859E-01 -.849E-01 0.106E+00
   0.401E-01 0.343E+00 0.555E-01   0.130E-07 0.802E-09 0.115E-07   -.386E-01 -.198E+00 -.680E-01
   -.577E-01 0.499E-01 -.934E-01   0.130E-07 0.130E-07 -.180E-07   0.339E-01 -.101E-01 0.102E+00
   -.342E+00 -.390E-01 -.147E+00   0.130E-07 0.130E-07 -.170E-08   0.205E+00 0.159E-01 0.168E+00
   -.634E-01 -.318E+00 0.916E-01   0.130E-07 0.130E-07 0.115E-07   0.533E-01 0.179E+00 -.854E-01
 -----------------------------------------------------------------------------------------------
   0.175E-01 -.175E-01 -.239E+00   -.614E-13 -.142E-13 0.128E-13   -.175E-01 0.175E-01 0.239E+00
 
 
 POSITION                                       TOTAL-FORCE (eV/Angst)
 -----------------------------------------------------------------------------------
      0.00000      0.00000      0.00000         0.013858     -0.013858      0.034141
      0.00000      0.00000      3.47664        -0.033576      0.033576     -0.015903
      0.00000      0.00000      6.95327        -0.010370      0.010370     -0.022426
      0.00000      2.75005      0.00000         0.036568      0.023471      0.043411
      0.00000      2.75005      3.47664         0.005034     -0.009933      0.030775
      0.00000      2.75005      6.95327         0.033044      0.037334     -0.092924
      0.00000      5.50010      0.00000        -0.034787     -0.012681     -0.026457
      0.00000      5.50010      3.47664        -0.031981     -0.032754      0.011677
      0.00000      5.50010      6.95327        -0.048830     -0.052146      0.034723
      2.75005      0.00000      0.00000         0.012681      0.034787     -0.026457
      2.75005      0.00000      3.47664         0.032754      0.031981      0.011677
      2.75005      0.00000      6.95327         0.052146      0.048830      0.034723
      2.75005      2.75005      0.00000        -0.014327     -0.021385     -0.027657
      2.75005      2.75005      3.47664        -0.011204      0.007712      0.092248
      2.75005      2.75005      6.95327        -0.013958     -0.011236     -0.042686
      2.75005      5.50010      0.00000         0.012617     -0.012617     -0.025818
      2.75005      5.50010      3.47664         0.028906     -0.028906     -0.005276
      2.75005      5.50010      6.95327         0.025819     -0.025819      0.023491
      5.50010      0.00000      0.00000        -0.023471     -0.036568      0.043411
      5.50010      0.00000      3.47664         0.009933     -0.005034      0.030775
      5.50010      0.00000      6.95327        -0.037334     -0.033044     -0.092924
      5.50010      2.75005      0.00000        -0.018990      0.018990      0.029932
      5.50010      2.75005      3.47664         0.005470     -0.005470      0.081677
      5.50010      2.75005      6.95327        -0.008052      0.008052     -0.133154
      5.50010      5.50010      0.00000         0.021385      0.014327     -0.027657
      5.50010      5.50010      3.47664        -0.007712      0.011204      0.092248
      5.50010      5.50010      6.95327         0.011236      0.013958     -0.042686
      1.37502      1.37502      1.73832        -0.037994      0.024449     -0.000693
      1.37502      1.37502      5.21496         0.022596      0.138064      0.019078
      1.37502      1.37502      8.69159         0.142864      0.011108      0.010318
      1.37502      4.12507      1.73832         0.031408      0.008720      0.015877
      1.37502      4.12507      5.21496        -0.013547     -0.155550     -0.001947
      1.37502      4.12507      8.69159         0.003606     -0.017766     -0.016689
      1.37502      6.87512      1.73832         0.026634     -0.026634      0.023755
      1.37502      6.87512      5.21496        -0.014557      0.014557      0.006808
      1.37502      6.87512      8.69159        -0.001296      0.001296     -0.011147
      4.12507      1.37502      1.73832         0.039097     -0.006217      0.067068
      4.12507      1.37502      5.21496        -0.032849     -0.009824     -0.015614
      4.12507      1.37502      8.69159        -0.150230     -0.002240     -0.008050
      4.12507      4.12507      1.73832        -0.045587      0.045587      0.072901
      4.12507      4.12507      5.21496         0.012812     -0.012812      0.020889
      4.12507      4.12507      8.69159        -0.015980      0.015980     -0.079828
      4.12507      6.87512      1.73832        -0.008720     -0.031408      0.015877
      4.12507      6.87512      5.21496         0.155550      0.013547     -0.001947
      4.12507      6.87512      8.69159         0.017766     -0.003606     -0.016689
      6.87512      1.37502      1.73832         0.003905     -0.003905     -0.003753
      6.87512      1.37502      5.21496         0.017271     -0.017271     -0.160561
      6.87512      1.37502      8.69159        -0.004272      0.004272     -0.020642
      6.87512      4.12507      1.73832         0.006217     -0.039097      0.067068
      6.87512      4.12507      5.21496         0.009824      0.032849     -0.015614
      6.87512      4.12507      8.69159         0.002240      0.150230     -0.008050
      6.87512      6.87512      1.73832        -0.024449      0.037994     -0.000693
      6.87512      6.87512      5.21496        -0.138064     -0.022596      0.019078
      6.87512      6.87512      8.69159        -0.011108     -0.142864      0.010318
 -----------------------------------------------------------------------------------
    total drift:                                0.000011     -0.000011      0.000002


--------------------------------------------------------------------------------------------------------



  FREE ENERGIE OF THE ION-ELECTRON SYSTEM (eV)
  ---------------------------------------------------
  free  energy   TOTEN  =      -356.43462860 eV

  energy  without entropy=     -356.38916487  energy(sigma->0) =     -356.41947403
 


--------------------------------------------------------------------------------------------------------


    POTLOK:  cpu time    0.9495: real time    0.9578


--------------------------------------------------------------------------------------------------------


     LOOP+:  cpu time 2632.7309: real time 2659.7719
    4ORBIT:  cpu time    0.0000: real time    0.0000
 


 total charge     
 
# of ion       s       p       d       tot
------------------------------------------
    1        0.405   0.429   0.000   0.833
    2        0.405   0.428   0.000   0.833
    3        0.406   0.429   0.000   0.834
    4        0.404   0.430   0.000   0.834
    5        0.405   0.426   0.000   0.831
    6        0.405   0.428   0.000   0.833
    7        0.405   0.428   0.000   0.833
    8        0.405   0.428   0.000   0.834
    9        0.405   0.428   0.000   0.833
   10        0.405   0.428   0.000   0.833
   11        0.405   0.428   0.000   0.834
   12        0.405   0.428   0.000   0.833
   13        0.404   0.429   0.000   0.833
   14        0.405   0.426   0.000   0.832
   15        0.405   0.426   0.000   0.831
   16        0.404   0.429   0.000   0.833
   17        0.405   0.429   0.000   0.834
   18        0.405   0.428   0.000   0.833
   19        0.404   0.429   0.000   0.833
   20        0.405   0.426   0.000   0.832
   21        0.405   0.427   0.000   0.833
   22        0.405   0.430   0.000   0.834
   23        0.405   0.427   0.000   0.832
   24        0.405   0.428   0.000   0.833
   25        0.404   0.428   0.000   0.832
   26        0.405   0.426   0.000   0.832
   27        0.405   0.426   0.000   0.831
   28        0.333   0.351   5.137   5.820
   29        0.335   0.358   5.098   5.791
   30        0.334   0.355   5.151   5.840
   31        0.334   0.353   5.135   5.821
   32        0.335   0.356   5.102   5.794
   33        0.332   0.353   5.138   5.823
   34        0.334   0.348   5.143   5.825
   35        0.338   0.355   5.126   5.819
   36        0.332   0.348   5.147   5.827
   37        0.333   0.349   5.142   5.824
   38        0.333   0.353   5.137   5.824
   39        0.334   0.353   5.148   5.835
   40        0.334   0.350   5.137   5.821
   41        0.333   0.351   5.137   5.822
   42        0.332   0.351   5.139   5.823
   43        0.333   0.353   5.131   5.817
   44        0.335   0.353   5.152   5.841
   45        0.332   0.353   5.132   5.817
   46        0.331   0.352   5.137   5.820
   47        0.334   0.349   5.140   5.823
   48        0.333   0.352   5.141   5.826
   49        0.333   0.349   5.137   5.820
   50        0.333   0.353   5.133   5.818
   51        0.333   0.356   5.109   5.798
   52        0.333   0.352   5.135   5.819
   53        0.335   0.353   5.156   5.844
   54        0.332   0.358   5.101   5.791
--------------------------------------------------
tot         19.937  21.069 138.621 179.627
 


 magnetization (x)
 
# of ion       s       p       d       tot
------------------------------------------
    1       -0.017  -0.031   0.000  -0.048
    2       -0.004  -0.006   0.000  -0.011
    3        0.000   0.002   0.000   0.002
    4       -0.018  -0.028   0.000  -0.045
    5       -0.001  -0.001   0.000  -0.002
    6        0.003   0.007   0.000   0.010
    7       -0.021  -0.037   0.000  -0.058
    8       -0.004  -0.008   0.000  -0.012
    9       -0.003  -0.005   0.000  -0.008
   10       -0.021  -0.038   0.000  -0.059
   11       -0.004  -0.008   0.000  -0.012
   12       -0.003  -0.005   0.000  -0.009
   13       -0.022  -0.035   0.000  -0.057
   14       -0.001  -0.002   0.000  -0.003
   15       -0.000   0.000   0.000  -0.000
   16       -0.022  -0.040   0.000  -0.062
   17       -0.004  -0.006   0.000  -0.010
   18       -0.004  -0.006   0.000  -0.011
   19       -0.018  -0.028   0.000  -0.046
   20       -0.001  -0.000   0.000  -0.001
   21        0.004   0.008   0.000   0.011
   22       -0.017  -0.030   0.000  -0.048
   23        0.001   0.002   0.000   0.002
   24        0.005   0.010   0.000   0.014
   25       -0.022  -0.035   0.000  -0.056
   26       -0.001  -0.001   0.000  -0.002
   27        0.000   0.001   0.000   0.002
   28        0.018   0.020   2.371   2.409
   29       -0.020  -0.027  -2.337  -2.383
   30        0.024   0.029   2.371   2.424
   31        0.016   0.025   2.365   2.406
   32       -0.021  -0.022  -2.364  -2.408
   33        0.013   0.018   2.339   2.371
   34        0.020   0.016   2.354   2.390
   35        0.029   0.029   2.230   2.288
   36        0.016   0.010   2.309   2.335
   37        0.019   0.016   2.375   2.411
   38       -0.010  -0.015  -2.246  -2.271
   39        0.026   0.025   2.402   2.452
   40        0.018   0.020   2.378   2.416
   41       -0.012  -0.010  -2.251  -2.273
   42        0.015   0.014   2.348   2.376
   43        0.016   0.025   2.367   2.408
   44       -0.023  -0.021  -2.351  -2.395
   45        0.013   0.018   2.348   2.380
   46        0.013   0.021   2.216   2.250
   47       -0.016  -0.009  -2.355  -2.380
   48       -0.028  -0.026  -2.200  -2.254
   49        0.020   0.016   2.381   2.417
   50       -0.010  -0.014  -2.248  -2.273
   51        0.025   0.026   2.414   2.464
   52        0.018   0.021   2.370   2.409
   53       -0.020  -0.026  -2.315  -2.361
   54        0.023   0.030   2.399   2.452
--------------------------------------------------
tot         -0.015  -0.111  21.668  21.541
 

 total amount of memory used by VASP MPI-rank0  1097031. kBytes
=======================================================================

   base      :      30000. kBytes
   nonl-proj :      34131. kBytes
   fftplans  :      31580. kBytes
   grid      :      21385. kBytes
   one-center:        435. kBytes
   wavefun   :     979500. kBytes
 
  
  
 General timing and accounting informations for this job:
 ========================================================
  
                  Total CPU time used (sec):     2672.799
                            User time (sec):     2641.334
                          System time (sec):       31.465
                         Elapsed time (sec):     2702.820
  
                   Maximum memory used (kb):     1286716.
                   Average memory used (kb):           0.
  
                          Minor page faults:       871622
                          Major page faults:           16
                 Voluntary context switches:         3673
