   36   36    1    2
  0.1314651E+02  0.8250148E-09  0.8250148E-09  0.6953274E-09  0.2000000E-15
  1.000000000000000E-004
  CAR 
 AlMn_pv                                 
    180     52    104
 
  0.0000000E+00  0.0000000E+00  0.0000000E+00  0.6666667E-02
    1       -2.504896     -2.531056   1.000000   1.000000
    2       -0.354784     -0.373725   1.000000   1.000000
    3       -0.331036     -0.363690   1.000000   1.000000
    4       -0.301958     -0.349384   1.000000   1.000000
    5       -0.294886     -0.308051   1.000000   1.000000
    6       -0.118532     -0.112120   1.000000   1.000000
    7        1.382126      1.343819   1.000000   1.000000
    8        1.411010      1.345131   1.000000   1.000000
    9        1.426624      1.362754   1.000000   1.000000
   10        1.431258      1.385369   1.000000   1.000000
   11        1.463370      1.407613   1.000000   1.000000
   12        1.564473      1.516902   1.000000   1.000000
   13        1.589166      1.547448   1.000000   1.000000
   14        1.642749      1.591763   1.000000   1.000000
   15        1.673485      1.619135   1.000000   1.000000
   16        2.764630      2.674271   1.000000   1.000000
   17        2.808513      2.696629   1.000000   1.000000
   18        2.887825      2.776902   1.000000   1.000000
   19        2.929159      2.814267   1.000000   1.000000
   20        3.507115      3.440938   1.000000   1.000000
   21        3.560233      3.456961   1.000000   1.000000
   22        3.631323      3.507760   1.000000   1.000000
   23        3.656390      3.596535   1.000000   1.000000
   24        4.125193      3.998905   1.000000   1.000000
   25        4.335267      4.154121   1.000000   1.000000
   26        4.439257      4.198698   1.000000   1.000000
   27        4.547189      4.456121   1.000000   1.000000
   28        4.625235      4.491185   1.000000   1.000000
   29        4.642453      4.520457   1.000000   1.000000
   30        4.683619      4.523760   1.000000   1.000000
   31        4.747963      4.553804   1.000000   1.000000
   32        4.761971      4.575465   1.000000   1.000000
   33        4.799968      4.585224   1.000000   1.000000
   34        4.876138      4.654517   1.000000   1.000000
   35        4.918608      4.669934   1.000000   1.000000
   36        5.079884      4.793453   1.000000   1.000000
   37        5.090771      4.839990   1.000000   1.000000
   38        5.177462      4.880928   1.000000   1.000000
   39        5.240325      4.923940   1.000000   1.000000
   40        5.364083      5.017818   1.000000   1.000000
   41        5.414500      5.193461   1.000000   1.000000
   42        5.496367      5.227122   1.000000   1.000000
   43        5.513813      5.262361   1.000000   1.000000
   44        5.524356      5.277876   1.000000   1.000000
   45        5.551094      5.319857   1.000000   1.000000
   46        5.586928      5.358259   1.000000   1.000000
   47        5.650624      5.402838   1.000000   1.000000
   48        5.659465      5.463697   1.000000   1.000000
   49        5.714329      5.493930   1.000000   1.000000
   50        5.775324      5.506641   1.000000   1.000000
   51        5.849492      5.510852   1.000000   1.000000
   52        5.879681      5.577654   1.000000   1.000000
   53        5.942746      5.579950   1.000000   1.000000
   54        5.964805      5.652651   1.000000   1.000000
   55        6.034708      5.700974   1.000000   1.000000
   56        6.130116      5.746398   1.000000   1.000000
   57        6.211366      5.757690   1.000000   1.000000
   58        6.272654      5.809979   1.000000   1.000000
   59        6.322905      5.861138   1.000000   1.000000
   60        6.354865      5.881158   1.000000   1.000000
   61        6.379855      5.946115   1.000000   1.000000
   62        6.506988      6.014709   1.000000   1.000000
   63        6.512372      6.127570   1.000000   1.000000
   64        6.560362      6.209210   1.000000   1.000000
   65        6.580821      6.264173   1.000000   1.000000
   66        6.600435      6.287989   1.000000   1.000000
   67        6.665406      6.367296   1.000000   1.000000
   68        6.675837      6.417088   1.000000   1.000000
   69        6.728296      6.425633   1.000000   1.000000
   70        6.811993      6.443185   1.000000   1.000000
   71        6.833533      6.494833   1.000000   1.000000
   72        6.868102      6.531736   1.000000   1.000000
   73        6.951877      6.548683   1.000000   1.000000
   74        6.967468      6.639214   1.000000   1.000000
   75        7.056904      6.669156   1.000009   1.000000
   76        7.193686      6.670320   1.000452   1.000000
   77        7.272529      6.683787   1.002634   1.000000
   78        7.293059      6.740898   1.003989   1.000000
   79        7.337019      6.776931   1.008532   1.000000
   80        7.352372      6.823029   1.010590   1.000000
   81        7.465802      6.900948   1.033844   1.000000
   82        7.608309      6.915077   0.929953   1.000000
   83        7.680854      6.958342   0.716419   1.000000
   84        7.740250      7.051231   0.475598   1.000008
   85        7.778462      7.074714   0.314262   1.000017
   86        7.795362      7.238386   0.259082   1.001290
   87        7.955374      7.241902  -0.032639   1.001404
   88        7.960935      7.253024  -0.034192   1.001783
   89        8.089247      7.348921  -0.015784   1.010181
   90        8.139985      7.415978  -0.007182   1.023603
   91        8.150541      7.422151  -0.005961   1.025204
   92        8.215594      7.453510  -0.001701   1.031832
   93        8.228689      7.473144  -0.001282   1.034702
   94        8.302296      7.565430  -0.000216   1.000210
   95        8.320900      7.641111  -0.000135   0.849484
   96        8.367471      7.681343  -0.000035   0.710910
   97        8.505556      7.772111  -0.000000   0.345550
   98        8.551241      7.987329  -0.000000  -0.035153
   99        8.561345      7.989300  -0.000000  -0.035115
  100        8.659104      8.062095  -0.000000  -0.021409
  101        8.756206      8.105397  -0.000000  -0.012100
  102        8.797133      8.114428  -0.000000  -0.010425
  103        8.869033      8.432180  -0.000000  -0.000000
  104        8.924512      8.614356  -0.000000  -0.000000
 
  0.2000000E+00  0.0000000E+00  0.0000000E+00  0.1333333E-01
    1       -2.414354     -2.440486   1.000000   1.000000
    2       -1.088256     -1.114762   1.000000   1.000000
    3       -0.249977     -0.290186   1.000000   1.000000
    4       -0.225298     -0.241651   1.000000   1.000000
    5       -0.051908     -0.047100   1.000000   1.000000
    6        0.583625      0.552821   1.000000   1.000000
    7        0.902702      0.876674   1.000000   1.000000
    8        0.948580      0.899776   1.000000   1.000000
    9        0.962032      0.934248   1.000000   1.000000
   10        1.447032      1.414322   1.000000   1.000000
   11        1.518965      1.440614   1.000000   1.000000
   12        1.522819      1.465197   1.000000   1.000000
   13        1.974223      1.881414   1.000000   1.000000
   14        2.327602      2.271956   1.000000   1.000000
   15        2.353234      2.287767   1.000000   1.000000
   16        2.380248      2.294478   1.000000   1.000000
   17        2.401565      2.311115   1.000000   1.000000
   18        2.861248      2.779956   1.000000   1.000000
   19        3.313708      3.149372   1.000000   1.000000
   20        3.364484      3.227836   1.000000   1.000000
   21        3.616712      3.520041   1.000000   1.000000
   22        3.697965      3.612141   1.000000   1.000000
   23        3.778093      3.706144   1.000000   1.000000
   24        4.106221      3.986239   1.000000   1.000000
   25        4.253852      4.109778   1.000000   1.000000
   26        4.374953      4.170013   1.000000   1.000000
   27        4.405145      4.256273   1.000000   1.000000
   28        4.547565      4.402946   1.000000   1.000000
   29        4.601979      4.439354   1.000000   1.000000
   30        4.679061      4.460777   1.000000   1.000000
   31        4.679513      4.495908   1.000000   1.000000
   32        4.737868      4.535817   1.000000   1.000000
   33        4.780179      4.542401   1.000000   1.000000
   34        4.811205      4.598364   1.000000   1.000000
   35        4.963281      4.768544   1.000000   1.000000
   36        5.017647      4.833026   1.000000   1.000000
   37        5.142789      4.900059   1.000000   1.000000
   38        5.175117      4.948880   1.000000   1.000000
   39        5.184365      4.956357   1.000000   1.000000
   40        5.271842      5.012285   1.000000   1.000000
   41        5.365293      5.044026   1.000000   1.000000
   42        5.382628      5.193296   1.000000   1.000000
   43        5.405684      5.210054   1.000000   1.000000
   44        5.501219      5.236773   1.000000   1.000000
   45        5.551631      5.350934   1.000000   1.000000
   46        5.569563      5.355999   1.000000   1.000000
   47        5.667462      5.379609   1.000000   1.000000
   48        5.717587      5.425989   1.000000   1.000000
   49        5.736871      5.491414   1.000000   1.000000
   50        5.836379      5.502339   1.000000   1.000000
   51        5.863532      5.568539   1.000000   1.000000
   52        5.901562      5.599655   1.000000   1.000000
   53        5.951727      5.622065   1.000000   1.000000
   54        6.043141      5.696704   1.000000   1.000000
   55        6.081617      5.710648   1.000000   1.000000
   56        6.131226      5.740585   1.000000   1.000000
   57        6.215319      5.804101   1.000000   1.000000
   58        6.293960      5.841016   1.000000   1.000000
   59        6.332450      5.872385   1.000000   1.000000
   60        6.375382      5.970286   1.000000   1.000000
   61        6.379730      5.996167   1.000000   1.000000
   62        6.430738      6.033549   1.000000   1.000000
   63        6.530284      6.159432   1.000000   1.000000
   64        6.563418      6.164288   1.000000   1.000000
   65        6.594965      6.191379   1.000000   1.000000
   66        6.595485      6.258780   1.000000   1.000000
   67        6.660510      6.322625   1.000000   1.000000
   68        6.677648      6.364647   1.000000   1.000000
   69        6.710325      6.431211   1.000000   1.000000
   70        6.791629      6.438381   1.000000   1.000000
   71        6.808585      6.467909   1.000000   1.000000
   72        6.877735      6.501268   1.000000   1.000000
   73        6.881540      6.536605   1.000000   1.000000
   74        6.963114      6.584732   1.000000   1.000000
   75        7.070910      6.629160   1.000015   1.000000
   76        7.196895      6.660528   1.000489   1.000000
   77        7.204552      6.674729   1.000602   1.000000
   78        7.309229      6.730329   1.005319   1.000000
   79        7.314944      6.748899   1.005857   1.000000
   80        7.404558      6.806068   1.021057   1.000000
   81        7.568085      6.831379   0.996295   1.000000
   82        7.591670      6.880559   0.962527   1.000000
   83        7.607213      6.902328   0.932383   1.000000
   84        7.701906      6.971335   0.633603   1.000001
   85        7.737694      7.006017   0.487388   1.000002
   86        7.790069      7.189567   0.276577   1.000405
   87        7.935062      7.195584  -0.025437   1.000481
   88        7.998675      7.284215  -0.034413   1.003375
   89        8.061689      7.356271  -0.021212   1.011352
   90        8.139490      7.366900  -0.007264   1.013236
   91        8.139505      7.410532  -0.007190   1.022359
   92        8.156388      7.484561  -0.005444   1.035419
   93        8.228104      7.568806  -0.001311   0.996179
   94        8.272457      7.584018  -0.000461   0.975005
   95        8.289217      7.710004  -0.000301   0.599121
   96        8.420570      7.748791  -0.000007   0.439233
   97        8.473200      7.773983  -0.000001   0.332013
   98        8.495068      8.006927  -0.000001  -0.032701
   99        8.518770      8.030823  -0.000000  -0.028252
  100        8.689151      8.079726  -0.000000  -0.017294
  101        8.725604      8.126911  -0.000000  -0.008748
  102        8.750971      8.240987  -0.000000  -0.000934
  103        8.827983      8.372404  -0.000000  -0.000030
  104        9.012308      8.424889  -0.000000  -0.000006
 
  0.4000000E+00  0.0000000E+00  0.0000000E+00  0.1333333E-01
    1       -2.144326     -2.170418   1.000000   1.000000
    2       -1.699535     -1.725669   1.000000   1.000000
    3       -0.003733     -0.044222   1.000000   1.000000
    4        0.018750      0.001716   1.000000   1.000000
    5        0.145887      0.145562   1.000000   1.000000
    6        0.403268      0.358181   1.000000   1.000000
    7        0.420914      0.400108   1.000000   1.000000
    8        0.468542      0.458684   1.000000   1.000000
    9        1.603928      1.562792   1.000000   1.000000
   10        1.633796      1.593625   1.000000   1.000000
   11        1.701714      1.641383   1.000000   1.000000
   12        1.803745      1.721013   1.000000   1.000000
   13        1.948934      1.898996   1.000000   1.000000
   14        2.005578      1.940948   1.000000   1.000000
   15        2.257052      2.176964   1.000000   1.000000
   16        2.416888      2.269438   1.000000   1.000000
   17        2.702487      2.658624   1.000000   1.000000
   18        2.962683      2.867959   1.000000   1.000000
   19        3.104829      2.978868   1.000000   1.000000
   20        3.664990      3.442868   1.000000   1.000000
   21        3.806090      3.646168   1.000000   1.000000
   22        3.841013      3.696029   1.000000   1.000000
   23        3.844375      3.753836   1.000000   1.000000
   24        4.028304      3.929445   1.000000   1.000000
   25        4.101737      3.975127   1.000000   1.000000
   26        4.216090      4.056422   1.000000   1.000000
   27        4.268351      4.111600   1.000000   1.000000
   28        4.353530      4.167941   1.000000   1.000000
   29        4.422923      4.221963   1.000000   1.000000
   30        4.560181      4.397797   1.000000   1.000000
   31        4.574258      4.399354   1.000000   1.000000
   32        4.581391      4.543682   1.000000   1.000000
   33        4.780074      4.588994   1.000000   1.000000
   34        4.822663      4.647785   1.000000   1.000000
   35        4.932554      4.732675   1.000000   1.000000
   36        5.058998      4.821103   1.000000   1.000000
   37        5.100888      4.875991   1.000000   1.000000
   38        5.158775      4.986607   1.000000   1.000000
   39        5.192009      4.999526   1.000000   1.000000
   40        5.293453      5.085353   1.000000   1.000000
   41        5.304971      5.088166   1.000000   1.000000
   42        5.347058      5.140794   1.000000   1.000000
   43        5.477484      5.199285   1.000000   1.000000
   44        5.503518      5.266501   1.000000   1.000000
   45        5.582933      5.274754   1.000000   1.000000
   46        5.584854      5.385803   1.000000   1.000000
   47        5.657222      5.422371   1.000000   1.000000
   48        5.690341      5.445291   1.000000   1.000000
   49        5.749863      5.510151   1.000000   1.000000
   50        5.814756      5.519617   1.000000   1.000000
   51        5.829627      5.573985   1.000000   1.000000
   52        5.919629      5.588665   1.000000   1.000000
   53        5.962025      5.654677   1.000000   1.000000
   54        6.014068      5.679966   1.000000   1.000000
   55        6.119241      5.688536   1.000000   1.000000
   56        6.129227      5.722559   1.000000   1.000000
   57        6.193582      5.742691   1.000000   1.000000
   58        6.304848      5.790309   1.000000   1.000000
   59        6.306493      6.003565   1.000000   1.000000
   60        6.350700      6.015551   1.000000   1.000000
   61        6.373857      6.045047   1.000000   1.000000
   62        6.379422      6.077098   1.000000   1.000000
   63        6.483876      6.147348   1.000000   1.000000
   64        6.495063      6.150561   1.000000   1.000000
   65        6.507628      6.186203   1.000000   1.000000
   66        6.608231      6.210018   1.000000   1.000000
   67        6.645354      6.273334   1.000000   1.000000
   68        6.699270      6.291375   1.000000   1.000000
   69        6.801235      6.331786   1.000000   1.000000
   70        6.823889      6.382765   1.000000   1.000000
   71        6.836757      6.434632   1.000000   1.000000
   72        6.913035      6.464488   1.000000   1.000000
   73        6.967847      6.502535   1.000000   1.000000
   74        6.975734      6.542661   1.000001   1.000000
   75        7.060906      6.635608   1.000011   1.000000
   76        7.141773      6.650573   1.000119   1.000000
   77        7.194260      6.677007   1.000465   1.000000
   78        7.227075      6.692702   1.001001   1.000000
   79        7.324248      6.747594   1.006924   1.000000
   80        7.444488      6.783955   1.030029   1.000000
   81        7.548001      6.814538   1.016115   1.000000
   82        7.593540      6.863903   0.959510   1.000000
   83        7.634415      6.872527   0.865662   1.000000
   84        7.697862      6.892276   0.654196   1.000000
   85        7.776319      6.892459   0.325763   1.000000
   86        7.800178      7.082025   0.235402   1.000020
   87        7.912933      7.180609  -0.009086   1.000330
   88        7.951018      7.227117  -0.031871   1.001013
   89        7.982900      7.261825  -0.035408   1.002147
   90        8.019134      7.378992  -0.030798   1.015548
   91        8.076258      7.460612  -0.017886   1.033001
   92        8.138182      7.498109  -0.007356   1.035070
   93        8.211365      7.564366  -0.001857   1.000450
   94        8.299589      7.689941  -0.000235   0.677930
   95        8.305903      7.717560  -0.000195   0.568412
   96        8.365277      7.884407  -0.000038   0.023502
   97        8.427770      7.914063  -0.000006  -0.012045
   98        8.437111      8.003966  -0.000004  -0.033375
   99        8.555423      8.008550  -0.000000  -0.032712
  100        8.629068      8.077128  -0.000000  -0.017959
  101        8.682982      8.143722  -0.000000  -0.006719
  102        8.706882      8.193023  -0.000000  -0.002780
  103        8.720320      8.221086  -0.000000  -0.001443
  104        8.774793      8.277940  -0.000000  -0.000393
 
  0.0000000E+00  0.2000000E+00  0.0000000E+00  0.1333333E-01
    1       -2.414383     -2.440565   1.000000   1.000000
    2       -1.087944     -1.114515   1.000000   1.000000
    3       -0.243379     -0.273330   1.000000   1.000000
    4       -0.232755     -0.259591   1.000000   1.000000
    5       -0.052224     -0.047018   1.000000   1.000000
    6        0.584172      0.553860   1.000000   1.000000
    7        0.899647      0.879598   1.000000   1.000000
    8        0.951794      0.913067   1.000000   1.000000
    9        0.958875      0.920728   1.000000   1.000000
   10        1.475148      1.425866   1.000000   1.000000
   11        1.499576      1.440423   1.000000   1.000000
   12        1.522236      1.441493   1.000000   1.000000
   13        1.967928      1.892070   1.000000   1.000000
   14        2.346932      2.277247   1.000000   1.000000
   15        2.360609      2.287531   1.000000   1.000000
   16        2.372605      2.289624   1.000000   1.000000
   17        2.387828      2.308310   1.000000   1.000000
   18        2.865587      2.780654   1.000000   1.000000
   19        3.325009      3.181918   1.000000   1.000000
   20        3.337076      3.200431   1.000000   1.000000
   21        3.629830      3.550066   1.000000   1.000000
   22        3.670977      3.577627   1.000000   1.000000
   23        3.776382      3.705320   1.000000   1.000000
   24        4.105327      3.979385   1.000000   1.000000
   25        4.267618      4.111087   1.000000   1.000000
   26        4.369902      4.180099   1.000000   1.000000
   27        4.413462      4.261628   1.000000   1.000000
   28        4.538890      4.380104   1.000000   1.000000
   29        4.620673      4.451947   1.000000   1.000000
   30        4.668351      4.465306   1.000000   1.000000
   31        4.697796      4.507320   1.000000   1.000000
   32        4.742248      4.507445   1.000000   1.000000
   33        4.750465      4.558518   1.000000   1.000000
   34        4.830164      4.587680   1.000000   1.000000
   35        4.931503      4.741128   1.000000   1.000000
   36        4.952561      4.851227   1.000000   1.000000
   37        5.135148      4.916063   1.000000   1.000000
   38        5.216484      4.949839   1.000000   1.000000
   39        5.245166      4.967280   1.000000   1.000000
   40        5.310101      4.975070   1.000000   1.000000
   41        5.379029      5.036702   1.000000   1.000000
   42        5.424924      5.204218   1.000000   1.000000
   43        5.425395      5.224690   1.000000   1.000000
   44        5.487304      5.251980   1.000000   1.000000
   45        5.533855      5.303653   1.000000   1.000000
   46        5.566831      5.391644   1.000000   1.000000
   47        5.629288      5.405505   1.000000   1.000000
   48        5.715479      5.472042   1.000000   1.000000
   49        5.716660      5.504448   1.000000   1.000000
   50        5.804891      5.518764   1.000000   1.000000
   51        5.876090      5.574537   1.000000   1.000000
   52        5.970882      5.615864   1.000000   1.000000
   53        6.001072      5.629872   1.000000   1.000000
   54        6.034879      5.691859   1.000000   1.000000
   55        6.069229      5.697700   1.000000   1.000000
   56        6.126152      5.756378   1.000000   1.000000
   57        6.211083      5.772780   1.000000   1.000000
   58        6.280599      5.822214   1.000000   1.000000
   59        6.314176      5.859778   1.000000   1.000000
   60        6.337153      5.887061   1.000000   1.000000
   61        6.381954      5.976586   1.000000   1.000000
   62        6.424034      5.984049   1.000000   1.000000
   63        6.465476      6.126780   1.000000   1.000000
   64        6.488982      6.151153   1.000000   1.000000
   65        6.563679      6.222703   1.000000   1.000000
   66        6.563809      6.261638   1.000000   1.000000
   67        6.670907      6.345873   1.000000   1.000000
   68        6.715883      6.368768   1.000000   1.000000
   69        6.769674      6.400784   1.000000   1.000000
   70        6.798730      6.445871   1.000000   1.000000
   71        6.862247      6.446734   1.000000   1.000000
   72        6.884261      6.520806   1.000000   1.000000
   73        6.900828      6.571977   1.000000   1.000000
   74        6.966737      6.616277   1.000000   1.000000
   75        7.066933      6.647557   1.000013   1.000000
   76        7.222847      6.668261   1.000900   1.000000
   77        7.278884      6.688176   1.003004   1.000000
   78        7.284556      6.704767   1.003381   1.000000
   79        7.342177      6.760775   1.009238   1.000000
   80        7.361763      6.795058   1.012335   1.000000
   81        7.412037      6.840865   1.022759   1.000000
   82        7.561125      6.877145   1.004343   1.000000
   83        7.622628      6.902602   0.896871   1.000000
   84        7.729287      7.027164   0.519269   1.000004
   85        7.738230      7.037995   0.481199   1.000005
   86        7.799209      7.164472   0.247198   1.000217
   87        7.976775      7.215967  -0.035451   1.000787
   88        8.058584      7.242674  -0.021899   1.001428
   89        8.079287      7.266434  -0.017838   1.002362
   90        8.117619      7.416756  -0.010277   1.023902
   91        8.151253      7.472733  -0.005869   1.034641
   92        8.162399      7.489603  -0.004901   1.035451
   93        8.230676      7.589657  -0.001228   0.967082
   94        8.292859      7.655640  -0.000281   0.803204
   95        8.342689      7.703830  -0.000073   0.623952
   96        8.345472      7.780110  -0.000067   0.309931
   97        8.421375      7.800068  -0.000007   0.237351
   98        8.513902      7.868343  -0.000000   0.050499
   99        8.541949      7.995847  -0.000000  -0.034470
  100        8.597116      8.021039  -0.000000  -0.030286
  101        8.698163      8.075660  -0.000000  -0.018325
  102        8.772611      8.141119  -0.000000  -0.006917
  103        8.810170      8.237738  -0.000000  -0.001054
  104        8.970354      8.445587  -0.000000  -0.000003
 
  0.2000000E+00  0.2000000E+00  0.0000000E+00  0.1333333E-01
    1       -2.324125     -2.350265   1.000000   1.000000
    2       -1.009218     -1.042694   1.000000   1.000000
    3       -0.994764     -1.014741   1.000000   1.000000
    4        0.014286      0.017859   1.000000   1.000000
    5        0.244294      0.212956   1.000000   1.000000
    6        0.658482      0.619798   1.000000   1.000000
    7        0.671869      0.645715   1.000000   1.000000
    8        0.950035      0.934989   1.000000   1.000000
    9        0.982227      0.947410   1.000000   1.000000
   10        1.615583      1.532920   1.000000   1.000000
   11        1.745197      1.701689   1.000000   1.000000
   12        1.801937      1.749348   1.000000   1.000000
   13        1.876656      1.819811   1.000000   1.000000
   14        2.034593      1.947935   1.000000   1.000000
   15        2.044161      1.963246   1.000000   1.000000
   16        2.866073      2.744316   1.000000   1.000000
   17        2.917024      2.816239   1.000000   1.000000
   18        2.934103      2.818885   1.000000   1.000000
   19        2.937603      2.829468   1.000000   1.000000
   20        2.973397      2.896462   1.000000   1.000000
   21        3.759611      3.584725   1.000000   1.000000
   22        3.820720      3.742206   1.000000   1.000000
   23        3.831521      3.756636   1.000000   1.000000
   24        3.881618      3.772472   1.000000   1.000000
   25        4.287503      4.078102   1.000000   1.000000
   26        4.324948      4.214557   1.000000   1.000000
   27        4.407072      4.269017   1.000000   1.000000
   28        4.431705      4.310446   1.000000   1.000000
   29        4.520370      4.325601   1.000000   1.000000
   30        4.575460      4.359787   1.000000   1.000000
   31        4.592246      4.413323   1.000000   1.000000
   32        4.711880      4.492838   1.000000   1.000000
   33        4.755963      4.553367   1.000000   1.000000
   34        4.862727      4.570152   1.000000   1.000000
   35        4.913530      4.709617   1.000000   1.000000
   36        4.980913      4.795704   1.000000   1.000000
   37        5.043660      4.862988   1.000000   1.000000
   38        5.068874      4.929262   1.000000   1.000000
   39        5.187963      5.026904   1.000000   1.000000
   40        5.260537      5.056845   1.000000   1.000000
   41        5.375166      5.118002   1.000000   1.000000
   42        5.399485      5.177061   1.000000   1.000000
   43        5.496414      5.220973   1.000000   1.000000
   44        5.524336      5.224419   1.000000   1.000000
   45        5.567438      5.319570   1.000000   1.000000
   46        5.593707      5.372280   1.000000   1.000000
   47        5.661279      5.405953   1.000000   1.000000
   48        5.773883      5.470451   1.000000   1.000000
   49        5.782099      5.510814   1.000000   1.000000
   50        5.834220      5.546538   1.000000   1.000000
   51        5.869229      5.617568   1.000000   1.000000
   52        5.989663      5.623672   1.000000   1.000000
   53        6.000329      5.678441   1.000000   1.000000
   54        6.043579      5.684822   1.000000   1.000000
   55        6.107828      5.715187   1.000000   1.000000
   56        6.137349      5.735530   1.000000   1.000000
   57        6.213069      5.822099   1.000000   1.000000
   58        6.270813      5.838637   1.000000   1.000000
   59        6.320552      5.864493   1.000000   1.000000
   60        6.364122      5.951911   1.000000   1.000000
   61        6.367488      6.002049   1.000000   1.000000
   62        6.471692      6.039762   1.000000   1.000000
   63        6.492677      6.109525   1.000000   1.000000
   64        6.506948      6.149132   1.000000   1.000000
   65        6.570030      6.187074   1.000000   1.000000
   66        6.598539      6.212174   1.000000   1.000000
   67        6.650598      6.334013   1.000000   1.000000
   68        6.711476      6.363717   1.000000   1.000000
   69        6.798617      6.402272   1.000000   1.000000
   70        6.805263      6.446022   1.000000   1.000000
   71        6.814579      6.452529   1.000000   1.000000
   72        6.895078      6.561506   1.000000   1.000000
   73        6.920611      6.593770   1.000000   1.000000
   74        6.987514      6.596061   1.000001   1.000000
   75        7.029820      6.622344   1.000004   1.000000
   76        7.181322      6.635545   1.000339   1.000000
   77        7.223250      6.678617   1.000929   1.000000
   78        7.234934      6.711274   1.001187   1.000000
   79        7.306756      6.716867   1.005067   1.000000
   80        7.365166      6.780362   1.012903   1.000000
   81        7.377344      6.814927   1.015248   1.000000
   82        7.510168      6.852444   1.033340   1.000000
   83        7.653146      6.881305   0.810455   1.000000
   84        7.702800      7.003491   0.628451   1.000002
   85        7.724744      7.006452   0.542357   1.000002
   86        7.768965      7.098087   0.355776   1.000034
   87        7.844564      7.185487   0.102214   1.000378
   88        7.966365      7.230452  -0.034624   1.001068
   89        8.066347      7.290650  -0.019985   1.003814
   90        8.099566      7.331133  -0.013366   1.007703
   91        8.136831      7.355025  -0.007581   1.011156
   92        8.192792      7.477638  -0.002744   1.035072