       N       E                     dE             d eps       ncg     rms          ort
DAV:   1     0.136998340379E+04    0.13700E+04   -0.57694E+04  5408   0.151E+03
DAV:   2    -0.355356143306E+02   -0.14055E+04   -0.13858E+04  5408   0.470E+02
DAV:   3    -0.232458386490E+03   -0.19692E+03   -0.18322E+03  5408   0.187E+02
DAV:   4    -0.264754571869E+03   -0.32296E+02   -0.29636E+02  5408   0.804E+01
DAV:   5    -0.269055205684E+03   -0.43006E+01   -0.40706E+01  5408   0.238E+01
DAV:   6    -0.269596934966E+03   -0.54173E+00   -0.51680E+00  5408   0.648E+00
DAV:   7    -0.269694785972E+03   -0.97851E-01   -0.93898E-01  5408   0.226E+00
DAV:   8    -0.269716512336E+03   -0.21726E-01   -0.20929E-01  5408   0.760E-01
SDA:   9    -0.637560668598E+02    0.20596E+03   -0.20929E-01  5408   0.230E+04 0.000E+00
CGA:  10    -0.208580123478E+03   -0.14482E+03   -0.14644E+03  5408   0.115E+03 0.361E+03
CGA:  11    -0.217866933145E+03   -0.92868E+01   -0.92976E+01  5408   0.577E+02 0.106E+01
CGA:  12    -0.227048277846E+03   -0.91813E+01   -0.91791E+01  5408   0.897E+02-0.129E-01
CGA:  13    -0.233005177019E+03   -0.59569E+01   -0.61639E+01  5408   0.101E+02-0.763E+00
CGA:  14    -0.233922635262E+03   -0.91746E+00   -0.92191E+00  5408   0.551E+01-0.132E-01
CGA:  15    -0.234818428125E+03   -0.89579E+00   -0.89624E+00  5408   0.647E+01 0.174E-01
CGA:  16    -0.235236264682E+03   -0.41784E+00   -0.41400E+00  5408   0.181E+01 0.488E-01
CGA:  17    -0.235428973603E+03   -0.19271E+00   -0.19268E+00  5408   0.159E+01 0.246E-03
CGA:  18    -0.235652599776E+03   -0.22363E+00   -0.22371E+00  5408   0.135E+01 0.699E-04
CGA:  19    -0.235769889746E+03   -0.11729E+00   -0.11773E+00  5408   0.475E+00-0.323E-02
CGA:  20    -0.235836768606E+03   -0.66879E-01   -0.66897E-01  5408   0.659E+00 0.185E-03
CGA:  21    -0.235936391584E+03   -0.99623E-01   -0.99631E-01  5408   0.577E+00-0.143E-03
CGA:  22    -0.235981698060E+03   -0.45306E-01   -0.45215E-01  5408   0.261E+00 0.654E-04
CGA:  23    -0.236010570059E+03   -0.28872E-01   -0.28844E-01  5408   0.232E+00-0.465E-03
CGA:  24    -0.236051660101E+03   -0.41090E-01   -0.41122E-01  5408   0.250E+00-0.103E-02
CGA:  25    -0.236080066921E+03   -0.28407E-01   -0.28393E-01  5408   0.199E+00-0.465E-03
CGA:  26    -0.236107207049E+03   -0.27140E-01   -0.27121E-01  5408   0.183E+00-0.289E-03
CGA:  27    -0.236125904019E+03   -0.18697E-01   -0.18688E-01  5408   0.103E+00 0.250E-03
CGA:  28    -0.236136735600E+03   -0.10832E-01   -0.10822E-01  5408   0.781E-01 0.327E-03
CGA:  29    -0.236146777057E+03   -0.10041E-01   -0.10046E-01  5408   0.720E-01 0.399E-03
CGA:  30    -0.236155760261E+03   -0.89832E-02   -0.89900E-02  5408   0.473E-01 0.399E-03
CGA:  31    -0.236163437859E+03   -0.76776E-02   -0.76728E-02  5408   0.588E-01 0.341E-03
CGA:  32    -0.236170640011E+03   -0.72022E-02   -0.72091E-02  5408   0.444E-01 0.406E-03
CGA:  33    -0.236175001108E+03   -0.43611E-02   -0.43722E-02  5408   0.252E-01 0.258E-03
CGA:  34    -0.236178072316E+03   -0.30712E-02   -0.30740E-02  5408   0.235E-01 0.220E-03
CGA:  35    -0.236181159729E+03   -0.30874E-02   -0.30899E-02  5408   0.172E-01 0.159E-03
CGA:  36    -0.236183455921E+03   -0.22962E-02   -0.22967E-02  5408   0.143E-01 0.798E-04
CGA:  37    -0.236185921655E+03   -0.24657E-02   -0.24623E-02  5408   0.197E-01 0.681E-04
CGA:  38    -0.236187884723E+03   -0.19631E-02   -0.19633E-02  5408   0.101E-01 0.427E-04
CGA:  39    -0.236188918492E+03   -0.10338E-02   -0.10351E-02  5408   0.621E-02 0.275E-04
SDA:  40    -0.236189832158E+03   -0.91367E-03   -0.91366E-03  5408   0.813E-02 0.735E-05
CGA:  41    -0.236190420252E+03   -0.58809E-03   -0.58724E-03  5408   0.532E-02-0.160E-04
CGA:  42    -0.236191102237E+03   -0.68198E-03   -0.68178E-03  5408   0.391E-02-0.324E-04
CGA:  43    -0.236191749914E+03   -0.64768E-03   -0.64839E-03  5408   0.682E-02-0.225E-04
CGA:  44    -0.236192467735E+03   -0.71782E-03   -0.71718E-03  5408   0.244E-02-0.159E-04
CGA:  45    -0.236192783988E+03   -0.31625E-03   -0.31622E-03  5408   0.299E-02-0.736E-05
CGA:  46    -0.236193349856E+03   -0.56587E-03   -0.56673E-03  5408   0.267E-02-0.148E-04
CGA:  47    -0.236193630898E+03   -0.28104E-03   -0.28096E-03  5408   0.230E-02-0.273E-05
CGA:  48    -0.236194176558E+03   -0.54566E-03   -0.54566E-03  5408   0.301E-02-0.176E-05
CGA:  49    -0.236194400513E+03   -0.22395E-03   -0.22360E-03  5408   0.158E-02 0.780E-05
CGA:  50    -0.236194653708E+03   -0.25319E-03   -0.25309E-03  5408   0.225E-02 0.273E-05
CGA:  51    -0.236194902627E+03   -0.24892E-03   -0.24870E-03  5408   0.655E-03 0.239E-05
CGA:  52    -0.236195050207E+03   -0.14758E-03   -0.14728E-03  5408   0.156E-02 0.482E-05
CGA:  53    -0.236195256593E+03   -0.20639E-03   -0.20647E-03  5408   0.484E-03 0.943E-05
CGA:  54    -0.236195309749E+03   -0.53156E-04   -0.53178E-04  5408   0.691E-03 0.276E-05
CGA:  55    -0.236195574599E+03   -0.26485E-03   -0.27286E-03  5408   0.685E-03-0.300E-04
CGA:  56    -0.236195588226E+03   -0.13628E-04   -0.10023E-04  5408  -0.182E-03 0.356E-04
CGA:  57    -0.236195453294E+03    0.13493E-03   -0.97864E-05  5408   0.175E-02-0.871E-03
CGA:  58    -0.236195527684E+03   -0.74390E-04   -0.74373E-04  5408   0.202E-03-0.533E-06
CGA:  59    -0.236195555029E+03   -0.27345E-04   -0.27350E-04  5408   0.317E-03 0.456E-06
CGA:  60    -0.236195630656E+03   -0.75627E-04   -0.72984E-04  5408   0.253E-03 0.266E-04
CGA:  61    -0.236195646635E+03   -0.15978E-04   -0.15933E-04  5408   0.452E-05-0.427E-06
CGA:  62    -0.236195650588E+03   -0.39527E-05    0.14822E-06  5408   0.453E-04 0.198E-04
CGA:  63    -0.236195657728E+03   -0.71407E-05   -0.71370E-05  5408   0.940E-04 0.707E-07
CGA:  64    -0.236195698350E+03   -0.40622E-04   -0.33013E-04  5408   0.109E-03 0.421E-04
CGA:  65    -0.236195710243E+03   -0.11893E-04   -0.11841E-04  5408  -0.644E-05-0.670E-06
CGA:  66    -0.236195703863E+03    0.63797E-05   -0.19864E-06  5408   0.148E-03-0.431E-04
CGA:  67    -0.236195710482E+03   -0.66188E-05   -0.66141E-05  5408   0.207E-04-0.373E-08
CGA:  68    -0.236195716059E+03   -0.55772E-05   -0.56172E-05  5408   0.906E-04-0.312E-06
CGA:  69    -0.236195745901E+03   -0.29842E-04   -0.24815E-04  5408  -0.135E-03 0.363E-04
CGA:  70    -0.236195661113E+03    0.84788E-04   -0.33177E-04  5408   0.157E-02-0.804E-03
CGA:  71    -0.236195724969E+03   -0.63856E-04   -0.63882E-04  5408   0.697E-04 0.430E-06
CGA:  72    -0.236195732487E+03   -0.75179E-05   -0.75141E-05  5408   0.579E-04-0.251E-06
CGA:  73    -0.236195737220E+03   -0.47332E-05   -0.47706E-05  5408   0.117E-04-0.270E-06
CGA:  74    -0.236195738654E+03   -0.14341E-05   -0.14385E-05  5408   0.145E-04 0.369E-07
CGA:  75    -0.236195742997E+03   -0.43422E-05    0.25388E-04  5408   0.215E-04 0.165E-04
CGA:  76    -0.236195744994E+03   -0.19978E-05   -0.20032E-05  5408   0.132E-04 0.768E-07
CGA:  77    -0.236195748104E+03   -0.31095E-05   -0.30574E-05  5408   0.341E-04 0.542E-06
CGA:  78    -0.236195755243E+03   -0.71392E-05   -0.67332E-05  5408   0.876E-04 0.708E-05
CGA:  79    -0.236195812822E+03   -0.57579E-04    0.92501E-05  5408   0.419E-04 0.328E-03
CGA:  80    -0.236195814047E+03   -0.12250E-05   -0.11734E-05  5408  -0.215E-04 0.102E-05
CGA:  81    -0.236195807633E+03    0.64145E-05   -0.53042E-04  5408   0.267E-05-0.236E-04
CGA:  82    -0.236195807644E+03   -0.11927E-07   -0.88139E-08  5408  -0.246E-05 0.552E-07
CGA:  83    -0.236195803366E+03    0.42783E-05    0.51761E-04  5408   0.168E-04-0.240E-05
CGA:  84    -0.236195803655E+03   -0.28860E-06   -0.27402E-06  5408  -0.100E-04 0.299E-06
CGA:  85    -0.236195770981E+03    0.32674E-04   -0.20018E-04  5408   0.200E-03-0.153E-04
CGA:  86    -0.236195781822E+03   -0.10841E-04   -0.10864E-04  5408   0.582E-04 0.943E-07
CGA:  87    -0.236195787982E+03   -0.61592E-05   -0.61496E-05  5408   0.252E-04 0.246E-07
CGA:  88    -0.236195790750E+03   -0.27681E-05   -0.27661E-05  5408   0.200E-05 0.449E-07
CGA:  89    -0.236195791186E+03   -0.43651E-06   -0.43750E-06  5408   0.940E-05 0.164E-07
CGA:  90    -0.236195801748E+03   -0.10561E-04    0.34949E-05  5408   0.458E-04 0.188E-04
CGA:  91    -0.236195803848E+03   -0.21006E-05   -0.20830E-05  5408  -0.331E-05-0.637E-08
CGA:  92    -0.236195798554E+03    0.52943E-05   -0.46741E-06  5408   0.549E-04-0.119E-04
CGA:  93    -0.236195801055E+03   -0.25007E-05   -0.25112E-05  5408   0.260E-05 0.142E-07
CGA:  94    -0.236195801272E+03   -0.21735E-06   -0.22050E-06  5408   0.170E-05 0.915E-08
CGA:  95    -0.236195804826E+03   -0.35543E-05   -0.26522E-05  5408   0.662E-04 0.922E-06
CGA:  96    -0.236195807381E+03   -0.25548E-05   -0.24130E-05  5408  -0.187E-05 0.868E-06
CGA:  97    -0.236195803424E+03    0.39574E-05   -0.19170E-06  5408   0.865E-04-0.107E-04
CGA:  98    -0.236195807322E+03   -0.38980E-05   -0.38952E-05  5408   0.959E-06 0.357E-06
CGA:  99    -0.236195807330E+03   -0.83655E-08   -0.80192E-08  5408  -0.110E-06 0.896E-08
   1 F= -.23619581E+03 E0= -.23619532E+03  d E =-.146068E-02  mag=    -9.9056
