 vasp.5.4.4.18Apr17-6-g9f103f2a35 (build Dec 20 2018 12:05:58) complex          
  
 executed on             LinuxIFC date 2019.06.20  16:20:12
 running on   32 total cores
 distrk:  each k-point on    8 cores,    4 groups
 distr:  one band on NCORES_PER_BAND=   4 cores,    2 groups


--------------------------------------------------------------------------------------------------------


 INCAR:
 POTCAR:    PAW_PBE Al 04Jan2001                  
 POTCAR:    PAW_PBE Mn 06Sep2000                  

 ----------------------------------------------------------------------------- 
|                                                                             |
|           W    W    AA    RRRRR   N    N  II  N    N   GGGG   !!!           |
|           W    W   A  A   R    R  NN   N  II  NN   N  G    G  !!!           |
|           W    W  A    A  R    R  N N  N  II  N N  N  G       !!!           |
|           W WW W  AAAAAA  RRRRR   N  N N  II  N  N N  G  GGG   !            |
|           WW  WW  A    A  R   R   N   NN  II  N   NN  G    G                |
|           W    W  A    A  R    R  N    N  II  N    N   GGGG   !!!           |
|                                                                             |
|      You have enabled k-point parallelism (KPAR>1).                         |
|      This developmental code was originally  written by Paul Kent at ORNL,  |
|      and carefully double checked in Vienna.                                |
|      GW as well as linear response parallelism added by Martijn Marsman     |
|      and Georg Kresse.                                                      |
|      Carefully verify results versus KPAR=1.                                |
|      Report problems to Paul Kent and Vienna.                               |
|                                                                             |
 ----------------------------------------------------------------------------- 

 POTCAR:    PAW_PBE Al 04Jan2001                  
   VRHFIN =Al: s2p1                                                             
   LEXCH  = PE                                                                  
   EATOM  =    53.5387 eV,    3.9350 Ry                                         
                                                                                
   TITEL  = PAW_PBE Al 04Jan2001                                                
   LULTRA =        F    use ultrasoft PP ?                                      
   IUNSCR =        1    unscreen: 0-lin 1-nonlin 2-no                           
   RPACOR =    1.500    partial core radius                                     
   POMASS =   26.981; ZVAL   =    3.000    mass and valenz                      
   RCORE  =    1.900    outmost cutoff radius                                   
   RWIGS  =    2.650; RWIGS  =    1.402    wigner-seitz radius (au A)           
   ENMAX  =  240.300; ENMIN  =  180.225 eV                                      
   ICORE  =        2    local potential                                         
   LCOR   =        T    correct aug charges                                     
   LPAW   =        T    paw PP                                                  
   EAUG   =  291.052                                                            
   DEXC   =    0.000                                                            
   RMAX   =    1.939    core radius for proj-oper                               
   RAUG   =    1.300    factor for augmentation sphere                          
   RDEP   =    1.966    radius for radial grids                                 
   RDEPT  =    1.856    core radius for aug-charge                              
                                                                                
   Atomic configuration                                                         
    6 entries                                                                   
     n  l   j            E        occ.                                          
     1  0  0.50     -1511.1048   2.0000                                         
     2  0  0.50      -108.1629   2.0000                                         
     2  1  1.50       -69.6402   6.0000                                         
     3  0  0.50        -7.7528   2.0000                                         
     3  1  1.50        -2.7121   1.0000                                         
     3  2  2.50        -2.7212   0.0000                                         
   Description                                                                  
     l       E           TYP  RCUT    TYP  RCUT                                 
     0     -7.7528455     23  1.900                                             
     0     -3.3096929     23  1.900                                             
     1     -2.7120682     23  1.900                                             
     1     13.6058260     23  1.900                                             
     2     -2.7211652      7  1.900                                             
  local pseudopotential read in
  partial core-charges read in
  partial kinetic energy density read in
  atomic valenz-charges read in
  non local Contribution for L=           0  read in
    real space projection operators read in
  non local Contribution for L=           0  read in
    real space projection operators read in
  non local Contribution for L=           1  read in
    real space projection operators read in
  non local Contribution for L=           1  read in
    real space projection operators read in
    PAW grid and wavefunctions read in
 
   number of l-projection  operators is LMAX  =           4
   number of lm-projection operators is LMMAX =           8
 
 POTCAR:    PAW_PBE Mn 06Sep2000                  
   VRHFIN =Mn: d6 s1                                                            
   LEXCH  = PE                                                                  
   EATOM  =   416.7541 eV,   30.6306 Ry                                         
                                                                                
   TITEL  = PAW_PBE Mn 06Sep2000                                                
   LULTRA =        F    use ultrasoft PP ?                                      
   IUNSCR =        1    unscreen: 0-lin 1-nonlin 2-no                           
   RPACOR =    2.000    partial core radius                                     
   POMASS =   54.938; ZVAL   =    7.000    mass and valenz                      
   RCORE  =    2.300    outmost cutoff radius                                   
   RWIGS  =    2.500; RWIGS  =    1.323    wigner-seitz radius (au A)           
   ENMAX  =  269.864; ENMIN  =  202.398 eV                                      
   RCLOC  =    1.725    cutoff for local pot                                    
   LCOR   =        T    correct aug charges                                     
   LPAW   =        T    paw PP                                                  
   EAUG   =  500.711                                                            
   DEXC   =    0.000                                                            
   RMAX   =    2.343    core radius for proj-oper                               
   RAUG   =    1.300    factor for augmentation sphere                          
   RDEP   =    2.338    radius for radial grids                                 
   RDEPT  =    1.911    core radius for aug-charge                              
                                                                                
   Atomic configuration                                                         
    9 entries                                                                   
     n  l   j            E        occ.                                          
     1  0  0.50     -6424.8288   2.0000                                         
     2  0  0.50      -739.1154   2.0000                                         
     2  1  1.50      -625.3949   6.0000                                         
     3  0  0.50       -81.6100   2.0000                                         
     3  1  1.50       -50.4667   6.0000                                         
     3  2  2.50        -3.3745   6.0000                                         
     4  0  0.50        -4.1331   1.0000                                         
     4  1  0.50        -4.0817   0.0000                                         
     4  3  2.50        -1.3606   0.0000                                         
   Description                                                                  
     l       E           TYP  RCUT    TYP  RCUT                                 
     2     -3.3744664     23  2.300                                             
     2     -4.7350490     23  2.300                                             
     0     -4.1331408     23  2.300                                             
     0      7.6656614     23  2.300                                             
     1     -2.7211652     23  2.300                                             
     1     20.4087390     23  2.300                                             
  local pseudopotential read in
  partial core-charges read in
  partial kinetic energy density read in
  atomic valenz-charges read in
  non local Contribution for L=           2  read in
    real space projection operators read in
  non local Contribution for L=           2  read in
    real space projection operators read in
  non local Contribution for L=           0  read in
    real space projection operators read in
  non local Contribution for L=           0  read in
    real space projection operators read in
  non local Contribution for L=           1  read in
    real space projection operators read in
  non local Contribution for L=           1  read in
    real space projection operators read in
    PAW grid and wavefunctions read in
 
   number of l-projection  operators is LMAX  =           6
   number of lm-projection operators is LMMAX =          18
 

 ----------------------------------------------------------------------------- 
|                                                                             |
|  ADVICE TO THIS USER RUNNING 'VASP/VAMP'   (HEAR YOUR MASTER'S VOICE ...):  |
|                                                                             |
|      You have a (more or less) 'large supercell' and for larger cells       |
|      it might be more efficient to use real space projection opertators     |
|      So try LREAL= Auto  in the INCAR   file.                               |
|      Mind:          For very  accurate calculation you might also keep the  |
|      reciprocal projection scheme          (i.e. LREAL=.FALSE.)             |
|                                                                             |
 ----------------------------------------------------------------------------- 

  PAW_PBE Al 04Jan2001                  :
 energy of atom  1       EATOM=  -53.5387
 kinetic energy error for atom=    0.0005 (will be added to EATOM!!)
  PAW_PBE Mn 06Sep2000                  :
 energy of atom  2       EATOM= -416.7541
 kinetic energy error for atom=    0.0080 (will be added to EATOM!!)
 
 
 POSCAR: NewRef: 18, @ ['Mn', array([1.37502469, 
  positions in cartesian coordinates
  velocities in cartesian coordinates
  No initial velocities read in
 exchange correlation table for  LEXCH =        8
   RHO(1)=    0.500       N(1)  =     2000
   RHO(2)=  100.500       N(2)  =     4000
 


--------------------------------------------------------------------------------------------------------


 ion  position               nearest neighbor table
   1  0.000  0.000  0.000-  20 2.61  24 2.61  32 2.61  36 2.61  31 2.61  23 2.61  35 2.61  19 2.61
                             3 2.75   7 2.75   5 2.75  13 2.75
   2  0.000  0.000  0.500-  19 2.61  23 2.61  31 2.61  35 2.61  20 2.61  32 2.61  24 2.61  36 2.61
                             4 2.75   8 2.75   6 2.75  14 2.75
   3  0.000  0.333  0.000-  20 2.61  32 2.61  22 2.61  34 2.61  19 2.61  31 2.61  33 2.61  21 2.61
                             9 2.75   1 2.75   5 2.75  15 2.75
   4  0.000  0.333  0.500-  19 2.61  31 2.61  21 2.61  33 2.61  32 2.61  20 2.61  22 2.61  34 2.61
                            10 2.75   2 2.75   6 2.75  16 2.75
   5  0.000  0.667  0.000-  22 2.61  34 2.61  24 2.61  36 2.61  21 2.61  33 2.61  35 2.61  23 2.61
                             3 2.75  11 2.75   1 2.75  17 2.75
   6  0.000  0.667  0.500-  21 2.61  33 2.61  23 2.61  35 2.61  34 2.61  22 2.61  24 2.61  36 2.61
                             4 2.75  12 2.75   2 2.75  18 2.75
   7  0.333  0.000  0.000-  20 2.61  24 2.61  26 2.61  30 2.61  23 2.61  19 2.61  29 2.61  25 2.61
                            13 2.75   1 2.75   9 2.75  11 2.75
   8  0.333  0.000  0.500-  19 2.61  23 2.61  25 2.61  29 2.61  20 2.61  24 2.61  26 2.61  30 2.61
                            14 2.75   2 2.75  10 2.75  12 2.75
   9  0.333  0.333  0.000-  20 2.61  22 2.61  26 2.61  19 2.61  28 2.61  21 2.61  25 2.61  27 2.61
                             3 2.75   7 2.75  11 2.75  15 2.75
  10  0.333  0.333  0.500-  19 2.61  21 2.61  25 2.61  20 2.61  27 2.61  26 2.61  22 2.61  28 2.61
                             4 2.75   8 2.75  12 2.75  16 2.75
  11  0.333  0.667  0.000-  22 2.61  24 2.61  28 2.61  21 2.61  30 2.61  23 2.61  27 2.61  29 2.61
                            17 2.75   5 2.75   9 2.75   7 2.75
  12  0.333  0.667  0.500-  21 2.61  23 2.61  27 2.61  22 2.61  29 2.61  28 2.61  24 2.61  30 2.61
                            18 2.75   6 2.75  10 2.75   8 2.75
  13  0.667  0.000  0.000-  26 2.61  30 2.61  32 2.61  36 2.61  29 2.61  25 2.61  35 2.61  31 2.61
                             7 2.75  15 2.75   1 2.75  17 2.75
  14  0.667  0.000  0.500-  25 2.61  29 2.61  31 2.61  35 2.61  26 2.61  30 2.61  32 2.61  36 2.61
                             8 2.75  16 2.75   2 2.75  18 2.75
  15  0.667  0.333  0.000-  26 2.61  28 2.61  32 2.61  25 2.61  34 2.61  27 2.61  31 2.61  33 2.61
                            17 2.75   9 2.75  13 2.75   3 2.75
  16  0.667  0.333  0.500-  25 2.61  27 2.61  31 2.61  26 2.61  33 2.61  32 2.61  28 2.61  34 2.61
                            18 2.75  10 2.75  14 2.75   4 2.75
  17  0.667  0.667  0.000-  28 2.61  30 2.61  34 2.61  27 2.61  36 2.61  29 2.61  33 2.61  35 2.61
                            11 2.75  15 2.75  13 2.75   5 2.75
  18  0.667  0.667  0.500-  27 2.61  29 2.61  33 2.61  28 2.61  35 2.61  34 2.61  30 2.61  36 2.61
                            12 2.75  16 2.75  14 2.75   6 2.75
  19  0.167  0.167  0.250-  10 2.61   8 2.61   4 2.61   9 2.61   2 2.61   7 2.61   3 2.61   1 2.61
                            21 2.75  25 2.75  23 2.75  31 2.75
  20  0.167  0.167  0.750-   9 2.61   7 2.61   3 2.61  10 2.61   1 2.61   4 2.61   8 2.61   2 2.61
                            22 2.75  26 2.75  24 2.75  32 2.75
  21  0.167  0.500  0.250-  12 2.61  10 2.61   6 2.61  11 2.61   4 2.61   9 2.61   5 2.61   3 2.61
                            19 2.75  23 2.75  27 2.75  33 2.75
  22  0.167  0.500  0.750-  11 2.61   9 2.61   5 2.61  12 2.61   3 2.61   6 2.61  10 2.61   4 2.61
                            20 2.75  24 2.75  28 2.75  34 2.75
  23  0.167  0.833  0.250-   8 2.61  12 2.61   2 2.61   6 2.61  11 2.61   7 2.61   5 2.61   1 2.61
                            21 2.75  29 2.75  19 2.75  35 2.75
  24  0.167  0.833  0.750-   7 2.61  11 2.61   1 2.61   5 2.61   8 2.61  12 2.61   2 2.61   6 2.61
                            22 2.75  30 2.75  20 2.75  36 2.75
  25  0.500  0.167  0.250-  16 2.61  14 2.61  10 2.61  15 2.61   8 2.61  13 2.61   9 2.61   7 2.61
                            19 2.75  27 2.75  31 2.75  29 2.75
  26  0.500  0.167  0.750-  15 2.61  13 2.61   9 2.61  16 2.61   7 2.61  10 2.61  14 2.61   8 2.61
                            20 2.75  28 2.75  32 2.75  30 2.75
  27  0.500  0.500  0.250-  18 2.61  16 2.61  12 2.61  17 2.61  10 2.61  15 2.61  11 2.61   9 2.61
                            21 2.75  25 2.75  29 2.75  33 2.75
  28  0.500  0.500  0.750-  17 2.61  15 2.61  11 2.61  18 2.61   9 2.61  12 2.61  16 2.61  10 2.61
                            22 2.75  26 2.75  30 2.75  34 2.75
  29  0.500  0.833  0.250-  14 2.61  18 2.61   8 2.61  12 2.61  17 2.61  13 2.61  11 2.61   7 2.61
                            23 2.75  27 2.75  35 2.75  25 2.75
  30  0.500  0.833  0.750-  13 2.61  17 2.61   7 2.61  11 2.61  14 2.61  18 2.61   8 2.61  12 2.61
                            24 2.75  28 2.75  36 2.75  26 2.75
  31  0.833  0.167  0.250-   4 2.61  16 2.61  14 2.61   2 2.61  15 2.61   3 2.61  13 2.61   1 2.61
                            25 2.75  33 2.75  19 2.75  35 2.75
  32  0.833  0.167  0.750-   3 2.61  15 2.61  13 2.61   1 2.61   4 2.61  16 2.61   2 2.61  14 2.61
                            26 2.75  34 2.75  20 2.75  36 2.75
  33  0.833  0.500  0.250-   6 2.61  18 2.61  16 2.61   4 2.61  17 2.61   5 2.61  15 2.61   3 2.61
                            27 2.75  31 2.75  35 2.75  21 2.75
  34  0.833  0.500  0.750-   5 2.61  17 2.61  15 2.61   3 2.61   6 2.61  18 2.61   4 2.61  16 2.61
                            28 2.75  32 2.75  36 2.75  22 2.75
  35  0.833  0.833  0.250-   2 2.61   6 2.61  14 2.61  18 2.61  13 2.61   5 2.61  17 2.61   1 2.61
                            29 2.75  33 2.75  31 2.75  23 2.75
  36  0.833  0.833  0.750-   1 2.61   5 2.61  13 2.61  17 2.61   2 2.61  14 2.61   6 2.61  18 2.61
                            30 2.75  34 2.75  32 2.75  24 2.75
 
  LATTYP: Found a simple tetragonal cell.
 ALAT       =     8.2501481662
 C/A-ratio  =     0.8428059861
  
  Lattice vectors:
  
 A1 = (   8.2501481662,   0.0000000000,   0.0000000000)
 A2 = (   0.0000000000,   8.2501481662,   0.0000000000)
 A3 = (   0.0000000000,   0.0000000000,   6.9532742610)


Analysis of symmetry for initial positions (statically):
=====================================================================
 Subroutine PRICEL returns following result:
 
  LATTYP: Found a simple tetragonal cell.
 ALAT       =     2.7500493888
 C/A-ratio  =     1.2642089792
  
  Lattice vectors:
  
 A1 = (   2.7500493888,   0.0000000000,   0.0000000000)
 A2 = (   0.0000000000,   2.7500493888,   0.0000000000)
 A3 = (   0.0000000000,   0.0000000000,   3.4766371305)
 
  18 primitive cells build up your supercell.
 

 Routine SETGRP: Setting up the symmetry group for a 
 simple tetragonal supercell.


 Subroutine GETGRP returns: Found 16 space group operations
 (whereof 16 operations were pure point group operations)
 out of a pool of 16 trial point group operations.


The static configuration has the point symmetry D_4h.


Analysis of symmetry for dynamics (positions and initial velocities):
=====================================================================
 Subroutine PRICEL returns following result:
 
  LATTYP: Found a simple tetragonal cell.
 ALAT       =     2.7500493888
 C/A-ratio  =     1.2642089792
  
  Lattice vectors:
  
 A1 = (   2.7500493888,   0.0000000000,   0.0000000000)
 A2 = (   0.0000000000,   2.7500493888,   0.0000000000)
 A3 = (   0.0000000000,   0.0000000000,   3.4766371305)
 
  18 primitive cells build up your supercell.
 

 Routine SETGRP: Setting up the symmetry group for a 
 simple tetragonal supercell.


 Subroutine GETGRP returns: Found 16 space group operations
 (whereof 16 operations were pure point group operations)
 out of a pool of 16 trial point group operations.


The dynamic configuration has the point symmetry D_4h.


Analysis of structural, dynamic, and magnetic symmetry:
=====================================================================
 Subroutine PRICEL returns:
 Original cell was already a primitive cell.
 

 Routine SETGRP: Setting up the symmetry group for a 
 simple tetragonal supercell.


 Subroutine GETGRP returns: Found  2 space group operations
 (whereof  1 operations were pure point group operations)
 out of a pool of 16 trial point group operations.


The magnetic configuration has the point symmetry C_1 .
 The point group associated with its full space group is C_1h.


 Subroutine INISYM returns: Found  2 space group operations
 (whereof  1 operations are pure point group operations),
 and found     1 'primitive' translations

 
 
 KPOINTS: automatic KPOINTS                       

Automatic generation of k-mesh.
 generate k-points for:    5    5    6
Space group operators:
 irot       det(A)        alpha          n_x          n_y          n_z        tau_x        tau_y        tau_z
    1     1.000000     0.000001     1.000000     0.000000     0.000000     0.000000     0.000000     0.000000
    2    -1.000000   179.999999     0.000000     0.000000     1.000000     0.000000     0.000000     0.500000
 
 Subroutine IBZKPT returns following result:
 ===========================================
 
 Found     52 irreducible k-points:
 
 Following reciprocal coordinates:
            Coordinates               Weight
  0.000000  0.000000  0.000000      1.000000
  0.200000  0.000000  0.000000      2.000000
  0.400000  0.000000  0.000000      2.000000
  0.000000  0.200000  0.000000      2.000000
  0.200000  0.200000  0.000000      2.000000
  0.400000  0.200000  0.000000      2.000000
 -0.400000  0.200000  0.000000      2.000000
 -0.200000  0.200000  0.000000      2.000000
  0.000000  0.400000  0.000000      2.000000
  0.200000  0.400000  0.000000      2.000000
  0.400000  0.400000  0.000000      2.000000
 -0.400000  0.400000  0.000000      2.000000
 -0.200000  0.400000  0.000000      2.000000
  0.000000  0.000000  0.166667      2.000000
  0.200000  0.000000  0.166667      4.000000
  0.400000  0.000000  0.166667      4.000000
  0.000000  0.200000  0.166667      4.000000
  0.200000  0.200000  0.166667      4.000000
  0.400000  0.200000  0.166667      4.000000
 -0.400000  0.200000  0.166667      4.000000
 -0.200000  0.200000  0.166667      4.000000
  0.000000  0.400000  0.166667      4.000000
  0.200000  0.400000  0.166667      4.000000
  0.400000  0.400000  0.166667      4.000000
 -0.400000  0.400000  0.166667      4.000000
 -0.200000  0.400000  0.166667      4.000000
  0.000000  0.000000  0.333333      2.000000
  0.200000  0.000000  0.333333      4.000000
  0.400000  0.000000  0.333333      4.000000
  0.000000  0.200000  0.333333      4.000000
  0.200000  0.200000  0.333333      4.000000
  0.400000  0.200000  0.333333      4.000000
 -0.400000  0.200000  0.333333      4.000000
 -0.200000  0.200000  0.333333      4.000000
  0.000000  0.400000  0.333333      4.000000
  0.200000  0.400000  0.333333      4.000000
  0.400000  0.400000  0.333333      4.000000
 -0.400000  0.400000  0.333333      4.000000
 -0.200000  0.400000  0.333333      4.000000
  0.000000  0.000000  0.500000      1.000000
  0.200000  0.000000  0.500000      2.000000
  0.400000  0.000000  0.500000      2.000000
  0.000000  0.200000  0.500000      2.000000
  0.200000  0.200000  0.500000      2.000000
  0.400000  0.200000  0.500000      2.000000
 -0.400000  0.200000  0.500000      2.000000
 -0.200000  0.200000  0.500000      2.000000
  0.000000  0.400000  0.500000      2.000000
  0.200000  0.400000  0.500000      2.000000
  0.400000  0.400000  0.500000      2.000000
 -0.400000  0.400000  0.500000      2.000000
 -0.200000  0.400000  0.500000      2.000000
 
 Following cartesian coordinates:
            Coordinates               Weight
  0.000000  0.000000  0.000000      1.000000
  0.024242  0.000000  0.000000      2.000000
  0.048484  0.000000  0.000000      2.000000
  0.000000  0.024242  0.000000      2.000000
  0.024242  0.024242  0.000000      2.000000
  0.048484  0.024242  0.000000      2.000000
 -0.048484  0.024242  0.000000      2.000000
 -0.024242  0.024242  0.000000      2.000000
  0.000000  0.048484  0.000000      2.000000
  0.024242  0.048484  0.000000      2.000000
  0.048484  0.048484  0.000000      2.000000
 -0.048484  0.048484  0.000000      2.000000
 -0.024242  0.048484  0.000000      2.000000
  0.000000  0.000000  0.023970      2.000000
  0.024242  0.000000  0.023970      4.000000
  0.048484  0.000000  0.023970      4.000000
  0.000000  0.024242  0.023970      4.000000
  0.024242  0.024242  0.023970      4.000000
  0.048484  0.024242  0.023970      4.000000
 -0.048484  0.024242  0.023970      4.000000
 -0.024242  0.024242  0.023970      4.000000
  0.000000  0.048484  0.023970      4.000000
  0.024242  0.048484  0.023970      4.000000
  0.048484  0.048484  0.023970      4.000000
 -0.048484  0.048484  0.023970      4.000000
 -0.024242  0.048484  0.023970      4.000000
  0.000000  0.000000  0.047939      2.000000
  0.024242  0.000000  0.047939      4.000000
  0.048484  0.000000  0.047939      4.000000
  0.000000  0.024242  0.047939      4.000000
  0.024242  0.024242  0.047939      4.000000
  0.048484  0.024242  0.047939      4.000000
 -0.048484  0.024242  0.047939      4.000000
 -0.024242  0.024242  0.047939      4.000000
  0.000000  0.048484  0.047939      4.000000
  0.024242  0.048484  0.047939      4.000000
  0.048484  0.048484  0.047939      4.000000
 -0.048484  0.048484  0.047939      4.000000
 -0.024242  0.048484  0.047939      4.000000
  0.000000  0.000000  0.071909      1.000000
  0.024242  0.000000  0.071909      2.000000
  0.048484  0.000000  0.071909      2.000000
  0.000000  0.024242  0.071909      2.000000
  0.024242  0.024242  0.071909      2.000000
  0.048484  0.024242  0.071909      2.000000
 -0.048484  0.024242  0.071909      2.000000
 -0.024242  0.024242  0.071909      2.000000
  0.000000  0.048484  0.071909      2.000000
  0.024242  0.048484  0.071909      2.000000
  0.048484  0.048484  0.071909      2.000000
 -0.048484  0.048484  0.071909      2.000000
 -0.024242  0.048484  0.071909      2.000000
 


--------------------------------------------------------------------------------------------------------




 Dimension of arrays:
   k-points           NKPTS =     52   k-points in BZ     NKDIM =     52   number of bands    NBANDS=    104
   number of dos      NEDOS =    301   number of ions     NIONS =     36
   non local maximal  LDIM  =      6   non local SUM 2l+1 LMDIM =     18
   total plane-waves  NPLWV = 139968
   max r-space proj   IRMAX =      1   max aug-charges    IRDMAX=  92271
   dimension x,y,z NGX =    54 NGY =   54 NGZ =   48
   dimension x,y,z NGXF=   108 NGYF=  108 NGZF=   96
   support grid    NGXF=   216 NGYF=  216 NGZF=  192
   ions per type =              18  18
   NGX,Y,Z   is equivalent  to a cutoff of  10.88, 10.88, 11.48 a.u.
   NGXF,Y,Z  is equivalent  to a cutoff of  21.76, 21.76, 22.95 a.u.

 SYSTEM =  AlMn_pv                                 
 POSCAR =  NewRef: 18, @ ['Mn', array([1.37502469, 

 Startparameter for this run:
   NWRITE =      2    write-flag & timer
   PREC   = accura    normal or accurate (medium, high low for compatibility)
   ISTART =      0    job   : 0-new  1-cont  2-samecut
   ICHARG =      2    charge: 1-file 2-atom 10-const
   ISPIN  =      2    spin polarized calculation?
   LNONCOLLINEAR =      F non collinear calculations
   LSORBIT =      F    spin-orbit coupling
   INIWAV =      1    electr: 0-lowe 1-rand  2-diag
   LASPH  =      F    aspherical Exc in radial PAW
   METAGGA=      F    non-selfconsistent MetaGGA calc.

 Electronic Relaxation 1
   ENCUT  =  404.8 eV  29.75 Ry    5.45 a.u.  13.53 13.53 11.41*2*pi/ulx,y,z
   ENINI  =  404.8     initial cutoff
   ENAUG  =  500.7 eV  augmentation charge cutoff
   NELM   =    100;   NELMIN=  4; NELMDL= -8     # of ELM steps 
   EDIFF  = 0.1E-06   stopping-criterion for ELM
   LREAL  =      F    real-space projection
   NLSPLINE    = F    spline interpolate recip. space projectors
   LCOMPAT=      F    compatible to vasp.4.4
   GGA_COMPAT  = T    GGA compatible to vasp.4.4-vasp.4.6
   LMAXPAW     = -100 max onsite density
   LMAXMIX     =    2 max onsite mixed and CHGCAR
   VOSKOWN=      0    Vosko Wilk Nusair interpolation
   ROPT   =    0.00000   0.00000
 Ionic relaxation
   EDIFFG = 0.1E-05   stopping-criterion for IOM
   NSW    =      0    number of steps for IOM
   NBLOCK =      1;   KBLOCK =      1    inner block; outer block 
   IBRION =     -1    ionic relax: 0-MD 1-quasi-New 2-CG
   NFREE  =      0    steps in history (QN), initial steepest desc. (CG)
   ISIF   =      2    stress and relaxation
   IWAVPR =     10    prediction:  0-non 1-charg 2-wave 3-comb
   ISYM   =      2    0-nonsym 1-usesym 2-fastsym
   LCORR  =      T    Harris-Foulkes like correction to forces

   POTIM  = 0.2000    time-step for ionic-motion
   TEIN   =    0.0    initial temperature
   TEBEG  =    0.0;   TEEND  =   0.0 temperature during run
   SMASS  =  -3.00    Nose mass-parameter (am)
   estimated Nose-frequenzy (Omega)   =  0.10E-29 period in steps =****** mass=  -0.156E-26a.u.
   SCALEE = 1.0000    scale energy and forces
   NPACO  =    256;   APACO  = 16.0  distance and # of slots for P.C.
   PSTRESS=    0.0 pullay stress

  Mass of Ions in am
   POMASS =  26.98 54.94
  Ionic Valenz
   ZVAL   =   3.00  7.00
  Atomic Wigner-Seitz radii
   RWIGS  =  -1.00 -1.00
  virtual crystal weights 
   VCA    =   1.00  1.00
   NELECT =     180.0000    total number of electrons
   NUPDOWN=      -1.0000    fix difference up-down

 DOS related values:
   EMIN   =  10.00;   EMAX   =-10.00  energy-range for DOS
   EFERMI =   0.00
   ISMEAR =     1;   SIGMA  =   0.20  broadening in eV -4-tet -1-fermi 0-gaus

 Electronic relaxation 2 (details)
   IALGO  =     58    algorithm
   LDIAG  =      T    sub-space diagonalisation (order eigenvalues)
   LSUBROT=      F    optimize rotation matrix (better conditioning)
   TURBO    =      0    0=normal 1=particle mesh
   IRESTART =      0    0=no restart 2=restart with 2 vectors
   NREBOOT  =      0    no. of reboots
   NMIN     =      0    reboot dimension
   EREF     =   0.00    reference energy to select bands
   IMIX   =      4    mixing-type and parameters
     AMIX     =   0.40;   BMIX     =  1.00
     AMIX_MAG =   1.60;   BMIX_MAG =  1.00
     AMIN     =   0.10
     WC   =   100.;   INIMIX=   1;  MIXPRE=   1;  MAXMIX= -45

 Intra band minimization:
   WEIMIN = 0.0000     energy-eigenvalue tresh-hold
   EBREAK =  0.24E-09  absolut break condition
   DEPER  =   0.30     relativ break condition  

   TIME   =   0.40     timestep for ELM

  volume/ion in A,a.u.               =      13.15        88.72
  Fermi-wavevector in a.u.,A,eV,Ry     =   1.186118  2.241439 19.141722  1.406877
  Thomas-Fermi vector in A             =   2.322298
 
 Write flags
   LWAVE        =      F    write WAVECAR
   LDOWNSAMPLE  =      F    k-point downsampling of WAVECAR
   LCHARG       =      F    write CHGCAR
   LVTOT        =      F    write LOCPOT, total local potential
   LVHAR        =      F    write LOCPOT, Hartree potential only
   LELF         =      F    write electronic localiz. function (ELF)
   LORBIT       =     10    0 simple, 1 ext, 2 COOP (PROOUT), +10 PAW based schemes


 Dipole corrections
   LMONO  =      F    monopole corrections only (constant potential shift)
   LDIPOL =      F    correct potential (dipole corrections)
   IDIPOL =      0    1-x, 2-y, 3-z, 4-all directions 
   EPSILON=  1.0000000 bulk dielectric constant

 Exchange correlation treatment:
   GGA     =    --    GGA type
   LEXCH   =     8    internal setting for exchange type
   VOSKOWN=      0    Vosko Wilk Nusair interpolation
   LHFCALC =     F    Hartree Fock is set to
   LHFONE  =     F    Hartree Fock one center treatment
   AEXX    =    0.0000 exact exchange contribution

 Linear response parameters
   LEPSILON=     F    determine dielectric tensor
   LRPA    =     F    only Hartree local field effects (RPA)
   LNABLA  =     F    use nabla operator in PAW spheres
   LVEL    =     F    velocity operator in full k-point grid
   LINTERFAST=   F  fast interpolation
   KINTER  =     0    interpolate to denser k-point grid
   CSHIFT  =0.1000    complex shift for real part using Kramers Kronig
   OMEGAMAX=  -1.0    maximum frequency
   DEG_THRESHOLD= 0.2000000E-02 threshold for treating states as degnerate
   RTIME   =   -0.100 relaxation time in fs
  (WPLASMAI=    0.000 imaginary part of plasma frequency in eV, 0.658/RTIME)
   DFIELD  = 0.0000000 0.0000000 0.0000000 field for delta impulse in time
 
 Orbital magnetization related:
   ORBITALMAG=     F  switch on orbital magnetization
   LCHIMAG   =     F  perturbation theory with respect to B field
   DQ        =  0.001000  dq finite difference perturbation B field
   LLRAUG    =     F  two centre corrections for induced B field



--------------------------------------------------------------------------------------------------------


 Static calculation
 charge density and potential will be updated during run
 spin polarized calculation
 Conjugate gradient for all bands (Freysoldt, et al. PRB 79, 241103 (2009))
 preconditioned conjugated gradient                                        
 perform sub-space diagonalisation
    before iterative eigenvector-optimisation
 modified Broyden-mixing scheme, WC =      100.0
 initial mixing is a Kerker type mixing with AMIX =  0.4000 and BMIX =      1.0000
 Hartree-type preconditioning will be used
 using additional bands           14
 reciprocal scheme for non local part
 use partial core corrections
 no Harris-corrections to forces 
 use gradient corrections 
 use of overlap-Matrix (Vanderbilt PP)
 Methfessel and Paxton  Order N= 1 SIGMA  =   0.20


--------------------------------------------------------------------------------------------------------


  energy-cutoff  :      404.80
  volume of cell :      473.27
      direct lattice vectors                 reciprocal lattice vectors
     8.250148166  0.000000000  0.000000000     0.121209944  0.000000000  0.000000000
     0.000000000  8.250148166  0.000000000     0.000000000  0.121209944  0.000000000
     0.000000000  0.000000000  6.953274261     0.000000000  0.000000000  0.143817137

  length of vectors
     8.250148166  8.250148166  6.953274261     0.121209944  0.121209944  0.143817137


 
 k-points in units of 2pi/SCALE and weight: automatic KPOINTS                       
   0.00000000  0.00000000  0.00000000       0.007
   0.02424199  0.00000000  0.00000000       0.013
   0.04848398  0.00000000  0.00000000       0.013
   0.00000000  0.02424199  0.00000000       0.013
   0.02424199  0.02424199  0.00000000       0.013
   0.04848398  0.02424199  0.00000000       0.013
  -0.04848398  0.02424199  0.00000000       0.013
  -0.02424199  0.02424199  0.00000000       0.013
   0.00000000  0.04848398  0.00000000       0.013
   0.02424199  0.04848398  0.00000000       0.013
   0.04848398  0.04848398  0.00000000       0.013
  -0.04848398  0.04848398  0.00000000       0.013
  -0.02424199  0.04848398  0.00000000       0.013
   0.00000000  0.00000000  0.02396952       0.013
   0.02424199  0.00000000  0.02396952       0.027
   0.04848398  0.00000000  0.02396952       0.027
   0.00000000  0.02424199  0.02396952       0.027
   0.02424199  0.02424199  0.02396952       0.027
   0.04848398  0.02424199  0.02396952       0.027
  -0.04848398  0.02424199  0.02396952       0.027
  -0.02424199  0.02424199  0.02396952       0.027
   0.00000000  0.04848398  0.02396952       0.027
   0.02424199  0.04848398  0.02396952       0.027
   0.04848398  0.04848398  0.02396952       0.027
  -0.04848398  0.04848398  0.02396952       0.027
  -0.02424199  0.04848398  0.02396952       0.027
   0.00000000  0.00000000  0.04793905       0.013
   0.02424199  0.00000000  0.04793905       0.027
   0.04848398  0.00000000  0.04793905       0.027
   0.00000000  0.02424199  0.04793905       0.027
   0.02424199  0.02424199  0.04793905       0.027
   0.04848398  0.02424199  0.04793905       0.027
  -0.04848398  0.02424199  0.04793905       0.027
  -0.02424199  0.02424199  0.04793905       0.027
   0.00000000  0.04848398  0.04793905       0.027
   0.02424199  0.04848398  0.04793905       0.027
   0.04848398  0.04848398  0.04793905       0.027
  -0.04848398  0.04848398  0.04793905       0.027
  -0.02424199  0.04848398  0.04793905       0.027
   0.00000000  0.00000000  0.07190857       0.007
   0.02424199  0.00000000  0.07190857       0.013
   0.04848398  0.00000000  0.07190857       0.013
   0.00000000  0.02424199  0.07190857       0.013
   0.02424199  0.02424199  0.07190857       0.013
   0.04848398  0.02424199  0.07190857       0.013
  -0.04848398  0.02424199  0.07190857       0.013
  -0.02424199  0.02424199  0.07190857       0.013
   0.00000000  0.04848398  0.07190857       0.013
   0.02424199  0.04848398  0.07190857       0.013
   0.04848398  0.04848398  0.07190857       0.013
  -0.04848398  0.04848398  0.07190857       0.013
  -0.02424199  0.04848398  0.07190857       0.013
 
 k-points in reciprocal lattice and weights: automatic KPOINTS                       
   0.00000000  0.00000000  0.00000000       0.007
   0.20000000  0.00000000  0.00000000       0.013
   0.40000000  0.00000000  0.00000000       0.013
   0.00000000  0.20000000  0.00000000       0.013
   0.20000000  0.20000000  0.00000000       0.013
   0.40000000  0.20000000  0.00000000       0.013
  -0.40000000  0.20000000  0.00000000       0.013
  -0.20000000  0.20000000  0.00000000       0.013
   0.00000000  0.40000000  0.00000000       0.013
   0.20000000  0.40000000  0.00000000       0.013
   0.40000000  0.40000000  0.00000000       0.013
  -0.40000000  0.40000000  0.00000000       0.013
  -0.20000000  0.40000000  0.00000000       0.013
   0.00000000  0.00000000  0.16666667       0.013
   0.20000000  0.00000000  0.16666667       0.027
   0.40000000  0.00000000  0.16666667       0.027
   0.00000000  0.20000000  0.16666667       0.027
   0.20000000  0.20000000  0.16666667       0.027
   0.40000000  0.20000000  0.16666667       0.027
  -0.40000000  0.20000000  0.16666667       0.027
  -0.20000000  0.20000000  0.16666667       0.027
   0.00000000  0.40000000  0.16666667       0.027
   0.20000000  0.40000000  0.16666667       0.027
   0.40000000  0.40000000  0.16666667       0.027
  -0.40000000  0.40000000  0.16666667       0.027
  -0.20000000  0.40000000  0.16666667       0.027
   0.00000000  0.00000000  0.33333333       0.013
   0.20000000  0.00000000  0.33333333       0.027
   0.40000000  0.00000000  0.33333333       0.027
   0.00000000  0.20000000  0.33333333       0.027
   0.20000000  0.20000000  0.33333333       0.027
   0.40000000  0.20000000  0.33333333       0.027
  -0.40000000  0.20000000  0.33333333       0.027
  -0.20000000  0.20000000  0.33333333       0.027
   0.00000000  0.40000000  0.33333333       0.027
   0.20000000  0.40000000  0.33333333       0.027
   0.40000000  0.40000000  0.33333333       0.027
  -0.40000000  0.40000000  0.33333333       0.027
  -0.20000000  0.40000000  0.33333333       0.027
   0.00000000  0.00000000  0.50000000       0.007
   0.20000000  0.00000000  0.50000000       0.013
   0.40000000  0.00000000  0.50000000       0.013
   0.00000000  0.20000000  0.50000000       0.013
   0.20000000  0.20000000  0.50000000       0.013
   0.40000000  0.20000000  0.50000000       0.013
  -0.40000000  0.20000000  0.50000000       0.013
  -0.20000000  0.20000000  0.50000000       0.013
   0.00000000  0.40000000  0.50000000       0.013
   0.20000000  0.40000000  0.50000000       0.013
   0.40000000  0.40000000  0.50000000       0.013
  -0.40000000  0.40000000  0.50000000       0.013
  -0.20000000  0.40000000  0.50000000       0.013
 
 position of ions in fractional coordinates (direct lattice) 
   0.00000000  0.00000000  0.00000000
   0.00000000  0.00000000  0.50000000
   0.00000000  0.33333333  0.00000000
   0.00000000  0.33333333  0.50000000
   0.00000000  0.66666667  0.00000000
   0.00000000  0.66666667  0.50000000
   0.33333333  0.00000000  0.00000000
   0.33333333  0.00000000  0.50000000
   0.33333333  0.33333333  0.00000000
   0.33333333  0.33333333  0.50000000
   0.33333333  0.66666667  0.00000000
   0.33333333  0.66666667  0.50000000
   0.66666667  0.00000000  0.00000000
   0.66666667  0.00000000  0.50000000
   0.66666667  0.33333333  0.00000000
   0.66666667  0.33333333  0.50000000
   0.66666667  0.66666667  0.00000000
   0.66666667  0.66666667  0.50000000
   0.16666667  0.16666667  0.25000000
   0.16666667  0.16666667  0.75000000
   0.16666667  0.50000000  0.25000000
   0.16666667  0.50000000  0.75000000
   0.16666667  0.83333333  0.25000000
   0.16666667  0.83333333  0.75000000
   0.50000000  0.16666667  0.25000000
   0.50000000  0.16666667  0.75000000
   0.50000000  0.50000000  0.25000000
   0.50000000  0.50000000  0.75000000
   0.50000000  0.83333333  0.25000000
   0.50000000  0.83333333  0.75000000
   0.83333333  0.16666667  0.25000000
   0.83333333  0.16666667  0.75000000
   0.83333333  0.50000000  0.25000000
   0.83333333  0.50000000  0.75000000
   0.83333333  0.83333333  0.25000000
   0.83333333  0.83333333  0.75000000
 
 position of ions in cartesian coordinates  (Angst):
   0.00000000  0.00000000  0.00000000
   0.00000000  0.00000000  3.47663713
   0.00000000  2.75004939  0.00000000
   0.00000000  2.75004939  3.47663713
   0.00000000  5.50009878  0.00000000
   0.00000000  5.50009878  3.47663713
   2.75004939  0.00000000  0.00000000
   2.75004939  0.00000000  3.47663713
   2.75004939  2.75004939  0.00000000
   2.75004939  2.75004939  3.47663713
   2.75004939  5.50009878  0.00000000
   2.75004939  5.50009878  3.47663713
   5.50009878  0.00000000  0.00000000
   5.50009878  0.00000000  3.47663713
   5.50009878  2.75004939  0.00000000
   5.50009878  2.75004939  3.47663713
   5.50009878  5.50009878  0.00000000
   5.50009878  5.50009878  3.47663713
   1.37502469  1.37502469  1.73831857
   1.37502469  1.37502469  5.21495570
   1.37502469  4.12507408  1.73831857
   1.37502469  4.12507408  5.21495570
   1.37502469  6.87512347  1.73831857
   1.37502469  6.87512347  5.21495570
   4.12507408  1.37502469  1.73831857
   4.12507408  1.37502469  5.21495570
   4.12507408  4.12507408  1.73831857
   4.12507408  4.12507408  5.21495570
   4.12507408  6.87512347  1.73831857
   4.12507408  6.87512347  5.21495570
   6.87512347  1.37502469  1.73831857
   6.87512347  1.37502469  5.21495570
   6.87512347  4.12507408  1.73831857
   6.87512347  4.12507408  5.21495570
   6.87512347  6.87512347  1.73831857
   6.87512347  6.87512347  5.21495570
 


--------------------------------------------------------------------------------------------------------


 k-point  1 :   0.0000 0.0000 0.0000  plane waves:    8799
 k-point  2 :   0.2000 0.0000 0.0000  plane waves:    8753
 k-point  3 :   0.4000 0.0000 0.0000  plane waves:    8757
 k-point  4 :   0.0000 0.2000 0.0000  plane waves:    8753
 k-point  5 :   0.2000 0.2000 0.0000  plane waves:    8767
 k-point  6 :   0.4000 0.2000 0.0000  plane waves:    8761
 k-point  7 :  -0.4000 0.2000 0.0000  plane waves:    8761
 k-point  8 :  -0.2000 0.2000 0.0000  plane waves:    8767
 k-point  9 :   0.0000 0.4000 0.0000  plane waves:    8757
 k-point 10 :   0.2000 0.4000 0.0000  plane waves:    8761
 k-point 11 :   0.4000 0.4000 0.0000  plane waves:    8731
 k-point 12 :  -0.4000 0.4000 0.0000  plane waves:    8731
 k-point 13 :  -0.2000 0.4000 0.0000  plane waves:    8761
 k-point 14 :   0.0000 0.0000 0.1667  plane waves:    8763
 k-point 15 :   0.2000 0.0000 0.1667  plane waves:    8771
 k-point 16 :   0.4000 0.0000 0.1667  plane waves:    8747
 k-point 17 :   0.0000 0.2000 0.1667  plane waves:    8771
 k-point 18 :   0.2000 0.2000 0.1667  plane waves:    8764
 k-point 19 :   0.4000 0.2000 0.1667  plane waves:    8768
 k-point 20 :  -0.4000 0.2000 0.1667  plane waves:    8768
 k-point 21 :  -0.2000 0.2000 0.1667  plane waves:    8764
 k-point 22 :   0.0000 0.4000 0.1667  plane waves:    8747
 k-point 23 :   0.2000 0.4000 0.1667  plane waves:    8768
 k-point 24 :   0.4000 0.4000 0.1667  plane waves:    8740
 k-point 25 :  -0.4000 0.4000 0.1667  plane waves:    8740
 k-point 26 :  -0.2000 0.4000 0.1667  plane waves:    8768
 k-point 27 :   0.0000 0.0000 0.3333  plane waves:    8743
 k-point 28 :   0.2000 0.0000 0.3333  plane waves:    8736
 k-point 29 :   0.4000 0.0000 0.3333  plane waves:    8753
 k-point 30 :   0.0000 0.2000 0.3333  plane waves:    8736
 k-point 31 :   0.2000 0.2000 0.3333  plane waves:    8753
 k-point 32 :   0.4000 0.2000 0.3333  plane waves:    8743
 k-point 33 :  -0.4000 0.2000 0.3333  plane waves:    8743
 k-point 34 :  -0.2000 0.2000 0.3333  plane waves:    8753
 k-point 35 :   0.0000 0.4000 0.3333  plane waves:    8753
 k-point 36 :   0.2000 0.4000 0.3333  plane waves:    8743
 k-point 37 :   0.4000 0.4000 0.3333  plane waves:    8755
 k-point 38 :  -0.4000 0.4000 0.3333  plane waves:    8755
 k-point 39 :  -0.2000 0.4000 0.3333  plane waves:    8743
 k-point 40 :   0.0000 0.0000 0.5000  plane waves:    8742
 k-point 41 :   0.2000 0.0000 0.5000  plane waves:    8756
 k-point 42 :   0.4000 0.0000 0.5000  plane waves:    8744
 k-point 43 :   0.0000 0.2000 0.5000  plane waves:    8756
 k-point 44 :   0.2000 0.2000 0.5000  plane waves:    8762
 k-point 45 :   0.4000 0.2000 0.5000  plane waves:    8732
 k-point 46 :  -0.4000 0.2000 0.5000  plane waves:    8732
 k-point 47 :  -0.2000 0.2000 0.5000  plane waves:    8762
 k-point 48 :   0.0000 0.4000 0.5000  plane waves:    8744
 k-point 49 :   0.2000 0.4000 0.5000  plane waves:    8732
 k-point 50 :   0.4000 0.4000 0.5000  plane waves:    8736
 k-point 51 :  -0.4000 0.4000 0.5000  plane waves:    8736
 k-point 52 :  -0.2000 0.4000 0.5000  plane waves:    8732

 maximum and minimum number of plane-waves per node :      2210     2164

 maximum number of plane-waves:      8799
 maximum index in each direction: 
   IXMAX=   13   IYMAX=   13   IZMAX=   11
   IXMIN=  -13   IYMIN=  -13   IZMIN=  -11


 parallel 3D FFT for wavefunctions:
    minimum data exchange during FFTs selected (reduces bandwidth)
 parallel 3D FFT for charge:
    minimum data exchange during FFTs selected (reduces bandwidth)


 total amount of memory used by VASP MPI-rank0   705355. kBytes
=======================================================================

   base      :      30000. kBytes
   nonl-proj :      34307. kBytes
   fftplans  :      21726. kBytes
   grid      :      14732. kBytes
   one-center:        279. kBytes
   wavefun   :     604311. kBytes
 
     INWAV:  cpu time    0.0001: real time    0.0001
 Broyden mixing: mesh for mixing (old mesh)
   NGX = 27   NGY = 27   NGZ = 23
  (NGX  =108   NGY  =108   NGZ  = 96)
  gives a total of  16767 points

 initial charge density was supplied:
 charge density of overlapping atoms calculated
 number of electron     180.0000000 magnetization     -12.0000000
 keeping initial charge density in first step


--------------------------------------------------------------------------------------------------------


 Maximum index for augmentation-charges        11261 (set IRDMAX)


--------------------------------------------------------------------------------------------------------


 First call to EWALD:  gamma=   0.227
 Maximum number of real-space cells 3x 3x 3
 Maximum number of reciprocal cells 3x 3x 3

    FEWALD:  cpu time    0.0043: real time    0.0042


--------------------------------------- Iteration      1(   1)  ---------------------------------------


    POTLOK:  cpu time    0.2525: real time    0.2526
    SETDIJ:  cpu time    0.3921: real time    0.3922
    TRIAL :  cpu time   17.8851: real time   18.0475
    CORREC:  cpu time    0.0059: real time    0.0069
    --------------------------------------------
      LOOP:  cpu time   18.7374: real time   18.9105

 eigenvalue-minimisations  : 21632
 total energy-change (2. order) : 0.1369983E+04  (-0.5769436E+04)
 number of electron     180.0000000 magnetization     -12.0000000
 augmentation part      180.0000000 magnetization     -12.0000000

 Free energy of the ion-electron system (eV)
  ---------------------------------------------------
  alpha Z        PSCENC =       532.25742704
  Ewald energy   TEWEN  =     -8601.05107233
  -Hartree energ DENC   =     -1903.73857242
  -exchange      EXHF   =         0.00000000
  -V(xc)+E(xc)   XCENC  =      -664.65898579
  PAW double counting   =      8494.55058411    -7650.81563588
  entropy T*S    EENTRO =         0.00418369
  eigenvalues    EBANDS =      2698.31946690
  atomic energy  EATOM  =      8465.11600846
  ---------------------------------------------------
  free energy    TOTEN  =      1369.98340379 eV

  energy without entropy =     1369.97922010  energy(sigma->0) =     1369.98200923


--------------------------------------------------------------------------------------------------------




--------------------------------------- Iteration      1(   2)  ---------------------------------------


    TRIAL :  cpu time   17.6106: real time   17.8844
    CORREC:  cpu time    0.2352: real time    0.2356
    --------------------------------------------
      LOOP:  cpu time   17.8473: real time   18.1230

 eigenvalue-minimisations  : 21632
 total energy-change (2. order) :-0.1405519E+04  (-0.1385775E+04)
 number of electron     180.0000000 magnetization     -12.0000000
 augmentation part      180.0000000 magnetization     -12.0000000

 Free energy of the ion-electron system (eV)
  ---------------------------------------------------
  alpha Z        PSCENC =       532.25742704
  Ewald energy   TEWEN  =     -8601.05107233
  -Hartree energ DENC   =     -1903.73857242
  -exchange      EXHF   =         0.00000000
  -V(xc)+E(xc)   XCENC  =      -664.65898579
  PAW double counting   =      8494.55058411    -7650.81563588
  entropy T*S    EENTRO =         0.00463605
  eigenvalues    EBANDS =      1292.79999642
  atomic energy  EATOM  =      8465.11600846
  ---------------------------------------------------
  free energy    TOTEN  =       -35.53561433 eV

  energy without entropy =      -35.54025038  energy(sigma->0) =      -35.53715968


--------------------------------------------------------------------------------------------------------




--------------------------------------- Iteration      1(   3)  ---------------------------------------


    TRIAL :  cpu time   25.2056: real time   26.1397
    CORREC:  cpu time    0.0089: real time    0.0098
    --------------------------------------------
      LOOP:  cpu time   25.2726: real time   26.2084

 eigenvalue-minimisations  : 33776
 total energy-change (2. order) :-0.1969228E+03  (-0.1832227E+03)
 number of electron     180.0000000 magnetization     -12.0000000
 augmentation part      180.0000000 magnetization     -12.0000000

 Free energy of the ion-electron system (eV)
  ---------------------------------------------------
  alpha Z        PSCENC =       532.25742704
  Ewald energy   TEWEN  =     -8601.05107233
  -Hartree energ DENC   =     -1903.73857242
  -exchange      EXHF   =         0.00000000
  -V(xc)+E(xc)   XCENC  =      -664.65898579
  PAW double counting   =      8494.55058411    -7650.81563588
  entropy T*S    EENTRO =         0.00072698
  eigenvalues    EBANDS =      1095.88113333
  atomic energy  EATOM  =      8465.11600846
  ---------------------------------------------------
  free energy    TOTEN  =      -232.45838649 eV

  energy without entropy =     -232.45911347  energy(sigma->0) =     -232.45862882


--------------------------------------------------------------------------------------------------------




--------------------------------------- Iteration      1(   4)  ---------------------------------------


    TRIAL :  cpu time   26.8434: real time   27.2677
    CORREC:  cpu time    0.0096: real time    0.0103
    --------------------------------------------
      LOOP:  cpu time   26.8538: real time   27.2811

 eigenvalue-minimisations  : 35720
 total energy-change (2. order) :-0.3229619E+02  (-0.2963583E+02)
 number of electron     180.0000000 magnetization     -12.0000000
 augmentation part      180.0000000 magnetization     -12.0000000

 Free energy of the ion-electron system (eV)
  ---------------------------------------------------
  alpha Z        PSCENC =       532.25742704
  Ewald energy   TEWEN  =     -8601.05107233
  -Hartree energ DENC   =     -1903.73857242
  -exchange      EXHF   =         0.00000000
  -V(xc)+E(xc)   XCENC  =      -664.65898579
  PAW double counting   =      8494.55058411    -7650.81563588
  entropy T*S    EENTRO =         0.00185619
  eigenvalues    EBANDS =      1063.58381874
  atomic energy  EATOM  =      8465.11600846
  ---------------------------------------------------
  free energy    TOTEN  =      -264.75457187 eV

  energy without entropy =     -264.75642806  energy(sigma->0) =     -264.75519060


--------------------------------------------------------------------------------------------------------




--------------------------------------- Iteration      1(   5)  ---------------------------------------


    TRIAL :  cpu time   27.3209: real time   27.5786
    CORREC:  cpu time    0.0097: real time    0.0098
    --------------------------------------------
      LOOP:  cpu time   27.3315: real time   27.5918

 eigenvalue-minimisations  : 36896
 total energy-change (2. order) :-0.4300634E+01  (-0.4070645E+01)
 number of electron     180.0000000 magnetization     -12.0000000
 augmentation part      180.0000000 magnetization     -12.0000000

 Free energy of the ion-electron system (eV)
  ---------------------------------------------------
  alpha Z        PSCENC =       532.25742704
  Ewald energy   TEWEN  =     -8601.05107233
  -Hartree energ DENC   =     -1903.73857242
  -exchange      EXHF   =         0.00000000
  -V(xc)+E(xc)   XCENC  =      -664.65898579
  PAW double counting   =      8494.55058411    -7650.81563588
  entropy T*S    EENTRO =         0.00578403
  eigenvalues    EBANDS =      1059.27925709
  atomic energy  EATOM  =      8465.11600846
  ---------------------------------------------------
  free energy    TOTEN  =      -269.05520568 eV

  energy without entropy =     -269.06098972  energy(sigma->0) =     -269.05713369


--------------------------------------------------------------------------------------------------------




--------------------------------------- Iteration      1(   6)  ---------------------------------------


    TRIAL :  cpu time   26.7922: real time   27.7810
    CORREC:  cpu time    0.0095: real time    0.0103
    --------------------------------------------
      LOOP:  cpu time   26.8027: real time   27.7946

 eigenvalue-minimisations  : 36576
 total energy-change (2. order) :-0.5417293E+00  (-0.5167999E+00)
 number of electron     180.0000000 magnetization     -12.0000000
 augmentation part      180.0000000 magnetization     -12.0000000

 Free energy of the ion-electron system (eV)
  ---------------------------------------------------
  alpha Z        PSCENC =       532.25742704
  Ewald energy   TEWEN  =     -8601.05107233
  -Hartree energ DENC   =     -1903.73857242
  -exchange      EXHF   =         0.00000000
  -V(xc)+E(xc)   XCENC  =      -664.65898579
  PAW double counting   =      8494.55058411    -7650.81563588
  entropy T*S    EENTRO =         0.00684512
  eigenvalues    EBANDS =      1058.73646671
  atomic energy  EATOM  =      8465.11600846
  ---------------------------------------------------
  free energy    TOTEN  =      -269.59693497 eV

  energy without entropy =     -269.60378009  energy(sigma->0) =     -269.59921667


--------------------------------------------------------------------------------------------------------




--------------------------------------- Iteration      1(   7)  ---------------------------------------


    TRIAL :  cpu time   27.3221: real time   28.1870
    CORREC:  cpu time    0.0098: real time    0.0107
    --------------------------------------------
      LOOP:  cpu time   27.3328: real time   28.2014

 eigenvalue-minimisations  : 37424
 total energy-change (2. order) :-0.9785101E-01  (-0.9389783E-01)
 number of electron     180.0000000 magnetization     -12.0000000
 augmentation part      180.0000000 magnetization     -12.0000000

 Free energy of the ion-electron system (eV)
  ---------------------------------------------------
  alpha Z        PSCENC =       532.25742704
  Ewald energy   TEWEN  =     -8601.05107233
  -Hartree energ DENC   =     -1903.73857242
  -exchange      EXHF   =         0.00000000
  -V(xc)+E(xc)   XCENC  =      -664.65898579
  PAW double counting   =      8494.55058411    -7650.81563588
  entropy T*S    EENTRO =         0.00798156
  eigenvalues    EBANDS =      1058.63747927
  atomic energy  EATOM  =      8465.11600846
  ---------------------------------------------------
  free energy    TOTEN  =      -269.69478597 eV

  energy without entropy =     -269.70276753  energy(sigma->0) =     -269.69744649


--------------------------------------------------------------------------------------------------------




--------------------------------------- Iteration      1(   8)  ---------------------------------------


    TRIAL :  cpu time   25.9744: real time   27.1824
    CORREC:  cpu time    0.0100: real time    0.0109
    CHARGE:  cpu time    1.0331: real time    1.0333
    --------------------------------------------
      LOOP:  cpu time   27.0381: real time   28.2473

 eigenvalue-minimisations  : 35824
 total energy-change (2. order) :-0.2172636E-01  (-0.2092859E-01)
 number of electron     179.9999997 magnetization      -8.5118159
 augmentation part       42.5917341 magnetization      -4.9500154

 Free energy of the ion-electron system (eV)
  ---------------------------------------------------
  alpha Z        PSCENC =       532.25742704
  Ewald energy   TEWEN  =     -8601.05107233
  -Hartree energ DENC   =     -1903.73857242
  -exchange      EXHF   =         0.00000000
  -V(xc)+E(xc)   XCENC  =      -664.65898579
  PAW double counting   =      8494.55058411    -7650.81563588
  entropy T*S    EENTRO =         0.00844484
  eigenvalues    EBANDS =      1058.61528962
  atomic energy  EATOM  =      8465.11600846
  ---------------------------------------------------
  free energy    TOTEN  =      -269.71651234 eV

  energy without entropy =     -269.72495718  energy(sigma->0) =     -269.71932728


--------------------------------------------------------------------------------------------------------




--------------------------------------- Iteration      1(   9)  ---------------------------------------


    POTLOK:  cpu time    0.2525: real time    0.2525
    SETDIJ:  cpu time    0.2749: real time    0.3832
    TRIAL :  cpu time    8.3420: real time    8.4183
    CORREC:  cpu time    3.2146: real time    3.2268
    CHARGE:  cpu time    1.0275: real time    1.0308
    --------------------------------------------
      LOOP:  cpu time   13.1263: real time   13.3267

 eigenvalue-minimisations  :     0
 total energy-change (2. order) : 0.2059604E+03  (-0.1464429E+03)
 number of electron     179.9999997 magnetization      -9.0252757
 augmentation part       54.5465547 magnetization      -5.8827070

 Free energy of the ion-electron system (eV)
  ---------------------------------------------------
  alpha Z        PSCENC =       532.25742704
  Ewald energy   TEWEN  =     -8601.05107233
  -Hartree energ DENC   =      -841.36046345
  -exchange      EXHF   =         0.00000000
  -V(xc)+E(xc)   XCENC  =      -694.68463417
  PAW double counting   =     12757.35094836   -11810.57872460
  entropy T*S    EENTRO =        -0.00896731
  eigenvalues    EBANDS =       129.18599898
  atomic energy  EATOM  =      8465.11600846
  ---------------------------------------------------
  free energy    TOTEN  =       -63.75606686 eV

  energy without entropy =      -63.74709955  energy(sigma->0) =      -63.75307776


--------------------------------------------------------------------------------------------------------




--------------------------------------- Iteration      1(  10)  ---------------------------------------


    POTLOK:  cpu time    0.2821: real time    0.2822
    SETDIJ:  cpu time    0.3196: real time    0.3197
    TRIAL :  cpu time    8.3576: real time    8.3970
    CORREC:  cpu time    3.8692: real time    3.8970
    CHARGE:  cpu time    1.0276: real time    1.0281
    --------------------------------------------
      LOOP:  cpu time   13.9843: real time   14.8049

 eigenvalue-minimisations  :     0
 total energy-change (2. order) :-0.1448241E+03  (-0.9297557E+01)
 number of electron     179.9999996 magnetization      -9.0879947
 augmentation part       57.8093925 magnetization      -6.1290978

 Free energy of the ion-electron system (eV)
  ---------------------------------------------------
  alpha Z        PSCENC =       532.25742704
  Ewald energy   TEWEN  =     -8601.05107233
  -Hartree energ DENC   =     -1379.62612461
  -exchange      EXHF   =         0.00000000
  -V(xc)+E(xc)   XCENC  =      -676.28775901
  PAW double counting   =     13669.86006135   -12840.80806041
  entropy T*S    EENTRO =        -0.01468946
  eigenvalues    EBANDS =       621.96836335
  atomic energy  EATOM  =      8465.11600846
  ---------------------------------------------------
  free energy    TOTEN  =      -208.58012348 eV

  energy without entropy =     -208.56543402  energy(sigma->0) =     -208.57522699


--------------------------------------------------------------------------------------------------------




--------------------------------------- Iteration      1(  11)  ---------------------------------------


    POTLOK:  cpu time    0.2526: real time    0.2594
    SETDIJ:  cpu time    0.3925: real time    0.3927
    TRIAL :  cpu time    9.0989: real time    9.1756
    CORREC:  cpu time    3.2100: real time    3.2715
    CHARGE:  cpu time    1.0267: real time    1.0274
    --------------------------------------------
      LOOP:  cpu time   14.0007: real time   14.1468

 eigenvalue-minimisations  :     0
 total energy-change (2. order) :-0.9286810E+01  (-0.9179083E+01)
 number of electron     179.9999996 magnetization      -9.3315508
 augmentation part       59.1925807 magnetization      -6.4404227

 Free energy of the ion-electron system (eV)
  ---------------------------------------------------
  alpha Z        PSCENC =       532.25742704
  Ewald energy   TEWEN  =     -8601.05107233
  -Hartree energ DENC   =     -1567.69898733
  -exchange      EXHF   =         0.00000000
  -V(xc)+E(xc)   XCENC  =      -669.57483475
  PAW double counting   =     14445.33094679   -13649.62261306
  entropy T*S    EENTRO =        -0.01540544
  eigenvalues    EBANDS =       827.39088150
  atomic energy  EATOM  =      8465.11600846
  ---------------------------------------------------
  free energy    TOTEN  =      -217.86693315 eV

  energy without entropy =     -217.85152770  energy(sigma->0) =     -217.86179800


--------------------------------------------------------------------------------------------------------




--------------------------------------- Iteration      1(  12)  ---------------------------------------


    POTLOK:  cpu time    0.2475: real time    0.2475
    SETDIJ:  cpu time    0.3348: real time    0.3426
    TRIAL :  cpu time    9.3294: real time    9.4045
    CORREC:  cpu time    3.1852: real time    3.2209
    CHARGE:  cpu time    1.0232: real time    1.0241
    --------------------------------------------
      LOOP:  cpu time   14.1240: real time   14.2440

 eigenvalue-minimisations  :     0
 total energy-change (2. order) :-0.9181345E+01  (-0.6163949E+01)
 number of electron     179.9999996 magnetization      -9.2937632
 augmentation part       58.0991147 magnetization      -6.4216527

 Free energy of the ion-electron system (eV)
  ---------------------------------------------------
  alpha Z        PSCENC =       532.25742704
  Ewald energy   TEWEN  =     -8601.05107233
  -Hartree energ DENC   =     -1706.07164492
  -exchange      EXHF   =         0.00000000
  -V(xc)+E(xc)   XCENC  =      -665.10012495
  PAW double counting   =     14475.17744006   -13679.72867110
  entropy T*S    EENTRO =        -0.01231780
  eigenvalues    EBANDS =       952.36776535
  atomic energy  EATOM  =      8465.11600846
  ---------------------------------------------------
  free energy    TOTEN  =      -227.04827785 eV

  energy without entropy =     -227.03596004  energy(sigma->0) =     -227.04417191


--------------------------------------------------------------------------------------------------------




--------------------------------------- Iteration      1(  13)  ---------------------------------------


    POTLOK:  cpu time    0.2478: real time    0.2479
    SETDIJ:  cpu time    0.3026: real time    0.3685
    TRIAL :  cpu time    9.3264: real time    9.4729
    CORREC:  cpu time    3.1439: real time    3.2249
    CHARGE:  cpu time    1.0770: real time    1.0775
    --------------------------------------------
      LOOP:  cpu time   14.1176: real time   14.4129

 eigenvalue-minimisations  :     0
 total energy-change (2. order) :-0.5956899E+01  (-0.9219111E+00)
 number of electron     179.9999996 magnetization      -9.2325246
 augmentation part       57.2339061 magnetization      -6.3181249

 Free energy of the ion-electron system (eV)
  ---------------------------------------------------
  alpha Z        PSCENC =       532.25742704
  Ewald energy   TEWEN  =     -8601.05107233
  -Hartree energ DENC   =     -1694.89165202
  -exchange      EXHF   =         0.00000000
  -V(xc)+E(xc)   XCENC  =      -665.88764298
  PAW double counting   =     14214.99978119   -13393.34521835
  entropy T*S    EENTRO =        -0.01148700
  eigenvalues    EBANDS =       909.80950978
  atomic energy  EATOM  =      8465.11600846
  ---------------------------------------------------
  free energy    TOTEN  =      -233.00517702 eV

  energy without entropy =     -232.99369002  energy(sigma->0) =     -233.00134802


--------------------------------------------------------------------------------------------------------




--------------------------------------- Iteration      1(  14)  ---------------------------------------


    POTLOK:  cpu time    0.2475: real time    0.2476
    SETDIJ:  cpu time    0.3224: real time    0.3226
    TRIAL :  cpu time    9.4003: real time    9.5029
    CORREC:  cpu time    3.2001: real time    3.2024
    CHARGE:  cpu time    1.7015: real time    1.7119
    --------------------------------------------
      LOOP:  cpu time   14.8933: real time   15.0093

 eigenvalue-minimisations  :     0
 total energy-change (2. order) :-0.9174582E+00  (-0.8962373E+00)
 number of electron     179.9999996 magnetization      -9.2050347
 augmentation part       57.3014076 magnetization      -6.2286990

 Free energy of the ion-electron system (eV)
  ---------------------------------------------------
  alpha Z        PSCENC =       532.25742704
  Ewald energy   TEWEN  =     -8601.05107233
  -Hartree energ DENC   =     -1649.02628556
  -exchange      EXHF   =         0.00000000
  -V(xc)+E(xc)   XCENC  =      -667.62789271
  PAW double counting   =     13855.63684769   -13021.06468164
  entropy T*S    EENTRO =        -0.00863155
  eigenvalues    EBANDS =       851.84850078
  atomic energy  EATOM  =      8465.11600846
  ---------------------------------------------------
  free energy    TOTEN  =      -233.92263526 eV

  energy without entropy =     -233.91400371  energy(sigma->0) =     -233.91975808


--------------------------------------------------------------------------------------------------------




--------------------------------------- Iteration      1(  15)  ---------------------------------------


    POTLOK:  cpu time    0.2475: real time    0.2476
    SETDIJ:  cpu time    0.3197: real time    0.3199
    TRIAL :  cpu time    9.4405: real time    9.5288
    CORREC:  cpu time    3.2571: real time    3.2925
    CHARGE:  cpu time    1.0625: real time    1.0629
    --------------------------------------------
      LOOP:  cpu time   14.3286: real time   14.4533

 eigenvalue-minimisations  :     0
 total energy-change (2. order) :-0.8957929E+00  (-0.4139980E+00)
 number of electron     179.9999996 magnetization      -9.1015117
 augmentation part       57.7600279 magnetization      -6.1710911

 Free energy of the ion-electron system (eV)
  ---------------------------------------------------
  alpha Z        PSCENC =       532.25742704
  Ewald energy   TEWEN  =     -8601.05107233
  -Hartree energ DENC   =     -1641.02759050
  -exchange      EXHF   =         0.00000000
  -V(xc)+E(xc)   XCENC  =      -667.95139230
  PAW double counting   =     13279.83259140   -12442.37207930
  entropy T*S    EENTRO =        -0.00849913
  eigenvalues    EBANDS =       840.38631095
  atomic energy  EATOM  =      8465.11600846
  ---------------------------------------------------
  free energy    TOTEN  =      -234.81842813 eV

  energy without entropy =     -234.80992900  energy(sigma->0) =     -234.81559508


--------------------------------------------------------------------------------------------------------




--------------------------------------- Iteration      1(  16)  ---------------------------------------


    POTLOK:  cpu time    0.2476: real time    0.2477
    SETDIJ:  cpu time    0.3223: real time    0.3226
    TRIAL :  cpu time    8.3269: real time    8.3983
    CORREC:  cpu time    4.1985: real time    4.3003
    CHARGE:  cpu time    1.0291: real time    1.0305
    --------------------------------------------
      LOOP:  cpu time   14.1259: real time   14.3013

 eigenvalue-minimisations  :     0
 total energy-change (2. order) :-0.4178366E+00  (-0.1926757E+00)
 number of electron     179.9999996 magnetization      -9.0833449
 augmentation part       58.1511452 magnetization      -6.2001791

 Free energy of the ion-electron system (eV)
  ---------------------------------------------------
  alpha Z        PSCENC =       532.25742704
  Ewald energy   TEWEN  =     -8601.05107233
  -Hartree energ DENC   =     -1658.18838525
  -exchange      EXHF   =         0.00000000
  -V(xc)+E(xc)   XCENC  =      -667.31404369
  PAW double counting   =     13063.51059430   -12229.64464562
  entropy T*S    EENTRO =        -0.00728406
  eigenvalues    EBANDS =       860.08635154
  atomic energy  EATOM  =      8465.11600846
  ---------------------------------------------------
  free energy    TOTEN  =      -235.23626468 eV

  energy without entropy =     -235.22898062  energy(sigma->0) =     -235.23383666


--------------------------------------------------------------------------------------------------------




--------------------------------------- Iteration      1(  17)  ---------------------------------------


    POTLOK:  cpu time    0.2479: real time    0.2480
    SETDIJ:  cpu time    0.3384: real time    0.3385
    TRIAL :  cpu time    8.3175: real time    8.4366
    CORREC:  cpu time    3.4827: real time    3.5085
    CHARGE:  cpu time    1.6668: real time    1.7358
    --------------------------------------------
      LOOP:  cpu time   14.0574: real time   14.2723

 eigenvalue-minimisations  :     0
 total energy-change (2. order) :-0.1927089E+00  (-0.2237112E+00)
 number of electron     179.9999996 magnetization      -9.0379778
 augmentation part       58.2333204 magnetization      -6.2378024

 Free energy of the ion-electron system (eV)
  ---------------------------------------------------
  alpha Z        PSCENC =       532.25742704
  Ewald energy   TEWEN  =     -8601.05107233
  -Hartree energ DENC   =     -1675.17135763
  -exchange      EXHF   =         0.00000000
  -V(xc)+E(xc)   XCENC  =      -666.58527154
  PAW double counting   =     13000.26637092   -12170.51896531
  entropy T*S    EENTRO =        -0.00690391
  eigenvalues    EBANDS =       880.26517084
  atomic energy  EATOM  =      8465.11600846
  ---------------------------------------------------
  free energy    TOTEN  =      -235.42897360 eV

  energy without entropy =     -235.42206970  energy(sigma->0) =     -235.42667230


--------------------------------------------------------------------------------------------------------




--------------------------------------- Iteration      1(  18)  ---------------------------------------


    POTLOK:  cpu time    0.2441: real time    0.2503
    SETDIJ:  cpu time    0.3389: real time    0.3390
    TRIAL :  cpu time    8.3373: real time    8.3538
    CORREC:  cpu time    3.2153: real time    3.2545
    CHARGE:  cpu time    1.0366: real time    1.0374
    --------------------------------------------
      LOOP:  cpu time   13.1735: real time   13.2370

 eigenvalue-minimisations  :     0
 total energy-change (2. order) :-0.2236262E+00  (-0.1177328E+00)
 number of electron     179.9999996 magnetization      -9.0236949
 augmentation part       57.9851171 magnetization      -6.2561262

 Free energy of the ion-electron system (eV)
  ---------------------------------------------------
  alpha Z        PSCENC =       532.25742704
  Ewald energy   TEWEN  =     -8601.05107233
  -Hartree energ DENC   =     -1675.94191495
  -exchange      EXHF   =         0.00000000
  -V(xc)+E(xc)   XCENC  =      -666.32222533
  PAW double counting   =     12947.98803998   -12119.33432886
  entropy T*S    EENTRO =        -0.00610530
  eigenvalues    EBANDS =       881.64237013
  atomic energy  EATOM  =      8465.11600846
  ---------------------------------------------------
  free energy    TOTEN  =      -235.65259978 eV

  energy without entropy =     -235.64649447  energy(sigma->0) =     -235.65056468


--------------------------------------------------------------------------------------------------------




--------------------------------------- Iteration      1(  19)  ---------------------------------------


    POTLOK:  cpu time    0.2473: real time    0.2475
    SETDIJ:  cpu time    0.3684: real time    0.3685
    TRIAL :  cpu time    9.4438: real time   10.2139
    CORREC:  cpu time    3.2336: real time    3.2518
    CHARGE:  cpu time    1.0303: real time    1.0316
    --------------------------------------------
      LOOP:  cpu time   14.3273: real time   15.1191

 eigenvalue-minimisations  :     0
 total energy-change (2. order) :-0.1172900E+00  (-0.6689748E-01)
 number of electron     179.9999996 magnetization      -9.0096285
 augmentation part       57.7850628 magnetization      -6.2633039

 Free energy of the ion-electron system (eV)
  ---------------------------------------------------
  alpha Z        PSCENC =       532.25742704
  Ewald energy   TEWEN  =     -8601.05107233
  -Hartree energ DENC   =     -1662.05307420
  -exchange      EXHF   =         0.00000000
  -V(xc)+E(xc)   XCENC  =      -666.67862336
  PAW double counting   =     12919.71470406   -12088.54086224
  entropy T*S    EENTRO =        -0.00591698
  eigenvalues    EBANDS =       865.47170813
  atomic energy  EATOM  =      8465.11600846
  ---------------------------------------------------
  free energy    TOTEN  =      -235.76988975 eV

  energy without entropy =     -235.76397277  energy(sigma->0) =     -235.76791742


--------------------------------------------------------------------------------------------------------




--------------------------------------- Iteration      1(  20)  ---------------------------------------


    POTLOK:  cpu time    0.2475: real time    0.2475
    SETDIJ:  cpu time    0.3693: real time    0.3694
    TRIAL :  cpu time    8.9395: real time    9.4695
    CORREC:  cpu time    3.1673: real time    3.1699
    CHARGE:  cpu time    1.0282: real time    1.0290
    --------------------------------------------
      LOOP:  cpu time   13.7533: real time   14.2874

 eigenvalue-minimisations  :     0
 total energy-change (2. order) :-0.6687886E-01  (-0.9963062E-01)
 number of electron     179.9999996 magnetization      -9.0347220
 augmentation part       57.7452203 magnetization      -6.3075787

 Free energy of the ion-electron system (eV)
  ---------------------------------------------------
  alpha Z        PSCENC =       532.25742704
  Ewald energy   TEWEN  =     -8601.05107233
  -Hartree energ DENC   =     -1653.10367787
  -exchange      EXHF   =         0.00000000
  -V(xc)+E(xc)   XCENC  =      -666.91723265
  PAW double counting   =     12911.96377580   -12078.85708275
  entropy T*S    EENTRO =        -0.00495979
  eigenvalues    EBANDS =       854.76100269
  atomic energy  EATOM  =      8465.11600846
  ---------------------------------------------------
  free energy    TOTEN  =      -235.83676861 eV

  energy without entropy =     -235.83180881  energy(sigma->0) =     -235.83511534


--------------------------------------------------------------------------------------------------------




--------------------------------------- Iteration      1(  21)  ---------------------------------------


    POTLOK:  cpu time    0.2492: real time    0.2493
    SETDIJ:  cpu time    0.3197: real time    0.3467
    TRIAL :  cpu time    9.4106: real time    9.5717
    CORREC:  cpu time    3.1820: real time    3.1839
    CHARGE:  cpu time    1.0023: real time    1.0343
    --------------------------------------------
      LOOP:  cpu time   14.1650: real time   14.3876

 eigenvalue-minimisations  :     0
 total energy-change (2. order) :-0.9962298E-01  (-0.4521513E-01)
 number of electron     179.9999996 magnetization      -9.0182848
 augmentation part       57.8702247 magnetization      -6.3205719

 Free energy of the ion-electron system (eV)
  ---------------------------------------------------
  alpha Z        PSCENC =       532.25742704
  Ewald energy   TEWEN  =     -8601.05107233
  -Hartree energ DENC   =     -1654.91916954
  -exchange      EXHF   =         0.00000000
  -V(xc)+E(xc)   XCENC  =      -666.73202425
  PAW double counting   =     12937.35656992   -12104.34287501
  entropy T*S    EENTRO =        -0.00477282
  eigenvalues    EBANDS =       856.38370392
  atomic energy  EATOM  =      8465.11600846
  ---------------------------------------------------
  free energy    TOTEN  =      -235.93639158 eV

  energy without entropy =     -235.93161876  energy(sigma->0) =     -235.93480064


--------------------------------------------------------------------------------------------------------




--------------------------------------- Iteration      1(  22)  ---------------------------------------


    POTLOK:  cpu time    0.2479: real time    0.2480
    SETDIJ:  cpu time    0.3432: real time    0.3432
    TRIAL :  cpu time    9.0034: real time    9.1228
    CORREC:  cpu time    3.1812: real time    3.1836
    CHARGE:  cpu time    1.0253: real time    1.0623
    --------------------------------------------
      LOOP:  cpu time   13.8027: real time   13.9622

 eigenvalue-minimisations  :     0
 total energy-change (2. order) :-0.4530648E-01  (-0.2884354E-01)
 number of electron     179.9999996 magnetization      -9.0325071
 augmentation part       57.9789048 magnetization      -6.3390641

 Free energy of the ion-electron system (eV)
  ---------------------------------------------------
  alpha Z        PSCENC =       532.25742704
  Ewald energy   TEWEN  =     -8601.05107233
  -Hartree energ DENC   =     -1663.36863037
  -exchange      EXHF   =         0.00000000
  -V(xc)+E(xc)   XCENC  =      -666.37826586
  PAW double counting   =     12963.21997482   -12131.79905184
  entropy T*S    EENTRO =        -0.00464412
  eigenvalues    EBANDS =       866.02668484
  atomic energy  EATOM  =      8465.11600846
  ---------------------------------------------------
  free energy    TOTEN  =      -235.98169806 eV

  energy without entropy =     -235.97705394  energy(sigma->0) =     -235.98015002


--------------------------------------------------------------------------------------------------------




--------------------------------------- Iteration      1(  23)  ---------------------------------------


    POTLOK:  cpu time    0.2477: real time    0.2477
    SETDIJ:  cpu time    0.3438: real time    0.3439
    TRIAL :  cpu time    9.4514: real time   10.1511
    CORREC:  cpu time    3.1821: real time    3.1954
    CHARGE:  cpu time    1.0433: real time    1.0687
    --------------------------------------------
[...]
  8.437  14.378   0.000   0.000   0.000   0.001   0.000   0.001
 14.378  24.502   0.001   0.000   0.000   0.002   0.000   0.001
  0.000   0.001   1.995   0.000   0.000   5.747   0.000   0.000
  0.000   0.000   0.000   1.995  -0.000   0.000   5.745  -0.000
  0.000   0.000   0.000  -0.000   1.995   0.000  -0.000   5.747
  0.001   0.002   5.747   0.000   0.000  16.469   0.000   0.000
  0.000   0.000   0.000   5.745  -0.000   0.000  16.465  -0.000
  0.001   0.001   0.000  -0.000   5.747   0.000  -0.000  16.469
 total augmentation occupancy for first ion, spin component:           1
  4.356  -1.241  -0.003   0.001   0.002   0.001   0.000   0.000
 -1.241   0.373   0.001   0.002  -0.001  -0.000  -0.000   0.000
 -0.003   0.001   1.383  -0.009  -0.004  -0.099   0.000   0.000
  0.001   0.002  -0.009   1.514   0.000   0.000  -0.102  -0.000
  0.002  -0.001  -0.004   0.000   1.401   0.000  -0.000  -0.100
  0.001  -0.000  -0.099   0.000   0.000   0.007  -0.000  -0.000
  0.000  -0.000   0.000  -0.102  -0.000  -0.000   0.007   0.000
  0.000   0.000   0.000  -0.000  -0.100  -0.000   0.000   0.007
 total augmentation occupancy for first ion, spin component:           2
  0.013  -0.003  -0.070  -0.002  -0.001   0.003  -0.000   0.000
 -0.003   0.001  -0.006  -0.001   0.001   0.001   0.000  -0.000
 -0.070  -0.006   0.005  -0.002  -0.002  -0.000   0.000   0.000
 -0.002  -0.001  -0.002  -0.001  -0.001   0.000   0.000   0.000
 -0.001   0.001  -0.002  -0.001   0.011   0.000   0.000  -0.000
  0.003   0.001  -0.000   0.000   0.000   0.000   0.000   0.000
 -0.000   0.000   0.000   0.000   0.000   0.000  -0.000  -0.000
  0.000  -0.000   0.000   0.000  -0.000   0.000  -0.000   0.000


------------------------ aborting loop because EDIFF is reached ----------------------------------------


 


 total charge     
 
# of ion       s       p       d       tot
------------------------------------------
    1        0.405   0.425   0.000   0.830
    2        0.405   0.425   0.000   0.830
    3        0.406   0.425   0.000   0.830
    4        0.406   0.425   0.000   0.831
    5        0.406   0.423   0.000   0.829
    6        0.406   0.424   0.000   0.830
    7        0.404   0.429   0.000   0.834
    8        0.404   0.429   0.000   0.834
    9        0.405   0.430   0.000   0.834
   10        0.405   0.429   0.000   0.834
   11        0.405   0.425   0.000   0.829
   12        0.405   0.424   0.000   0.829
   13        0.404   0.429   0.000   0.833
   14        0.404   0.430   0.000   0.834
   15        0.405   0.429   0.000   0.834
   16        0.406   0.429   0.000   0.835
   17        0.404   0.429   0.000   0.833
   18        0.404   0.429   0.000   0.833
   19        0.338   0.354   5.127   5.818
   20        0.337   0.359   5.118   5.814
   21        0.337   0.353   5.126   5.816
   22        0.336   0.353   5.129   5.818
   23        0.334   0.351   5.141   5.826
   24        0.336   0.356   5.129   5.821
   25        0.334   0.347   5.146   5.828
   26        0.335   0.366   5.110   5.811
   27        0.334   0.357   5.122   5.813
   28        0.334   0.357   5.134   5.824
   29        0.331   0.358   5.128   5.817
   30        0.336   0.354   5.135   5.824
   31        0.336   0.350   5.135   5.821
   32        0.333   0.359   5.130   5.822
   33        0.332   0.352   5.143   5.828
   34        0.333   0.359   5.120   5.812
   35        0.334   0.356   5.130   5.821
   36        0.337   0.354   5.125   5.816
--------------------------------------------------
tot         13.320  14.080  92.327 119.727
 


 magnetization (x)
 
# of ion       s       p       d       tot
------------------------------------------
    1        0.001   0.002   0.000   0.003
    2        0.002   0.002   0.000   0.003
    3       -0.002  -0.008   0.000  -0.010
    4       -0.002  -0.008   0.000  -0.010
    5        0.011   0.024   0.000   0.036
    6        0.011   0.024   0.000   0.036
    7        0.006   0.009   0.000   0.015
    8        0.006   0.010   0.000   0.016
    9        0.004   0.008   0.000   0.012
   10        0.004   0.008   0.000   0.012
   11        0.011   0.019   0.000   0.030
   12        0.011   0.019   0.000   0.030
   13        0.004   0.009   0.000   0.013
   14        0.004   0.009   0.000   0.013
   15        0.001   0.000   0.000   0.001
   16        0.001   0.000   0.000   0.001
   17        0.007   0.011   0.000   0.019
   18        0.007   0.011   0.000   0.019
   19        0.032   0.013   2.442   2.487
   20        0.035   0.022   2.394   2.450
   21       -0.032  -0.023  -2.467  -2.522
   22       -0.028  -0.015  -2.427  -2.470
   23       -0.020  -0.010  -2.265  -2.295
   24       -0.024  -0.021  -2.289  -2.334
   25       -0.035  -0.005  -2.375  -2.415
   26       -0.046  -0.042  -2.314  -2.402
   27       -0.012  -0.024  -2.332  -2.368
   28        0.028   0.024   2.182   2.233
   29       -0.001  -0.013  -2.203  -2.217
   30        0.031   0.016   2.279   2.327
   31        0.023   0.002   2.435   2.461
   32        0.029   0.028   2.091   2.148
   33        0.021   0.026   2.124   2.171
   34       -0.019  -0.027  -2.352  -2.397
   35       -0.029  -0.022  -2.280  -2.331
   36       -0.029  -0.015  -2.473  -2.517
--------------------------------------------------
tot          0.014   0.063  -9.831  -9.754
 
    FORLOC:  cpu time    0.0284: real time    0.0284
    FORNL :  cpu time   12.7716: real time   12.9193
    STRESS:  cpu time   17.7541: real time   17.8819
    FORCOR:  cpu time    0.2715: real time    0.2716
    OFIELD:  cpu time    0.0013: real time    0.0013

  FORCE on cell =-STRESS in cart. coord.  units (eV):
  Direction    XX          YY          ZZ          XY          YZ          ZX
  --------------------------------------------------------------------------------------
  Alpha Z   532.25743   532.25743   532.25743
  Ewald   -2702.40749 -2702.40749 -3196.26924    -0.00000    -0.00000    -0.00000
  Hartree   719.38101   718.83562   227.61410     0.31516    -0.00000    -0.00000
  E(xc)    -760.21674  -760.02791  -760.78368    -0.14014    -0.00000    -0.00000
  Local     250.75033   253.47893  1256.87307    -1.07741     0.00000    -0.00000
  n-local  -109.47547  -108.52337  -119.65797    -0.22555     0.01781    -0.05625
  augment   520.96917   519.94794   516.56999     0.41336     0.00001     0.00001
  Kinetic  1553.56076  1551.87662  1546.76766     1.27365     0.22155    -0.23032
  Fock        0.00000     0.00000     0.00000     0.00000     0.00000     0.00000
  -------------------------------------------------------------------------------------
  Total       4.81899     5.43776     3.37134     0.55906     0.00000     0.00000
  in kB      16.31376    18.40849    11.41301     1.89260     0.00000     0.00000
  external pressure =       15.38 kB  Pullay stress =        0.00 kB


 VOLUME and BASIS-vectors are now :
 -----------------------------------------------------------------------------
  energy-cutoff  :      404.80
  volume of cell :      473.27
      direct lattice vectors                 reciprocal lattice vectors
     8.250148166  0.000000000  0.000000000     0.121209944  0.000000000  0.000000000
     0.000000000  8.250148166  0.000000000     0.000000000  0.121209944  0.000000000
     0.000000000  0.000000000  6.953274261     0.000000000  0.000000000  0.143817137

  length of vectors
     8.250148166  8.250148166  6.953274261     0.121209944  0.121209944  0.143817137


 FORCES acting on ions:
    Electron-Ion                     Ewald-Force                    Non-Local-Force
 -----------------------------------------------------------------------------------------------
   -.847E-01 -.616E-01 -.821E-02   -.239E-08 -.239E-08 0.411E-08   0.122E-01 0.717E-01 -.244E-01
   -.847E-01 -.616E-01 0.821E-02   -.239E-08 -.239E-08 0.411E-08   0.122E-01 0.717E-01 0.244E-01
   -.173E-01 0.623E-01 -.390E-01   -.239E-08 -.802E-09 0.411E-08   -.319E-01 -.136E+00 -.170E-02
   -.173E-01 0.623E-01 0.390E-01   -.239E-08 -.802E-09 0.411E-08   -.319E-01 -.136E+00 0.170E-02
   -.364E-01 -.789E-02 -.775E-01   -.239E-08 0.631E-08 0.411E-08   0.605E-01 0.531E-01 -.269E-01
   -.364E-01 -.789E-02 0.775E-01   -.239E-08 0.631E-08 0.411E-08   0.605E-01 0.531E-01 0.269E-01
   -.424E-01 0.220E-01 0.845E-01   -.802E-09 -.239E-08 0.411E-08   0.750E-01 0.225E-01 -.191E-01
   -.424E-01 0.220E-01 -.845E-01   -.802E-09 -.239E-08 0.411E-08   0.750E-01 0.225E-01 0.191E-01
   -.185E-01 -.673E-02 0.783E-01   -.802E-09 -.802E-09 0.411E-08   0.470E-01 -.362E-01 -.483E-01
   -.185E-01 -.673E-02 -.783E-01   -.802E-09 -.802E-09 0.411E-08   0.470E-01 -.362E-01 0.483E-01
   0.142E+00 -.235E-02 -.154E-01   -.802E-09 0.631E-08 0.411E-08   -.122E+00 -.814E-02 0.889E-01
   0.142E+00 -.235E-02 0.154E-01   -.802E-09 0.631E-08 0.411E-08   -.122E+00 -.814E-02 -.889E-01
   0.935E-01 0.804E-01 0.110E+00   0.631E-08 -.239E-08 0.411E-08   -.629E-01 -.826E-02 -.528E-01
   0.935E-01 0.804E-01 -.110E+00   0.631E-08 -.239E-08 0.411E-08   -.629E-01 -.826E-02 0.528E-01
   0.513E-01 -.257E+00 0.170E+00   0.631E-08 -.802E-09 0.411E-08   -.127E-01 0.406E-01 -.989E-01
   0.513E-01 -.257E+00 -.170E+00   0.631E-08 -.802E-09 0.411E-08   -.127E-01 0.406E-01 0.989E-01
   -.996E-01 0.167E+00 -.376E-01   0.631E-08 0.631E-08 0.411E-08   0.377E-01 -.159E-01 0.326E-01
   -.996E-01 0.167E+00 0.376E-01   0.631E-08 0.631E-08 0.411E-08   0.377E-01 -.159E-01 -.326E-01
   -.546E+00 -.354E-01 -.194E-08   -.169E-07 -.169E-07 -.411E-08   0.215E+00 0.385E-01 0.000E+00
   -.356E+00 0.665E-01 -.259E-08   -.169E-07 -.169E-07 -.411E-08   0.209E+00 -.955E-01 0.000E+00
   0.574E+00 0.411E+00 -.503E-08   -.169E-07 0.802E-09 -.411E-08   -.309E+00 -.255E+00 0.000E+00
   -.332E+00 0.268E+00 -.104E-08   -.169E-07 0.802E-09 -.411E-08   0.432E-01 -.688E-01 0.000E+00
   0.484E-01 -.250E+00 -.242E-08   -.169E-07 0.130E-07 -.411E-08   0.135E-02 0.203E+00 0.000E+00
   -.326E+00 -.263E+00 -.373E-08   -.169E-07 0.130E-07 -.411E-08   0.115E+00 0.140E+00 0.000E+00
   0.963E-01 -.121E+00 -.208E-08   0.802E-09 -.169E-07 -.411E-08   -.183E+00 0.925E-01 0.000E+00
   -.327E-01 -.122E+00 -.955E-09   0.802E-09 -.169E-07 -.411E-08   0.679E-01 0.133E+00 0.000E+00
   -.443E+00 0.864E-01 -.536E-08   0.802E-09 0.802E-09 -.411E-08   0.322E+00 -.747E-01 0.000E+00
   -.215E+00 0.148E+00 0.496E-09   0.802E-09 0.802E-09 -.411E-08   0.171E+00 -.102E-01 0.000E+00
   0.937E-01 0.615E-01 -.273E-08   0.802E-09 0.130E-07 -.411E-08   -.117E+00 -.130E+00 0.000E+00
   0.118E+00 -.162E+00 -.218E-08   0.802E-09 0.130E-07 -.411E-08   -.167E+00 0.681E-01 0.000E+00
   0.318E+00 0.362E+00 -.393E-08   0.130E-07 -.169E-07 -.411E-08   -.609E-01 -.247E+00 0.000E+00
   0.332E+00 -.143E+00 -.532E-10   0.130E-07 -.169E-07 -.411E-08   -.186E+00 0.985E-01 0.000E+00
   0.136E+00 -.515E+00 -.704E-08   0.130E-07 0.802E-09 -.411E-08   -.446E-01 0.297E+00 0.000E+00
   0.370E+00 0.184E+00 0.132E-08   0.130E-07 0.802E-09 -.411E-08   -.935E-01 -.308E-01 0.000E+00
   -.946E-01 0.312E+00 -.427E-08   0.130E-07 0.130E-07 -.411E-08   0.106E-01 -.278E+00 0.000E+00
   0.288E+00 -.203E+00 -.120E-08   0.130E-07 0.130E-07 -.411E-08   -.420E-02 0.699E-01 0.000E+00
 -----------------------------------------------------------------------------------------------
   0.451E-02 0.825E-01 -.814E-07   -.197E-14 0.275E-13 0.265E-14   -.440E-02 -.826E-01 0.000E+00
 
 
 POSITION                                       TOTAL-FORCE (eV/Angst)
 -----------------------------------------------------------------------------------
      0.00000      0.00000      0.00000        -0.074180      0.003820     -0.031393
      0.00000      0.00000      3.47664        -0.074180      0.003820      0.031393
      0.00000      2.75005      0.00000        -0.047079     -0.061633     -0.041457
      0.00000      2.75005      3.47664        -0.047079     -0.061633      0.041457
      0.00000      5.50010      0.00000         0.018227      0.039816     -0.102323
      0.00000      5.50010      3.47664         0.018227      0.039816      0.102323
      2.75005      0.00000      0.00000         0.026042      0.042482      0.065877
      2.75005      0.00000      3.47664         0.026042      0.042482     -0.065877
      2.75005      2.75005      0.00000         0.024617     -0.039482      0.033099
      2.75005      2.75005      3.47664         0.024617     -0.039482     -0.033099
      2.75005      5.50010      0.00000         0.031449     -0.010107      0.064953
      2.75005      5.50010      3.47664         0.031449     -0.010107     -0.064953
      5.50010      0.00000      0.00000         0.036399      0.073186      0.060502
      5.50010      0.00000      3.47664         0.036399      0.073186     -0.060502
      5.50010      2.75005      0.00000         0.040478     -0.219754      0.078667
      5.50010      2.75005      3.47664         0.040478     -0.219754     -0.078667
      5.50010      5.50010      0.00000        -0.065626      0.152535     -0.008275
      5.50010      5.50010      3.47664        -0.065626      0.152535      0.008275
      1.37502      1.37502      1.73832        -0.344080      0.005737      0.000000
      1.37502      1.37502      5.21496        -0.154057     -0.025244      0.000000
      1.37502      4.12507      1.73832         0.277872      0.164321      0.000000
      1.37502      4.12507      5.21496        -0.298231      0.204738      0.000000
      1.37502      6.87512      1.73832         0.048482     -0.052188      0.000000
      1.37502      6.87512      5.21496        -0.219922     -0.129443      0.000000
      4.12507      1.37502      1.73832        -0.087406     -0.029875      0.000000
      4.12507      1.37502      5.21496         0.031136      0.006577      0.000000
      4.12507      4.12507      1.73832        -0.128209      0.015607      0.000000
      4.12507      4.12507      5.21496        -0.048624      0.129867      0.000000
      4.12507      6.87512      1.73832        -0.022690     -0.069346      0.000000
      4.12507      6.87512      5.21496        -0.044780     -0.089730      0.000000
      6.87512      1.37502      1.73832         0.264070      0.121706      0.000000
      6.87512      1.37502      5.21496         0.152482     -0.044883      0.000000
      6.87512      4.12507      1.73832         0.098903     -0.223846      0.000000
      6.87512      4.12507      5.21496         0.282096      0.153867      0.000000
      6.87512      6.87512      1.73832        -0.080920      0.040031      0.000000
      6.87512      6.87512      5.21496         0.293225     -0.139623      0.000000
 -----------------------------------------------------------------------------------
    total drift:                                0.000110     -0.000104     -0.000000


--------------------------------------------------------------------------------------------------------



  FREE ENERGIE OF THE ION-ELECTRON SYSTEM (eV)
  ---------------------------------------------------
  free  energy   TOTEN  =      -236.19580733 eV

  energy  without entropy=     -236.19434665  energy(sigma->0) =     -236.19532044
 


--------------------------------------------------------------------------------------------------------


    POTLOK:  cpu time    0.5792: real time    0.5793


--------------------------------------------------------------------------------------------------------


     LOOP+:  cpu time 1502.3861: real time 1539.5543
    4ORBIT:  cpu time    0.0000: real time    0.0000
 


 total charge     
 
# of ion       s       p       d       tot
------------------------------------------
    1        0.405   0.425   0.000   0.830
    2        0.405   0.425   0.000   0.830
    3        0.406   0.425   0.000   0.830
    4        0.406   0.425   0.000   0.831
    5        0.406   0.423   0.000   0.829
    6        0.406   0.424   0.000   0.830
    7        0.404   0.429   0.000   0.834
    8        0.404   0.429   0.000   0.834
    9        0.405   0.430   0.000   0.834
   10        0.405   0.429   0.000   0.834
   11        0.405   0.425   0.000   0.829
   12        0.405   0.424   0.000   0.829
   13        0.404   0.429   0.000   0.833
   14        0.404   0.430   0.000   0.834
   15        0.405   0.429   0.000   0.834
   16        0.406   0.429   0.000   0.835
   17        0.404   0.429   0.000   0.833
   18        0.404   0.429   0.000   0.833
   19        0.338   0.354   5.127   5.818
   20        0.337   0.359   5.118   5.814
   21        0.337   0.353   5.126   5.816
   22        0.336   0.353   5.129   5.818
   23        0.334   0.351   5.141   5.826
   24        0.336   0.356   5.129   5.821
   25        0.334   0.347   5.146   5.828
   26        0.335   0.366   5.110   5.811
   27        0.334   0.357   5.122   5.813
   28        0.334   0.357   5.134   5.824
   29        0.331   0.358   5.128   5.817
   30        0.336   0.354   5.135   5.824
   31        0.336   0.350   5.135   5.821
   32        0.333   0.359   5.130   5.822
   33        0.332   0.352   5.143   5.828
   34        0.333   0.359   5.120   5.812
   35        0.334   0.356   5.130   5.821
   36        0.337   0.354   5.125   5.816
--------------------------------------------------
tot         13.320  14.080  92.327 119.727
 


 magnetization (x)
 
# of ion       s       p       d       tot
------------------------------------------
    1        0.001   0.002   0.000   0.003
    2        0.002   0.002   0.000   0.003
    3       -0.002  -0.008   0.000  -0.010
    4       -0.002  -0.008   0.000  -0.010
    5        0.011   0.024   0.000   0.036
    6        0.011   0.024   0.000   0.036
    7        0.006   0.009   0.000   0.015
    8        0.006   0.010   0.000   0.016
    9        0.004   0.008   0.000   0.012
   10        0.004   0.008   0.000   0.012
   11        0.011   0.019   0.000   0.030
   12        0.011   0.019   0.000   0.030
   13        0.004   0.009   0.000   0.013
   14        0.004   0.009   0.000   0.013
   15        0.001   0.000   0.000   0.001
   16        0.001   0.000   0.000   0.001
   17        0.007   0.011   0.000   0.019
   18        0.007   0.011   0.000   0.019
   19        0.032   0.013   2.442   2.487
   20        0.035   0.022   2.394   2.450
   21       -0.032  -0.023  -2.467  -2.522
   22       -0.028  -0.015  -2.427  -2.470
   23       -0.020  -0.010  -2.265  -2.295
   24       -0.024  -0.021  -2.289  -2.334
   25       -0.035  -0.005  -2.375  -2.415
   26       -0.046  -0.042  -2.314  -2.402
   27       -0.012  -0.024  -2.332  -2.368
   28        0.028   0.024   2.182   2.233
   29       -0.001  -0.013  -2.203  -2.217
   30        0.031   0.016   2.279   2.327
   31        0.023   0.002   2.435   2.461
   32        0.029   0.028   2.091   2.148
   33        0.021   0.026   2.124   2.171
   34       -0.019  -0.027  -2.352  -2.397
   35       -0.029  -0.022  -2.280  -2.331
   36       -0.029  -0.015  -2.473  -2.517
--------------------------------------------------
tot          0.014   0.063  -9.831  -9.754
 

 total amount of memory used by VASP MPI-rank0   705355. kBytes
=======================================================================

   base      :      30000. kBytes
   nonl-proj :      34307. kBytes
   fftplans  :      21726. kBytes
   grid      :      14732. kBytes
   one-center:        279. kBytes
   wavefun   :     604311. kBytes
 
  
  
 General timing and accounting informations for this job:
 ========================================================
  
                  Total CPU time used (sec):     1526.816
                            User time (sec):     1502.123
                          System time (sec):       24.693
                         Elapsed time (sec):     1567.375
  
                   Maximum memory used (kb):      840348.
                   Average memory used (kb):           0.
  
                          Minor page faults:       520329
                          Major page faults:            5
                 Voluntary context switches:         6342
