   36   36    1    2
  0.1314651E+02  0.8250148E-09  0.8250148E-09  0.6953274E-09  0.2000000E-15
  1.000000000000000E-004
  CAR 
 AlMn_pv                                 
    180     52    104
 
  0.0000000E+00  0.0000000E+00  0.0000000E+00  0.6666667E-02
    1       -2.512669     -2.528190   1.000000   1.000000
    2       -0.354178     -0.379184   1.000000   1.000000
    3       -0.348679     -0.351334   1.000000   1.000000
    4       -0.336663     -0.343508   1.000000   1.000000
    5       -0.274689     -0.308331   1.000000   1.000000
    6       -0.127685     -0.116832   1.000000   1.000000
    7        1.367603      1.345930   1.000000   1.000000
    8        1.393116      1.358783   1.000000   1.000000
    9        1.403910      1.372954   1.000000   1.000000
   10        1.423424      1.383451   1.000000   1.000000
   11        1.448473      1.431725   1.000000   1.000000
   12        1.564075      1.531391   1.000000   1.000000
   13        1.591851      1.568066   1.000000   1.000000
   14        1.615277      1.585358   1.000000   1.000000
   15        1.663336      1.611398   1.000000   1.000000
   16        2.751221      2.711715   1.000000   1.000000
   17        2.792283      2.736929   1.000000   1.000000
   18        2.836659      2.774719   1.000000   1.000000
   19        2.873881      2.807361   1.000000   1.000000
   20        3.525407      3.460072   1.000000   1.000000
   21        3.556144      3.492403   1.000000   1.000000
   22        3.583820      3.538908   1.000000   1.000000
   23        3.675906      3.576486   1.000000   1.000000
   24        4.115088      4.060959   1.000000   1.000000
   25        4.295703      4.156845   1.000000   1.000000
   26        4.462146      4.238163   1.000000   1.000000
   27        4.494054      4.394904   1.000000   1.000000
   28        4.551516      4.489612   1.000000   1.000000
   29        4.607306      4.543695   1.000000   1.000000
   30        4.678310      4.598973   1.000000   1.000000
   31        4.722740      4.635443   1.000000   1.000000
   32        4.747038      4.688137   1.000000   1.000000
   33        4.824000      4.731377   1.000000   1.000000
   34        4.836479      4.743461   1.000000   1.000000
   35        4.923367      4.746652   1.000000   1.000000
   36        5.019220      4.820328   1.000000   1.000000
   37        5.037241      4.844076   1.000000   1.000000
   38        5.074373      4.855954   1.000000   1.000000
   39        5.163575      4.878518   1.000000   1.000000
   40        5.240811      5.099351   1.000000   1.000000
   41        5.328730      5.176938   1.000000   1.000000
   42        5.337669      5.218001   1.000000   1.000000
   43        5.355717      5.304489   1.000000   1.000000
   44        5.410938      5.371598   1.000000   1.000000
   45        5.468225      5.373035   1.000000   1.000000
   46        5.555120      5.392861   1.000000   1.000000
   47        5.578709      5.410621   1.000000   1.000000
   48        5.641120      5.419633   1.000000   1.000000
   49        5.645086      5.485807   1.000000   1.000000
   50        5.675478      5.540461   1.000000   1.000000
   51        5.734992      5.586816   1.000000   1.000000
   52        5.806429      5.701061   1.000000   1.000000
   53        5.853246      5.706137   1.000000   1.000000
   54        5.954690      5.731534   1.000000   1.000000
   55        6.066780      5.782236   1.000000   1.000000
   56        6.177402      5.784092   1.000000   1.000000
   57        6.250826      5.900949   1.000000   1.000000
   58        6.340240      5.968078   1.000000   1.000000
   59        6.355990      6.039637   1.000000   1.000000
   60        6.362154      6.108820   1.000000   1.000000
   61        6.405255      6.192433   1.000000   1.000000
   62        6.416976      6.192983   1.000000   1.000000
   63        6.501223      6.227061   1.000000   1.000000
   64        6.513585      6.353090   1.000000   1.000000
   65        6.535151      6.357410   1.000000   1.000000
   66        6.539788      6.373622   1.000000   1.000000
   67        6.553889      6.409690   1.000000   1.000000
   68        6.598263      6.434247   1.000000   1.000000
   69        6.703019      6.462887   1.000000   1.000000
   70        6.716165      6.470422   1.000000   1.000000
   71        6.763385      6.478612   1.000000   1.000000
   72        6.820879      6.550321   1.000000   1.000000
   73        6.862409      6.555137   1.000000   1.000000
   74        6.945621      6.630118   1.000000   1.000000
   75        6.950502      6.679678   1.000000   1.000000
   76        7.199591      6.690317   1.000500   1.000000
   77        7.212966      6.739739   1.000674   1.000000
   78        7.280932      6.753221   1.003122   1.000000
   79        7.395675      6.756102   1.018342   1.000000
   80        7.396526      6.794710   1.018789   1.000000
   81        7.431839      6.935955   1.027165   1.000000
   82        7.500782      6.965587   1.034971   1.000000
   83        7.549211      7.000612   1.015598   1.000001
   84        7.613430      7.080071   0.927348   1.000019
   85        7.643645      7.108126   0.842277   1.000042
   86        7.661716      7.242548   0.783861   1.001290
   87        7.830199      7.280273   0.139438   1.003058
   88        7.919745      7.320870  -0.015683   1.006286
   89        8.002534      7.410074  -0.033848   1.022385
   90        8.026429      7.422567  -0.029423   1.024990
   91        8.078544      7.450110  -0.017519   1.030537
   92        8.179458      7.561638  -0.003706   1.004028
   93        8.186218      7.586465  -0.003215   0.974983
   94        8.262885      7.640218  -0.000585   0.848601
   95        8.317217      7.860863  -0.000155   0.069725
   96        8.361915      7.890873  -0.000041   0.018275
   97        8.437905      7.972542  -0.000004  -0.035391
   98        8.530465      8.108446  -0.000000  -0.012244
   99        8.541169      8.112522  -0.000000  -0.010780
  100        8.576869      8.195628  -0.000000  -0.002720
  101        8.628322      8.239768  -0.000000  -0.001002
  102        8.678674      8.300848  -0.000000  -0.000110
  103        8.807576      8.319341  -0.000000  -0.000000
  104        8.875201      8.621656  -0.000000  -0.000000
 
  0.2000000E+00  0.0000000E+00  0.0000000E+00  0.1333333E-01
    1       -2.422175     -2.437693   1.000000   1.000000
    2       -1.096200     -1.111595   1.000000   1.000000
    3       -0.270776     -0.282544   1.000000   1.000000
    4       -0.219982     -0.243564   1.000000   1.000000
    5       -0.061494     -0.051316   1.000000   1.000000
    6        0.575376      0.557519   1.000000   1.000000
    7        0.885757      0.882933   1.000000   1.000000
    8        0.929726      0.906953   1.000000   1.000000
    9        0.964926      0.934781   1.000000   1.000000
   10        1.434407      1.410947   1.000000   1.000000
   11        1.504562      1.455877   1.000000   1.000000
   12        1.520237      1.472287   1.000000   1.000000
   13        1.939751      1.911242   1.000000   1.000000
   14        2.321336      2.267748   1.000000   1.000000
   15        2.333899      2.290595   1.000000   1.000000
   16        2.363553      2.314264   1.000000   1.000000
   17        2.370610      2.329089   1.000000   1.000000
   18        2.860947      2.797659   1.000000   1.000000
   19        3.248079      3.186670   1.000000   1.000000
   20        3.330880      3.247706   1.000000   1.000000
   21        3.607199      3.544041   1.000000   1.000000
   22        3.701133      3.621673   1.000000   1.000000
   23        3.765609      3.721272   1.000000   1.000000
   24        4.099326      4.042005   1.000000   1.000000
   25        4.251928      4.124022   1.000000   1.000000
   26        4.334735      4.178013   1.000000   1.000000
   27        4.390105      4.277532   1.000000   1.000000
   28        4.461662      4.366404   1.000000   1.000000
   29        4.587283      4.526734   1.000000   1.000000
   30        4.632114      4.529533   1.000000   1.000000
   31        4.658937      4.556498   1.000000   1.000000
   32        4.688923      4.569504   1.000000   1.000000
   33        4.772177      4.621720   1.000000   1.000000
   34        4.909383      4.664140   1.000000   1.000000
   35        4.919040      4.806425   1.000000   1.000000
   36        5.010123      4.894658   1.000000   1.000000
   37        5.065855      4.905965   1.000000   1.000000
   38        5.067655      4.958313   1.000000   1.000000
   39        5.142829      4.998661   1.000000   1.000000
   40        5.182861      5.011980   1.000000   1.000000
   41        5.203931      5.082604   1.000000   1.000000
   42        5.333428      5.183397   1.000000   1.000000
   43        5.368446      5.234317   1.000000   1.000000
   44        5.372787      5.288323   1.000000   1.000000
   45        5.424463      5.358535   1.000000   1.000000
   46        5.485605      5.364407   1.000000   1.000000
   47        5.605589      5.419816   1.000000   1.000000
   48        5.621935      5.521534   1.000000   1.000000
   49        5.673943      5.536475   1.000000   1.000000
   50        5.764393      5.621371   1.000000   1.000000
   51        5.765858      5.628001   1.000000   1.000000
   52        5.850767      5.695461   1.000000   1.000000
   53        5.930969      5.715969   1.000000   1.000000
   54        5.983278      5.732603   1.000000   1.000000
   55        6.098166      5.799042   1.000000   1.000000
   56        6.199876      5.877866   1.000000   1.000000
   57        6.218750      5.915750   1.000000   1.000000
   58        6.305031      5.954379   1.000000   1.000000
   59        6.330516      5.970575   1.000000   1.000000
   60        6.343555      6.083217   1.000000   1.000000
   61        6.353264      6.111568   1.000000   1.000000
   62        6.393569      6.213463   1.000000   1.000000
   63        6.408664      6.239642   1.000000   1.000000
   64        6.473204      6.299900   1.000000   1.000000
   65        6.514027      6.343389   1.000000   1.000000
   66        6.523414      6.362370   1.000000   1.000000
   67        6.570602      6.367861   1.000000   1.000000
   68        6.586333      6.389651   1.000000   1.000000
   69        6.675345      6.421384   1.000000   1.000000
   70        6.706778      6.465779   1.000000   1.000000
   71        6.776742      6.511609   1.000000   1.000000
   72        6.844039      6.532408   1.000000   1.000000
   73        6.881757      6.561411   1.000000   1.000000
   74        6.970140      6.582110   1.000000   1.000000
   75        6.980746      6.631528   1.000001   1.000000
   76        7.154251      6.726607   1.000163   1.000000
   77        7.190686      6.743480   1.000391   1.000000
   78        7.274224      6.744450   1.002715   1.000000
   79        7.369926      6.774784   1.013388   1.000000
   80        7.376980      6.822844   1.015210   1.000000
   81        7.443794      6.825243   1.029728   1.000000
   82        7.511699      6.925199   1.033458   1.000000
   83        7.542111      7.008606   1.021458   1.000002
   84        7.594422      7.020596   0.958634   1.000003
   85        7.637338      7.080849   0.866868   1.000019
   86        7.706136      7.176273   0.619643   1.000288
   87        7.819406      7.304806   0.174167   1.004791
   88        7.962396      7.311190  -0.034144   1.005372
   89        7.991582      7.395313  -0.034850   1.018663
   90        8.060090      7.422162  -0.022162   1.024405
   91        8.140779      7.519543  -0.007182   1.031146
   92        8.154274      7.573571  -0.005586   0.990212
   93        8.225169      7.625628  -0.001393   0.898362
   94        8.246761      7.695735  -0.000913   0.665619
   95        8.342057      7.876739  -0.000079   0.037424
   96        8.355007      7.964404  -0.000053  -0.033878
   97        8.426551      7.991203  -0.000006  -0.035084
   98        8.442453      7.996571  -0.000004  -0.034221
   99        8.486560      8.163236  -0.000001  -0.005105
  100        8.533041      8.186943  -0.000000  -0.003159
  101        8.569491      8.248980  -0.000000  -0.000825
  102        8.654799      8.322873  -0.000000  -0.000126
  103        8.744706      8.358360  -0.000000  -0.000050
  104        8.745897      8.382737  -0.000000  -0.000020
 
  0.4000000E+00  0.0000000E+00  0.0000000E+00  0.1333333E-01
    1       -2.152455     -2.168140   1.000000   1.000000
    2       -1.706993     -1.721949   1.000000   1.000000
    3       -0.023796     -0.037271   1.000000   1.000000
    4        0.023417      0.000281   1.000000   1.000000
    5        0.134666      0.142716   1.000000   1.000000
    6        0.382776      0.366736   1.000000   1.000000
    7        0.425630      0.399424   1.000000   1.000000
    8        0.456159      0.460085   1.000000   1.000000
    9        1.594627      1.567073   1.000000   1.000000
   10        1.620136      1.593296   1.000000   1.000000
   11        1.688098      1.650893   1.000000   1.000000
   12        1.800005      1.736050   1.000000   1.000000
   13        1.933000      1.899081   1.000000   1.000000
   14        1.984804      1.951021   1.000000   1.000000
   15        2.255825      2.193194   1.000000   1.000000
   16        2.355911      2.310231   1.000000   1.000000
   17        2.692570      2.665223   1.000000   1.000000
   18        2.948574      2.870714   1.000000   1.000000
   19        3.089579      3.003281   1.000000   1.000000
   20        3.572378      3.506176   1.000000   1.000000
   21        3.797619      3.684266   1.000000   1.000000
   22        3.801402      3.731933   1.000000   1.000000
   23        3.850461      3.777033   1.000000   1.000000
   24        4.032238      3.960149   1.000000   1.000000
   25        4.096235      3.987692   1.000000   1.000000
   26        4.158085      4.072458   1.000000   1.000000
   27        4.252779      4.117016   1.000000   1.000000
   28        4.302809      4.212832   1.000000   1.000000
   29        4.359788      4.261440   1.000000   1.000000
   30        4.538649      4.407976   1.000000   1.000000
   31        4.572909      4.447892   1.000000   1.000000
   32        4.658625      4.538714   1.000000   1.000000
   33        4.775820      4.607614   1.000000   1.000000
   34        4.829615      4.710096   1.000000   1.000000
   35        4.873293      4.814825   1.000000   1.000000
   36        4.925143      4.864344   1.000000   1.000000
   37        5.110324      4.930974   1.000000   1.000000
   38        5.113328      4.968992   1.000000   1.000000
   39        5.147770      5.070916   1.000000   1.000000
   40        5.184468      5.093323   1.000000   1.000000
   41        5.295908      5.124405   1.000000   1.000000
   42        5.299950      5.176947   1.000000   1.000000
   43        5.358120      5.198433   1.000000   1.000000
   44        5.394033      5.277315   1.000000   1.000000
   45        5.394036      5.323681   1.000000   1.000000
   46        5.504383      5.344846   1.000000   1.000000
   47        5.563209      5.495738   1.000000   1.000000
   48        5.627438      5.536079   1.000000   1.000000
   49        5.705981      5.585105   1.000000   1.000000
   50        5.750072      5.656439   1.000000   1.000000
   51        5.802717      5.677390   1.000000   1.000000
   52        5.930137      5.679681   1.000000   1.000000
   53        5.962893      5.716860   1.000000   1.000000
   54        6.034006      5.756741   1.000000   1.000000
   55        6.106160      5.789255   1.000000   1.000000
   56        6.126870      5.836548   1.000000   1.000000
   57        6.183810      5.884833   1.000000   1.000000
   58        6.217872      5.926369   1.000000   1.000000
   59        6.253921      5.954598   1.000000   1.000000
   60        6.257455      6.017237   1.000000   1.000000
   61        6.297990      6.143644   1.000000   1.000000
   62        6.351317      6.181081   1.000000   1.000000
   63        6.362655      6.222583   1.000000   1.000000
   64        6.422684      6.240312   1.000000   1.000000
   65        6.509613      6.291995   1.000000   1.000000
   66        6.528329      6.315986   1.000000   1.000000
   67        6.588696      6.350037   1.000000   1.000000
   68        6.632819      6.363784   1.000000   1.000000
   69        6.688860      6.382413   1.000000   1.000000
   70        6.706172      6.422258   1.000000   1.000000
   71        6.760032      6.431577   1.000000   1.000000
   72        6.841502      6.469393   1.000000   1.000000
   73        6.859659      6.496423   1.000000   1.000000
   74        6.925252      6.550946   1.000000   1.000000
   75        6.951700      6.610383   1.000000   1.000000
   76        7.094221      6.720347   1.000029   1.000000
   77        7.210966      6.747329   1.000668   1.000000
   78        7.314976      6.767318   1.005930   1.000000
   79        7.381178      6.812698   1.016026   1.000000
   80        7.391542      6.846783   1.018191   1.000000
   81        7.465060      6.851820   1.033541   1.000000
   82        7.511664      6.865946   1.033497   1.000000
   83        7.515420      7.001649   1.032812   1.000001
   84        7.631956      7.051676   0.881653   1.000007
   85        7.706627      7.061403   0.617028   1.000011
   86        7.745868      7.182355   0.452646   1.000336
   87        7.864016      7.231835   0.055444   1.001078
   88        7.976064      7.322230  -0.035432   1.006662
   89        8.073043      7.382382  -0.019003   1.015450
   90        8.074082      7.474101  -0.018993   1.034594
   91        8.098033      7.519693  -0.013980   1.031547
   92        8.139384      7.587233  -0.007544   0.971735
   93        8.223461      7.663235  -0.001380   0.789503
   94        8.233498      7.805894  -0.001190   0.225363
   95        8.270462      7.819774  -0.000521   0.178601
   96        8.287019      7.891862  -0.000355   0.014593
   97        8.327731      7.995543  -0.000116  -0.034000
   98        8.341361      8.073126  -0.000078  -0.018750
   99        8.448963      8.086208  -0.000003  -0.014565
  100        8.499526      8.183909  -0.000000  -0.003306
  101        8.610984      8.251514  -0.000000  -0.000809
  102        8.654474      8.276478  -0.000000  -0.000393
  103        8.673102      8.318487  -0.000000  -0.000146
  104        8.734793      8.331338  -0.000000  -0.000101
 
  0.0000000E+00  0.2000000E+00  0.0000000E+00  0.1333333E-01
    1       -2.422306     -2.437652   1.000000   1.000000
    2       -1.095326     -1.111822   1.000000   1.000000
    3       -0.265329     -0.280920   1.000000   1.000000
    4       -0.227345     -0.244950   1.000000   1.000000
    5       -0.061336     -0.051671   1.000000   1.000000
    6        0.576457      0.557526   1.000000   1.000000
    7        0.887874      0.878243   1.000000   1.000000
    8        0.932436      0.904940   1.000000   1.000000
    9        0.962315      0.936763   1.000000   1.000000
   10        1.453361      1.434288   1.000000   1.000000
   11        1.472311      1.455698   1.000000   1.000000
   12        1.519636      1.464294   1.000000   1.000000
   13        1.953173      1.899362   1.000000   1.000000
   14        2.334292      2.276455   1.000000   1.000000
   15        2.341563      2.298498   1.000000   1.000000
   16        2.351478      2.305288   1.000000   1.000000
   17        2.360446      2.328443   1.000000   1.000000
   18        2.866255      2.799327   1.000000   1.000000
   19        3.269373      3.182379   1.000000   1.000000
   20        3.315059      3.236006   1.000000   1.000000
   21        3.618773      3.561528   1.000000   1.000000
   22        3.673051      3.600540   1.000000   1.000000
   23        3.762968      3.716604   1.000000   1.000000
   24        4.093981      4.040545   1.000000   1.000000
   25        4.236858      4.116297   1.000000   1.000000
   26        4.353889      4.207374   1.000000   1.000000
   27        4.409609      4.273898   1.000000   1.000000
   28        4.465540      4.342777   1.000000   1.000000
   29        4.616285      4.522128   1.000000   1.000000
   30        4.628907      4.537719   1.000000   1.000000
   31        4.680032      4.561138   1.000000   1.000000
   32        4.681671      4.565083   1.000000   1.000000
   33        4.759926      4.645216   1.000000   1.000000
   34        4.854325      4.683326   1.000000   1.000000
   35        4.915946      4.761616   1.000000   1.000000
   36        4.921677      4.876433   1.000000   1.000000
   37        5.083375      4.904848   1.000000   1.000000
   38        5.119598      4.943099   1.000000   1.000000
   39        5.123161      5.005903   1.000000   1.000000
   40        5.166223      5.008219   1.000000   1.000000
   41        5.217778      5.081379   1.000000   1.000000
   42        5.339990      5.233179   1.000000   1.000000
   43        5.354915      5.279339   1.000000   1.000000
   44        5.404201      5.308010   1.000000   1.000000
   45        5.465728      5.353769   1.000000   1.000000
   46        5.549875      5.366227   1.000000   1.000000
   47        5.601626      5.431085   1.000000   1.000000
   48        5.639927      5.440854   1.000000   1.000000
   49        5.647685      5.512776   1.000000   1.000000
   50        5.725625      5.605653   1.000000   1.000000
   51        5.778003      5.661499   1.000000   1.000000
   52        5.829635      5.711872   1.000000   1.000000
   53        5.928391      5.719813   1.000000   1.000000
   54        5.962370      5.750077   1.000000   1.000000
   55        6.049925      5.780554   1.000000   1.000000
   56        6.153633      5.913076   1.000000   1.000000
   57        6.218800      5.919118   1.000000   1.000000
   58        6.300988      5.963973   1.000000   1.000000
   59        6.306396      6.014596   1.000000   1.000000
   60        6.358001      6.075439   1.000000   1.000000
   61        6.377370      6.149706   1.000000   1.000000
   62        6.403212      6.188971   1.000000   1.000000
   63        6.476058      6.207103   1.000000   1.000000
   64        6.491814      6.293777   1.000000   1.000000
   65        6.509682      6.341359   1.000000   1.000000
   66        6.541656      6.355368   1.000000   1.000000
   67        6.576427      6.364546   1.000000   1.000000
   68        6.625652      6.387767   1.000000   1.000000
   69        6.696537      6.431945   1.000000   1.000000
   70        6.715466      6.476770   1.000000   1.000000
   71        6.788621      6.526996   1.000000   1.000000
   72        6.803619      6.547680   1.000000   1.000000
   73        6.852658      6.587917   1.000000   1.000000
   74        6.997709      6.593112   1.000001   1.000000
   75        7.034755      6.650579   1.000004   1.000000
   76        7.164839      6.657930   1.000206   1.000000
   77        7.223988      6.702508   1.000894   1.000000
   78        7.251372      6.745248   1.001697   1.000000
   79        7.342842      6.752958   1.008968   1.000000
   80        7.405435      6.795870   1.020818   1.000000
   81        7.430857      6.836358   1.026879   1.000000
   82        7.470526      6.949275   1.034339   1.000000
   83        7.520239      6.977015   1.031086   1.000001
   84        7.574570      7.000307   0.989512   1.000001
   85        7.608866      7.066263   0.936428   1.000011
   86        7.700838      7.169523   0.638845   1.000238
   87        7.831004      7.241597   0.138868   1.001311
   88        7.940699      7.293299  -0.028164   1.003816
   89        8.013787      7.402245  -0.032185   1.020080
   90        8.027768      7.465024  -0.029481   1.033300
   91        8.096888      7.562512  -0.013861   1.003430
   92        8.116673      7.570210  -0.010531   0.992890
   93        8.151886      7.618313  -0.006052   0.912427
   94        8.213057      7.692189  -0.001872   0.670309
   95        8.326568      7.850116  -0.000112   0.093826
   96        8.346999      7.982767  -0.000062  -0.035457
   97        8.380487      8.019427  -0.000023  -0.030439
   98        8.450694      8.025904  -0.000002  -0.029828
   99        8.551986      8.153041  -0.000000  -0.005908
  100        8.571956      8.171074  -0.000000  -0.004327
  101        8.642976      8.254390  -0.000000  -0.000750
  102        8.742504      8.288319  -0.000000  -0.000329
  103        8.743247      8.336401  -0.000000  -0.000053
  104        8.853163      8.358279  -0.000000  -0.000001
 
  0.2000000E+00  0.2000000E+00  0.0000000E+00  0.1333333E-01
    1       -2.332081     -2.347434   1.000000   1.000000
    2       -1.025359     -1.031137   1.000000   1.000000
    3       -0.993789     -1.020622   1.000000   1.000000
    4        0.004769      0.013728   1.000000   1.000000
    5        0.234757      0.216820   1.000000   1.000000
    6        0.643077      0.632149   1.000000   1.000000
    7        0.673104      0.640933   1.000000   1.000000
    8        0.940366      0.927901   1.000000   1.000000
    9        0.962220      0.961116   1.000000   1.000000
   10        1.612662      1.548206   1.000000   1.000000
   11        1.724062      1.703493   1.000000   1.000000
   12        1.806055      1.757865   1.000000   1.000000
   13        1.855301      1.827493   1.000000   1.000000
   14        2.003297      1.962571   1.000000   1.000000
   15        2.025064      1.982853   1.000000   1.000000
   16        2.815157      2.769343   1.000000   1.000000
   17        2.901039      2.832488   1.000000   1.000000
   18        2.914953      2.835088   1.000000   1.000000
   19        2.917923      2.845106   1.000000   1.000000
   20        2.986933      2.913000   1.000000   1.000000
   21        3.703529      3.609509   1.000000   1.000000
   22        3.799342      3.756476   1.000000   1.000000
   23        3.820402      3.767236   1.000000   1.000000
   24        3.901389      3.819539   1.000000   1.000000
   25        4.170350      4.082923   1.000000   1.000000
   26        4.271265      4.224492   1.000000   1.000000
   27        4.405176      4.293802   1.000000   1.000000
   28        4.431453      4.313429   1.000000   1.000000
   29        4.536687      4.337390   1.000000   1.000000
   30        4.570040      4.404829   1.000000   1.000000
   31        4.585822      4.425586   1.000000   1.000000
   32        4.679055      4.611228   1.000000   1.000000
   33        4.716029      4.649798   1.000000   1.000000
   34        4.874865      4.699679   1.000000   1.000000
   35        4.918950      4.736549   1.000000   1.000000
   36        4.945528      4.816203   1.000000   1.000000
   37        4.981480      4.869984   1.000000   1.000000
   38        4.981639      4.925381   1.000000   1.000000
   39        5.122288      5.041711   1.000000   1.000000
   40        5.192656      5.089849   1.000000   1.000000
   41        5.279230      5.147380   1.000000   1.000000
   42        5.329205      5.163155   1.000000   1.000000
   43        5.372339      5.250161   1.000000   1.000000
   44        5.388321      5.288423   1.000000   1.000000
   45        5.493921      5.386066   1.000000   1.000000
   46        5.567003      5.410106   1.000000   1.000000
   47        5.596411      5.423531   1.000000   1.000000
   48        5.726260      5.541595   1.000000   1.000000
   49        5.726384      5.602094   1.000000   1.000000
   50        5.782443      5.615395   1.000000   1.000000
   51        5.800126      5.683848   1.000000   1.000000
   52        5.839970      5.710593   1.000000   1.000000
   53        5.925028      5.727322   1.000000   1.000000
   54        5.959434      5.768255   1.000000   1.000000
   55        6.054936      5.809699   1.000000   1.000000
   56        6.146101      5.901189   1.000000   1.000000
   57        6.214179      5.913918   1.000000   1.000000
   58        6.240029      5.934475   1.000000   1.000000
   59        6.305416      6.006672   1.000000   1.000000
   60        6.328609      6.051432   1.000000   1.000000
   61        6.358781      6.075197   1.000000   1.000000
   62        6.419962      6.189666   1.000000   1.000000
   63        6.464477      6.241350   1.000000   1.000000
   64        6.486716      6.261615   1.000000   1.000000
   65        6.513784      6.323891   1.000000   1.000000
   66        6.533309      6.331412   1.000000   1.000000
   67        6.605470      6.351197   1.000000   1.000000
   68        6.639519      6.393228   1.000000   1.000000
   69        6.680658      6.433458   1.000000   1.000000
   70        6.708477      6.464560   1.000000   1.000000
   71        6.775830      6.512154   1.000000   1.000000
   72        6.842164      6.525066   1.000000   1.000000
   73        6.916497      6.567973   1.000000   1.000000
   74        6.923096      6.620731   1.000000   1.000000
   75        7.024162      6.636184   1.000003   1.000000
   76        7.111796      6.697270   1.000050   1.000000
   77        7.162860      6.728676   1.000194   1.000000
   78        7.250806      6.730360   1.001672   1.000000
   79        7.275857      6.767963   1.002744   1.000000
   80        7.382173      6.770145   1.016232   1.000000
   81        7.452751      6.885661   1.031364   1.000000
   82        7.460169      6.906064   1.032930   1.000000
   83        7.520576      6.938287   1.031439   1.000000
   84        7.567054      7.002165   0.998136   1.000001
   85        7.629057      7.036914   0.885595   1.000005
   86        7.664290      7.139264   0.783506   1.000105
   87        7.771270      7.222075   0.346644   1.000868
   88        7.988720      7.258826  -0.035194   1.001886
   89        8.041854      7.286055  -0.025996   1.003321
   90        8.056670      7.401113  -0.022441   1.020230
   91        8.083426      7.523269  -0.016942   1.030006
   92        8.109298      7.626225  -0.011896   0.896446