       N       E                     dE             d eps       ncg     rms          ort
DAV:   1     0.136982706607E+04    0.13698E+04   -0.57695E+04  5408   0.151E+03
DAV:   2    -0.355583435703E+02   -0.14054E+04   -0.13857E+04  5408   0.470E+02
DAV:   3    -0.232671476737E+03   -0.19711E+03   -0.18353E+03  5408   0.187E+02
DAV:   4    -0.264714856723E+03   -0.32043E+02   -0.29446E+02  5408   0.800E+01
DAV:   5    -0.268936720149E+03   -0.42219E+01   -0.40056E+01  5408   0.235E+01
DAV:   6    -0.269488565959E+03   -0.55185E+00   -0.52781E+00  5408   0.652E+00
DAV:   7    -0.269593605750E+03   -0.10504E+00   -0.10076E+00  5408   0.230E+00
DAV:   8    -0.269618079771E+03   -0.24474E-01   -0.23513E-01  5408   0.794E-01
SDA:   9    -0.616519666499E+02    0.20797E+03   -0.23513E-01  5408   0.235E+04 0.000E+00
CGA:  10    -0.207040003376E+03   -0.14539E+03   -0.14600E+03  5408   0.141E+03 0.409E+03
CGA:  11    -0.217457766871E+03   -0.10418E+02   -0.10471E+02  5408   0.555E+02 0.195E+01
CGA:  12    -0.225444970685E+03   -0.79872E+01   -0.79851E+01  5408   0.108E+03-0.207E+00
CGA:  13    -0.232468062631E+03   -0.70231E+01   -0.72544E+01  5408   0.210E+02-0.117E+01
CGA:  14    -0.233625580227E+03   -0.11575E+01   -0.11896E+01  5408   0.722E+01-0.385E+00
CGA:  15    -0.234313335806E+03   -0.68776E+00   -0.69266E+00  5408   0.639E+01-0.134E-01
CGA:  16    -0.235151580217E+03   -0.83824E+00   -0.83913E+00  5408   0.335E+01 0.937E-02
CGA:  17    -0.235363950472E+03   -0.21237E+00   -0.21183E+00  5408   0.169E+01 0.852E-02
CGA:  18    -0.235539686469E+03   -0.17574E+00   -0.17572E+00  5408   0.174E+01-0.474E-03
CGA:  19    -0.235754215689E+03   -0.21453E+00   -0.21475E+00  5408   0.994E+00-0.216E-03
CGA:  20    -0.235838071188E+03   -0.83855E-01   -0.84182E-01  5408   0.500E+00-0.244E-02
CGA:  21    -0.235893835832E+03   -0.55765E-01   -0.55750E-01  5408   0.742E+00-0.446E-03
CGA:  22    -0.235988538884E+03   -0.94703E-01   -0.94834E-01  5408   0.596E+00 0.138E-02
CGA:  23    -0.236038842672E+03   -0.50304E-01   -0.50136E-01  5408   0.211E+00 0.120E-03
CGA:  24    -0.236066369333E+03   -0.27527E-01   -0.27534E-01  5408   0.293E+00-0.809E-04
CGA:  25    -0.236097464859E+03   -0.31096E-01   -0.30996E-01  5408   0.305E+00-0.942E-03
CGA:  26    -0.236130952265E+03   -0.33487E-01   -0.33528E-01  5408   0.149E+00-0.783E-04
CGA:  27    -0.236154700154E+03   -0.23748E-01   -0.23760E-01  5408   0.217E+00-0.584E-03
CGA:  28    -0.236174930179E+03   -0.20230E-01   -0.20308E-01  5408   0.145E+00 0.337E-03
CGA:  29    -0.236186839797E+03   -0.11910E-01   -0.11802E-01  5408   0.616E-01 0.121E-02
CGA:  30    -0.236195355642E+03   -0.85158E-02   -0.85161E-02  5408   0.679E-01 0.471E-03
CGA:  31    -0.236205128430E+03   -0.97728E-02   -0.97722E-02  5408   0.817E-01 0.399E-03
CGA:  32    -0.236212489099E+03   -0.73607E-02   -0.74195E-02  5408   0.482E-01 0.576E-03
CGA:  33    -0.236218014275E+03   -0.55252E-02   -0.55330E-02  5408   0.510E-01 0.396E-03
CGA:  34    -0.236225071744E+03   -0.70575E-02   -0.70544E-02  5408   0.332E-01 0.862E-03
CGA:  35    -0.236228923332E+03   -0.38516E-02   -0.38580E-02  5408   0.244E-01 0.327E-03
CGA:  36    -0.236231084486E+03   -0.21612E-02   -0.21768E-02  5408   0.197E-01 0.179E-03
CGA:  37    -0.236234070502E+03   -0.29860E-02   -0.29827E-02  5408   0.186E-01 0.193E-03
CGA:  38    -0.236236604510E+03   -0.25340E-02   -0.25333E-02  5408   0.164E-01 0.169E-03
CGA:  39    -0.236238706358E+03   -0.21018E-02   -0.21017E-02  5408   0.185E-01 0.192E-04
SDA:  40    -0.236240422467E+03   -0.17161E-02   -0.17289E-02  5408   0.900E-02 0.612E-04
CGA:  41    -0.236241187697E+03   -0.76523E-03   -0.76461E-03  5408   0.914E-02 0.234E-05
CGA:  42    -0.236242269252E+03   -0.10816E-02   -0.10818E-02  5408   0.612E-02 0.107E-04
CGA:  43    -0.236243099024E+03   -0.82977E-03   -0.82999E-03  5408   0.676E-02-0.264E-04
CGA:  44    -0.236243991015E+03   -0.89199E-03   -0.89212E-03  5408   0.359E-02-0.338E-04
CGA:  45    -0.236244616657E+03   -0.62564E-03   -0.62616E-03  5408   0.633E-02-0.114E-04
CGA:  46    -0.236245576771E+03   -0.96011E-03   -0.96098E-03  5408   0.380E-02-0.318E-04
CGA:  47    -0.236246015409E+03   -0.43864E-03   -0.43913E-03  5408   0.560E-02 0.978E-05
CGA:  48    -0.236246863219E+03   -0.84781E-03   -0.84973E-03  5408   0.622E-02-0.634E-04
CGA:  49    -0.236247468160E+03   -0.60494E-03   -0.60653E-03  5408   0.349E-02 0.579E-05
CGA:  50    -0.236248201743E+03   -0.73358E-03   -0.73312E-03  5408   0.613E-02 0.803E-05
CGA:  51    -0.236248842297E+03   -0.64055E-03   -0.63971E-03  5408   0.236E-02 0.155E-04
CGA:  52    -0.236249218262E+03   -0.37597E-03   -0.37435E-03  5408   0.457E-02 0.463E-04
CGA:  53    -0.236249840259E+03   -0.62200E-03   -0.62193E-03  5408   0.410E-02-0.479E-04
CGA:  54    -0.236250204198E+03   -0.36394E-03   -0.36831E-03  5408   0.261E-02 0.386E-04
CGA:  55    -0.236250926616E+03   -0.72242E-03   -0.70778E-03  5408   0.399E-02 0.111E-03
CGA:  56    -0.236251252059E+03   -0.32544E-03   -0.32351E-03  5408   0.158E-02 0.688E-04
CGA:  57    -0.236251479892E+03   -0.22783E-03   -0.22732E-03  5408   0.282E-02 0.567E-04
CGA:  58    -0.236251932582E+03   -0.45269E-03   -0.45395E-03  5408   0.248E-02-0.210E-04
CGA:  59    -0.236252195559E+03   -0.26298E-03   -0.26416E-03  5408   0.196E-02 0.355E-04
CGA:  60    -0.236252530425E+03   -0.33487E-03   -0.33202E-03  5408   0.211E-02 0.668E-04
CGA:  61    -0.236252799848E+03   -0.26942E-03   -0.26863E-03  5408   0.250E-02-0.123E-04
CGA:  62    -0.236253076569E+03   -0.27672E-03   -0.27879E-03  5408   0.113E-02 0.253E-04
CGA:  63    -0.236253183555E+03   -0.10699E-03   -0.10712E-03  5408   0.908E-03-0.384E-05
CGA:  64    -0.236253364051E+03   -0.18050E-03   -0.18218E-03  5408   0.155E-02-0.212E-04
CGA:  65    -0.236253488797E+03   -0.12475E-03   -0.12575E-03  5408   0.683E-03-0.364E-05
CGA:  66    -0.236253593719E+03   -0.10492E-03   -0.10492E-03  5408   0.105E-02-0.145E-05
CGA:  67    -0.236253713005E+03   -0.11929E-03   -0.11904E-03  5408   0.569E-03-0.689E-05
CGA:  68    -0.236253757626E+03   -0.44621E-04   -0.44599E-04  5408   0.346E-03-0.691E-06
CGA:  69    -0.236253833791E+03   -0.76165E-04   -0.75921E-04  5408   0.775E-03 0.269E-05
CGA:  70    -0.236253904637E+03   -0.70846E-04   -0.71061E-04  5408   0.291E-03 0.350E-05
SDA:  71    -0.236253934991E+03   -0.30354E-04   -0.30466E-04  5408   0.310E-03 0.441E-05
CGA:  72    -0.236253956183E+03   -0.21191E-04   -0.21207E-04  5408   0.154E-03 0.301E-06
CGA:  73    -0.236253993768E+03   -0.37586E-04   -0.37360E-04  5408   0.192E-03 0.198E-05
CGA:  74    -0.236254013846E+03   -0.20078E-04   -0.20112E-04  5408   0.136E-03 0.102E-05
CGA:  75    -0.236254054052E+03   -0.40206E-04   -0.39742E-04  5408   0.298E-03 0.293E-05
CGA:  76    -0.236254086459E+03   -0.32407E-04   -0.32437E-04  5408   0.112E-03 0.120E-05
CGA:  77    -0.236254107594E+03   -0.21135E-04   -0.21135E-04  5408   0.173E-03-0.371E-08
CGA:  78    -0.236254129445E+03   -0.21851E-04   -0.21841E-04  5408   0.872E-04-0.715E-06
CGA:  79    -0.236254150321E+03   -0.20876E-04   -0.21082E-04  5408   0.191E-03-0.202E-05
CGA:  80    -0.236254175452E+03   -0.25131E-04   -0.25103E-04  5408   0.365E-04-0.268E-05
CGA:  81    -0.236254180982E+03   -0.55299E-05   -0.55296E-05  5408   0.492E-04 0.142E-07
CGA:  82    -0.236254187223E+03   -0.62408E-05   -0.62380E-05  5408   0.199E-04 0.192E-06
CGA:  83    -0.236254189516E+03   -0.22930E-05   -0.22990E-05  5408   0.225E-04 0.220E-06
CGA:  84    -0.236254196384E+03   -0.68686E-05   -0.66732E-05  5408   0.157E-04 0.131E-05
CGA:  85    -0.236254197937E+03   -0.15523E-05   -0.15856E-05  5408   0.700E-05 0.587E-06
CGA:  86    -0.236254199057E+03   -0.11204E-05   -0.11177E-05  5408   0.485E-05 0.467E-06
CGA:  87    -0.236254199767E+03   -0.71018E-06   -0.70719E-06  5408   0.510E-05-0.173E-06
CGA:  88    -0.236254200876E+03   -0.11083E-05   -0.11758E-05  5408   0.752E-05-0.767E-06
CGA:  89    -0.236254202197E+03   -0.13211E-05   -0.13248E-05  5408   0.117E-04-0.204E-06
CGA:  90    -0.236254203115E+03   -0.91828E-06   -0.92326E-06  5408  -0.298E-05 0.318E-07
CGA:  91    -0.236254178890E+03    0.24225E-04   -0.91041E-05  5408   0.383E-03-0.317E-04
CGA:  92    -0.236254197155E+03   -0.18265E-04   -0.18127E-04  5408   0.137E-04 0.757E-06
CGA:  93    -0.236254198577E+03   -0.14220E-05   -0.12956E-05  5408   0.116E-04 0.168E-06
CGA:  94    -0.236254195993E+03    0.25840E-05   -0.63291E-05  5408   0.676E-04-0.320E-04
CGA:  95    -0.236254201348E+03   -0.53551E-05   -0.51120E-05  5408   0.155E-04 0.417E-05
CGA:  96    -0.236254204466E+03   -0.31180E-05   -0.29866E-05  5408   0.202E-04 0.994E-06
CGA:  97    -0.236254206483E+03   -0.20172E-05   -0.20705E-05  5408   0.262E-05 0.785E-06
CGA:  98    -0.236254206623E+03   -0.13958E-06   -0.96907E-07  5408  -0.125E-05-0.192E-06
CGA:  99    -0.236254205847E+03    0.77521E-06   -0.34184E-06  5408  -0.125E-05-0.257E-05
CGA: 100    -0.236254202924E+03    0.29233E-05   -0.37615E-07  5408   0.293E-04-0.113E-04
   1 F= -.23625420E+03 E0= -.23626822E+03  d E =0.420363E-01  mag=    -7.4339
