 vasp.5.4.4.18Apr17-6-g9f103f2a35 (build Dec 20 2018 12:05:58) complex          
  
 executed on             LinuxIFC date 2019.06.20  16:18:45
 running on   32 total cores
 distrk:  each k-point on    8 cores,    4 groups
 distr:  one band on NCORES_PER_BAND=   4 cores,    2 groups


--------------------------------------------------------------------------------------------------------


 INCAR:
 POTCAR:    PAW_PBE Al 04Jan2001                  
 POTCAR:    PAW_PBE Mn 06Sep2000                  

 ----------------------------------------------------------------------------- 
|                                                                             |
|           W    W    AA    RRRRR   N    N  II  N    N   GGGG   !!!           |
|           W    W   A  A   R    R  NN   N  II  NN   N  G    G  !!!           |
|           W    W  A    A  R    R  N N  N  II  N N  N  G       !!!           |
|           W WW W  AAAAAA  RRRRR   N  N N  II  N  N N  G  GGG   !            |
|           WW  WW  A    A  R   R   N   NN  II  N   NN  G    G                |
|           W    W  A    A  R    R  N    N  II  N    N   GGGG   !!!           |
|                                                                             |
|      You have enabled k-point parallelism (KPAR>1).                         |
|      This developmental code was originally  written by Paul Kent at ORNL,  |
|      and carefully double checked in Vienna.                                |
|      GW as well as linear response parallelism added by Martijn Marsman     |
|      and Georg Kresse.                                                      |
|      Carefully verify results versus KPAR=1.                                |
|      Report problems to Paul Kent and Vienna.                               |
|                                                                             |
 ----------------------------------------------------------------------------- 

 POTCAR:    PAW_PBE Al 04Jan2001                  
   VRHFIN =Al: s2p1                                                             
   LEXCH  = PE                                                                  
   EATOM  =    53.5387 eV,    3.9350 Ry                                         
                                                                                
   TITEL  = PAW_PBE Al 04Jan2001                                                
   LULTRA =        F    use ultrasoft PP ?                                      
   IUNSCR =        1    unscreen: 0-lin 1-nonlin 2-no                           
   RPACOR =    1.500    partial core radius                                     
   POMASS =   26.981; ZVAL   =    3.000    mass and valenz                      
   RCORE  =    1.900    outmost cutoff radius                                   
   RWIGS  =    2.650; RWIGS  =    1.402    wigner-seitz radius (au A)           
   ENMAX  =  240.300; ENMIN  =  180.225 eV                                      
   ICORE  =        2    local potential                                         
   LCOR   =        T    correct aug charges                                     
   LPAW   =        T    paw PP                                                  
   EAUG   =  291.052                                                            
   DEXC   =    0.000                                                            
   RMAX   =    1.939    core radius for proj-oper                               
   RAUG   =    1.300    factor for augmentation sphere                          
   RDEP   =    1.966    radius for radial grids                                 
   RDEPT  =    1.856    core radius for aug-charge                              
                                                                                
   Atomic configuration                                                         
    6 entries                                                                   
     n  l   j            E        occ.                                          
     1  0  0.50     -1511.1048   2.0000                                         
     2  0  0.50      -108.1629   2.0000                                         
     2  1  1.50       -69.6402   6.0000                                         
     3  0  0.50        -7.7528   2.0000                                         
     3  1  1.50        -2.7121   1.0000                                         
     3  2  2.50        -2.7212   0.0000                                         
   Description                                                                  
     l       E           TYP  RCUT    TYP  RCUT                                 
     0     -7.7528455     23  1.900                                             
     0     -3.3096929     23  1.900                                             
     1     -2.7120682     23  1.900                                             
     1     13.6058260     23  1.900                                             
     2     -2.7211652      7  1.900                                             
  local pseudopotential read in
  partial core-charges read in
  partial kinetic energy density read in
  atomic valenz-charges read in
  non local Contribution for L=           0  read in
    real space projection operators read in
  non local Contribution for L=           0  read in
    real space projection operators read in
  non local Contribution for L=           1  read in
    real space projection operators read in
  non local Contribution for L=           1  read in
    real space projection operators read in
    PAW grid and wavefunctions read in
 
   number of l-projection  operators is LMAX  =           4
   number of lm-projection operators is LMMAX =           8
 
 POTCAR:    PAW_PBE Mn 06Sep2000                  
   VRHFIN =Mn: d6 s1                                                            
   LEXCH  = PE                                                                  
   EATOM  =   416.7541 eV,   30.6306 Ry                                         
                                                                                
   TITEL  = PAW_PBE Mn 06Sep2000                                                
   LULTRA =        F    use ultrasoft PP ?                                      
   IUNSCR =        1    unscreen: 0-lin 1-nonlin 2-no                           
   RPACOR =    2.000    partial core radius                                     
   POMASS =   54.938; ZVAL   =    7.000    mass and valenz                      
   RCORE  =    2.300    outmost cutoff radius                                   
   RWIGS  =    2.500; RWIGS  =    1.323    wigner-seitz radius (au A)           
   ENMAX  =  269.864; ENMIN  =  202.398 eV                                      
   RCLOC  =    1.725    cutoff for local pot                                    
   LCOR   =        T    correct aug charges                                     
   LPAW   =        T    paw PP                                                  
   EAUG   =  500.711                                                            
   DEXC   =    0.000                                                            
   RMAX   =    2.343    core radius for proj-oper                               
   RAUG   =    1.300    factor for augmentation sphere                          
   RDEP   =    2.338    radius for radial grids                                 
   RDEPT  =    1.911    core radius for aug-charge                              
                                                                                
   Atomic configuration                                                         
    9 entries                                                                   
     n  l   j            E        occ.                                          
     1  0  0.50     -6424.8288   2.0000                                         
     2  0  0.50      -739.1154   2.0000                                         
     2  1  1.50      -625.3949   6.0000                                         
     3  0  0.50       -81.6100   2.0000                                         
     3  1  1.50       -50.4667   6.0000                                         
     3  2  2.50        -3.3745   6.0000                                         
     4  0  0.50        -4.1331   1.0000                                         
     4  1  0.50        -4.0817   0.0000                                         
     4  3  2.50        -1.3606   0.0000                                         
   Description                                                                  
     l       E           TYP  RCUT    TYP  RCUT                                 
     2     -3.3744664     23  2.300                                             
     2     -4.7350490     23  2.300                                             
     0     -4.1331408     23  2.300                                             
     0      7.6656614     23  2.300                                             
     1     -2.7211652     23  2.300                                             
     1     20.4087390     23  2.300                                             
  local pseudopotential read in
  partial core-charges read in
  partial kinetic energy density read in
  atomic valenz-charges read in
  non local Contribution for L=           2  read in
    real space projection operators read in
  non local Contribution for L=           2  read in
    real space projection operators read in
  non local Contribution for L=           0  read in
    real space projection operators read in
  non local Contribution for L=           0  read in
    real space projection operators read in
  non local Contribution for L=           1  read in
    real space projection operators read in
  non local Contribution for L=           1  read in
    real space projection operators read in
    PAW grid and wavefunctions read in
 
   number of l-projection  operators is LMAX  =           6
   number of lm-projection operators is LMMAX =          18
 

 ----------------------------------------------------------------------------- 
|                                                                             |
|  ADVICE TO THIS USER RUNNING 'VASP/VAMP'   (HEAR YOUR MASTER'S VOICE ...):  |
|                                                                             |
|      You have a (more or less) 'large supercell' and for larger cells       |
|      it might be more efficient to use real space projection opertators     |
|      So try LREAL= Auto  in the INCAR   file.                               |
|      Mind:          For very  accurate calculation you might also keep the  |
|      reciprocal projection scheme          (i.e. LREAL=.FALSE.)             |
|                                                                             |
 ----------------------------------------------------------------------------- 

  PAW_PBE Al 04Jan2001                  :
 energy of atom  1       EATOM=  -53.5387
 kinetic energy error for atom=    0.0005 (will be added to EATOM!!)
  PAW_PBE Mn 06Sep2000                  :
 energy of atom  2       EATOM= -416.7541
 kinetic energy error for atom=    0.0080 (will be added to EATOM!!)
 
 
 POSCAR: NewRef: 18, @ ['Mn', array([1.37502469, 
  positions in cartesian coordinates
  velocities in cartesian coordinates
  No initial velocities read in
 exchange correlation table for  LEXCH =        8
   RHO(1)=    0.500       N(1)  =     2000
   RHO(2)=  100.500       N(2)  =     4000
 


--------------------------------------------------------------------------------------------------------


 ion  position               nearest neighbor table
   1  0.000  0.000  0.000-  20 2.61  24 2.61  32 2.61  36 2.61  31 2.61  23 2.61  35 2.61  19 2.61
                             3 2.75   7 2.75   5 2.75  13 2.75
   2  0.000  0.000  0.500-  19 2.61  23 2.61  31 2.61  35 2.61  20 2.61  32 2.61  24 2.61  36 2.61
                             4 2.75   8 2.75   6 2.75  14 2.75
   3  0.000  0.333  0.000-  20 2.61  32 2.61  22 2.61  34 2.61  19 2.61  31 2.61  33 2.61  21 2.61
                             9 2.75   1 2.75   5 2.75  15 2.75
   4  0.000  0.333  0.500-  19 2.61  31 2.61  21 2.61  33 2.61  32 2.61  20 2.61  22 2.61  34 2.61
                            10 2.75   2 2.75   6 2.75  16 2.75
   5  0.000  0.667  0.000-  22 2.61  34 2.61  24 2.61  36 2.61  21 2.61  33 2.61  35 2.61  23 2.61
                             3 2.75  11 2.75   1 2.75  17 2.75
   6  0.000  0.667  0.500-  21 2.61  33 2.61  23 2.61  35 2.61  34 2.61  22 2.61  24 2.61  36 2.61
                             4 2.75  12 2.75   2 2.75  18 2.75
   7  0.333  0.000  0.000-  20 2.61  24 2.61  26 2.61  30 2.61  23 2.61  19 2.61  29 2.61  25 2.61
                            13 2.75   1 2.75   9 2.75  11 2.75
   8  0.333  0.000  0.500-  19 2.61  23 2.61  25 2.61  29 2.61  20 2.61  24 2.61  26 2.61  30 2.61
                            14 2.75   2 2.75  10 2.75  12 2.75
   9  0.333  0.333  0.000-  20 2.61  22 2.61  26 2.61  19 2.61  28 2.61  21 2.61  25 2.61  27 2.61
                             3 2.75   7 2.75  11 2.75  15 2.75
  10  0.333  0.333  0.500-  19 2.61  21 2.61  25 2.61  20 2.61  27 2.61  26 2.61  22 2.61  28 2.61
                             4 2.75   8 2.75  12 2.75  16 2.75
  11  0.333  0.667  0.000-  22 2.61  24 2.61  28 2.61  21 2.61  30 2.61  23 2.61  27 2.61  29 2.61
                            17 2.75   5 2.75   9 2.75   7 2.75
  12  0.333  0.667  0.500-  21 2.61  23 2.61  27 2.61  22 2.61  29 2.61  28 2.61  24 2.61  30 2.61
                            18 2.75   6 2.75  10 2.75   8 2.75
  13  0.667  0.000  0.000-  26 2.61  30 2.61  32 2.61  36 2.61  29 2.61  25 2.61  35 2.61  31 2.61
                             7 2.75  15 2.75   1 2.75  17 2.75
  14  0.667  0.000  0.500-  25 2.61  29 2.61  31 2.61  35 2.61  26 2.61  30 2.61  32 2.61  36 2.61
                             8 2.75  16 2.75   2 2.75  18 2.75
  15  0.667  0.333  0.000-  26 2.61  28 2.61  32 2.61  25 2.61  34 2.61  27 2.61  31 2.61  33 2.61
                            17 2.75   9 2.75  13 2.75   3 2.75
  16  0.667  0.333  0.500-  25 2.61  27 2.61  31 2.61  26 2.61  33 2.61  32 2.61  28 2.61  34 2.61
                            18 2.75  10 2.75  14 2.75   4 2.75
  17  0.667  0.667  0.000-  28 2.61  30 2.61  34 2.61  27 2.61  36 2.61  29 2.61  33 2.61  35 2.61
                            11 2.75  15 2.75  13 2.75   5 2.75
  18  0.667  0.667  0.500-  27 2.61  29 2.61  33 2.61  28 2.61  35 2.61  34 2.61  30 2.61  36 2.61
                            12 2.75  16 2.75  14 2.75   6 2.75
  19  0.167  0.167  0.250-  10 2.61   8 2.61   4 2.61   9 2.61   2 2.61   7 2.61   3 2.61   1 2.61
                            21 2.75  25 2.75  23 2.75  31 2.75
  20  0.167  0.167  0.750-   9 2.61   7 2.61   3 2.61  10 2.61   1 2.61   4 2.61   8 2.61   2 2.61
                            22 2.75  26 2.75  24 2.75  32 2.75
  21  0.167  0.500  0.250-  12 2.61  10 2.61   6 2.61  11 2.61   4 2.61   9 2.61   5 2.61   3 2.61
                            19 2.75  23 2.75  27 2.75  33 2.75
  22  0.167  0.500  0.750-  11 2.61   9 2.61   5 2.61  12 2.61   3 2.61   6 2.61  10 2.61   4 2.61
                            20 2.75  24 2.75  28 2.75  34 2.75
  23  0.167  0.833  0.250-   8 2.61  12 2.61   2 2.61   6 2.61  11 2.61   7 2.61   5 2.61   1 2.61
                            21 2.75  29 2.75  19 2.75  35 2.75
  24  0.167  0.833  0.750-   7 2.61  11 2.61   1 2.61   5 2.61   8 2.61  12 2.61   2 2.61   6 2.61
                            22 2.75  30 2.75  20 2.75  36 2.75
  25  0.500  0.167  0.250-  16 2.61  14 2.61  10 2.61  15 2.61   8 2.61  13 2.61   9 2.61   7 2.61
                            19 2.75  27 2.75  31 2.75  29 2.75
  26  0.500  0.167  0.750-  15 2.61  13 2.61   9 2.61  16 2.61   7 2.61  10 2.61  14 2.61   8 2.61
                            20 2.75  28 2.75  32 2.75  30 2.75
  27  0.500  0.500  0.250-  18 2.61  16 2.61  12 2.61  17 2.61  10 2.61  15 2.61  11 2.61   9 2.61
                            21 2.75  25 2.75  29 2.75  33 2.75
  28  0.500  0.500  0.750-  17 2.61  15 2.61  11 2.61  18 2.61   9 2.61  12 2.61  16 2.61  10 2.61
                            22 2.75  26 2.75  30 2.75  34 2.75
  29  0.500  0.833  0.250-  14 2.61  18 2.61   8 2.61  12 2.61  17 2.61  13 2.61  11 2.61   7 2.61
                            23 2.75  27 2.75  35 2.75  25 2.75
  30  0.500  0.833  0.750-  13 2.61  17 2.61   7 2.61  11 2.61  14 2.61  18 2.61   8 2.61  12 2.61
                            24 2.75  28 2.75  36 2.75  26 2.75
  31  0.833  0.167  0.250-   4 2.61  16 2.61  14 2.61   2 2.61  15 2.61   3 2.61  13 2.61   1 2.61
                            25 2.75  33 2.75  19 2.75  35 2.75
  32  0.833  0.167  0.750-   3 2.61  15 2.61  13 2.61   1 2.61   4 2.61  16 2.61   2 2.61  14 2.61
                            26 2.75  34 2.75  20 2.75  36 2.75
  33  0.833  0.500  0.250-   6 2.61  18 2.61  16 2.61   4 2.61  17 2.61   5 2.61  15 2.61   3 2.61
                            27 2.75  31 2.75  35 2.75  21 2.75
  34  0.833  0.500  0.750-   5 2.61  17 2.61  15 2.61   3 2.61   6 2.61  18 2.61   4 2.61  16 2.61
                            28 2.75  32 2.75  36 2.75  22 2.75
  35  0.833  0.833  0.250-   2 2.61   6 2.61  14 2.61  18 2.61  13 2.61   5 2.61  17 2.61   1 2.61
                            29 2.75  33 2.75  31 2.75  23 2.75
  36  0.833  0.833  0.750-   1 2.61   5 2.61  13 2.61  17 2.61   2 2.61  14 2.61   6 2.61  18 2.61
                            30 2.75  34 2.75  32 2.75  24 2.75
 
  LATTYP: Found a simple tetragonal cell.
 ALAT       =     8.2501481662
 C/A-ratio  =     0.8428059861
  
  Lattice vectors:
  
 A1 = (   8.2501481662,   0.0000000000,   0.0000000000)
 A2 = (   0.0000000000,   8.2501481662,   0.0000000000)
 A3 = (   0.0000000000,   0.0000000000,   6.9532742610)


Analysis of symmetry for initial positions (statically):
=====================================================================
 Subroutine PRICEL returns following result:
 
  LATTYP: Found a simple tetragonal cell.
 ALAT       =     2.7500493888
 C/A-ratio  =     1.2642089792
  
  Lattice vectors:
  
 A1 = (   2.7500493888,   0.0000000000,   0.0000000000)
 A2 = (   0.0000000000,   2.7500493888,   0.0000000000)
 A3 = (   0.0000000000,   0.0000000000,   3.4766371305)
 
  18 primitive cells build up your supercell.
 

 Routine SETGRP: Setting up the symmetry group for a 
 simple tetragonal supercell.


 Subroutine GETGRP returns: Found 16 space group operations
 (whereof 16 operations were pure point group operations)
 out of a pool of 16 trial point group operations.


The static configuration has the point symmetry D_4h.


Analysis of symmetry for dynamics (positions and initial velocities):
=====================================================================
 Subroutine PRICEL returns following result:
 
  LATTYP: Found a simple tetragonal cell.
 ALAT       =     2.7500493888
 C/A-ratio  =     1.2642089792
  
  Lattice vectors:
  
 A1 = (   2.7500493888,   0.0000000000,   0.0000000000)
 A2 = (   0.0000000000,   2.7500493888,   0.0000000000)
 A3 = (   0.0000000000,   0.0000000000,   3.4766371305)
 
  18 primitive cells build up your supercell.
 

 Routine SETGRP: Setting up the symmetry group for a 
 simple tetragonal supercell.


 Subroutine GETGRP returns: Found 16 space group operations
 (whereof 16 operations were pure point group operations)
 out of a pool of 16 trial point group operations.


The dynamic configuration has the point symmetry D_4h.


Analysis of structural, dynamic, and magnetic symmetry:
=====================================================================
 Subroutine PRICEL returns:
 Original cell was already a primitive cell.
 

 Routine SETGRP: Setting up the symmetry group for a 
 simple tetragonal supercell.


 Subroutine GETGRP returns: Found  2 space group operations
 (whereof  1 operations were pure point group operations)
 out of a pool of 16 trial point group operations.


The magnetic configuration has the point symmetry C_1 .
 The point group associated with its full space group is C_1h.


 Subroutine INISYM returns: Found  2 space group operations
 (whereof  1 operations are pure point group operations),
 and found     1 'primitive' translations

 
 
 KPOINTS: automatic KPOINTS                       

Automatic generation of k-mesh.
 generate k-points for:    5    5    6
Space group operators:
 irot       det(A)        alpha          n_x          n_y          n_z        tau_x        tau_y        tau_z
    1     1.000000     0.000001     1.000000     0.000000     0.000000     0.000000     0.000000     0.000000
    2    -1.000000   179.999999     0.000000     0.000000     1.000000     0.000000     0.000000     0.500000
 
 Subroutine IBZKPT returns following result:
 ===========================================
 
 Found     52 irreducible k-points:
 
 Following reciprocal coordinates:
            Coordinates               Weight
  0.000000  0.000000  0.000000      1.000000
  0.200000  0.000000  0.000000      2.000000
  0.400000  0.000000  0.000000      2.000000
  0.000000  0.200000  0.000000      2.000000
  0.200000  0.200000  0.000000      2.000000
  0.400000  0.200000  0.000000      2.000000
 -0.400000  0.200000  0.000000      2.000000
 -0.200000  0.200000  0.000000      2.000000
  0.000000  0.400000  0.000000      2.000000
  0.200000  0.400000  0.000000      2.000000
  0.400000  0.400000  0.000000      2.000000
 -0.400000  0.400000  0.000000      2.000000
 -0.200000  0.400000  0.000000      2.000000
  0.000000  0.000000  0.166667      2.000000
  0.200000  0.000000  0.166667      4.000000
  0.400000  0.000000  0.166667      4.000000
  0.000000  0.200000  0.166667      4.000000
  0.200000  0.200000  0.166667      4.000000
  0.400000  0.200000  0.166667      4.000000
 -0.400000  0.200000  0.166667      4.000000
 -0.200000  0.200000  0.166667      4.000000
  0.000000  0.400000  0.166667      4.000000
  0.200000  0.400000  0.166667      4.000000
  0.400000  0.400000  0.166667      4.000000
 -0.400000  0.400000  0.166667      4.000000
 -0.200000  0.400000  0.166667      4.000000
  0.000000  0.000000  0.333333      2.000000
  0.200000  0.000000  0.333333      4.000000
  0.400000  0.000000  0.333333      4.000000
  0.000000  0.200000  0.333333      4.000000
  0.200000  0.200000  0.333333      4.000000
  0.400000  0.200000  0.333333      4.000000
 -0.400000  0.200000  0.333333      4.000000
 -0.200000  0.200000  0.333333      4.000000
  0.000000  0.400000  0.333333      4.000000
  0.200000  0.400000  0.333333      4.000000
  0.400000  0.400000  0.333333      4.000000
 -0.400000  0.400000  0.333333      4.000000
 -0.200000  0.400000  0.333333      4.000000
  0.000000  0.000000  0.500000      1.000000
  0.200000  0.000000  0.500000      2.000000
  0.400000  0.000000  0.500000      2.000000
  0.000000  0.200000  0.500000      2.000000
  0.200000  0.200000  0.500000      2.000000
  0.400000  0.200000  0.500000      2.000000
 -0.400000  0.200000  0.500000      2.000000
 -0.200000  0.200000  0.500000      2.000000
  0.000000  0.400000  0.500000      2.000000
  0.200000  0.400000  0.500000      2.000000
  0.400000  0.400000  0.500000      2.000000
 -0.400000  0.400000  0.500000      2.000000
 -0.200000  0.400000  0.500000      2.000000
 
 Following cartesian coordinates:
            Coordinates               Weight
  0.000000  0.000000  0.000000      1.000000
  0.024242  0.000000  0.000000      2.000000
  0.048484  0.000000  0.000000      2.000000
  0.000000  0.024242  0.000000      2.000000
  0.024242  0.024242  0.000000      2.000000
  0.048484  0.024242  0.000000      2.000000
 -0.048484  0.024242  0.000000      2.000000
 -0.024242  0.024242  0.000000      2.000000
  0.000000  0.048484  0.000000      2.000000
  0.024242  0.048484  0.000000      2.000000
  0.048484  0.048484  0.000000      2.000000
 -0.048484  0.048484  0.000000      2.000000
 -0.024242  0.048484  0.000000      2.000000
  0.000000  0.000000  0.023970      2.000000
  0.024242  0.000000  0.023970      4.000000
  0.048484  0.000000  0.023970      4.000000
  0.000000  0.024242  0.023970      4.000000
  0.024242  0.024242  0.023970      4.000000
  0.048484  0.024242  0.023970      4.000000
 -0.048484  0.024242  0.023970      4.000000
 -0.024242  0.024242  0.023970      4.000000
  0.000000  0.048484  0.023970      4.000000
  0.024242  0.048484  0.023970      4.000000
  0.048484  0.048484  0.023970      4.000000
 -0.048484  0.048484  0.023970      4.000000
 -0.024242  0.048484  0.023970      4.000000
  0.000000  0.000000  0.047939      2.000000
  0.024242  0.000000  0.047939      4.000000
  0.048484  0.000000  0.047939      4.000000
  0.000000  0.024242  0.047939      4.000000
  0.024242  0.024242  0.047939      4.000000
  0.048484  0.024242  0.047939      4.000000
 -0.048484  0.024242  0.047939      4.000000
 -0.024242  0.024242  0.047939      4.000000
  0.000000  0.048484  0.047939      4.000000
  0.024242  0.048484  0.047939      4.000000
  0.048484  0.048484  0.047939      4.000000
 -0.048484  0.048484  0.047939      4.000000
 -0.024242  0.048484  0.047939      4.000000
  0.000000  0.000000  0.071909      1.000000
  0.024242  0.000000  0.071909      2.000000
  0.048484  0.000000  0.071909      2.000000
  0.000000  0.024242  0.071909      2.000000
  0.024242  0.024242  0.071909      2.000000
  0.048484  0.024242  0.071909      2.000000
 -0.048484  0.024242  0.071909      2.000000
 -0.024242  0.024242  0.071909      2.000000
  0.000000  0.048484  0.071909      2.000000
  0.024242  0.048484  0.071909      2.000000
  0.048484  0.048484  0.071909      2.000000
 -0.048484  0.048484  0.071909      2.000000
 -0.024242  0.048484  0.071909      2.000000
 


--------------------------------------------------------------------------------------------------------




 Dimension of arrays:
   k-points           NKPTS =     52   k-points in BZ     NKDIM =     52   number of bands    NBANDS=    104
   number of dos      NEDOS =    301   number of ions     NIONS =     36
   non local maximal  LDIM  =      6   non local SUM 2l+1 LMDIM =     18
   total plane-waves  NPLWV = 139968
   max r-space proj   IRMAX =      1   max aug-charges    IRDMAX=  92271
   dimension x,y,z NGX =    54 NGY =   54 NGZ =   48
   dimension x,y,z NGXF=   108 NGYF=  108 NGZF=   96
   support grid    NGXF=   216 NGYF=  216 NGZF=  192
   ions per type =              18  18
   NGX,Y,Z   is equivalent  to a cutoff of  10.88, 10.88, 11.48 a.u.
   NGXF,Y,Z  is equivalent  to a cutoff of  21.76, 21.76, 22.95 a.u.

 SYSTEM =  AlMn_pv                                 
 POSCAR =  NewRef: 18, @ ['Mn', array([1.37502469, 

 Startparameter for this run:
   NWRITE =      2    write-flag & timer
   PREC   = accura    normal or accurate (medium, high low for compatibility)
   ISTART =      0    job   : 0-new  1-cont  2-samecut
   ICHARG =      2    charge: 1-file 2-atom 10-const
   ISPIN  =      2    spin polarized calculation?
   LNONCOLLINEAR =      F non collinear calculations
   LSORBIT =      F    spin-orbit coupling
   INIWAV =      1    electr: 0-lowe 1-rand  2-diag
   LASPH  =      F    aspherical Exc in radial PAW
   METAGGA=      F    non-selfconsistent MetaGGA calc.

 Electronic Relaxation 1
   ENCUT  =  404.8 eV  29.75 Ry    5.45 a.u.  13.53 13.53 11.41*2*pi/ulx,y,z
   ENINI  =  404.8     initial cutoff
   ENAUG  =  500.7 eV  augmentation charge cutoff
   NELM   =    100;   NELMIN=  4; NELMDL= -8     # of ELM steps 
   EDIFF  = 0.1E-06   stopping-criterion for ELM
   LREAL  =      F    real-space projection
   NLSPLINE    = F    spline interpolate recip. space projectors
   LCOMPAT=      F    compatible to vasp.4.4
   GGA_COMPAT  = T    GGA compatible to vasp.4.4-vasp.4.6
   LMAXPAW     = -100 max onsite density
   LMAXMIX     =    2 max onsite mixed and CHGCAR
   VOSKOWN=      0    Vosko Wilk Nusair interpolation
   ROPT   =    0.00000   0.00000
 Ionic relaxation
   EDIFFG = 0.1E-05   stopping-criterion for IOM
   NSW    =      0    number of steps for IOM
   NBLOCK =      1;   KBLOCK =      1    inner block; outer block 
   IBRION =     -1    ionic relax: 0-MD 1-quasi-New 2-CG
   NFREE  =      0    steps in history (QN), initial steepest desc. (CG)
   ISIF   =      2    stress and relaxation
   IWAVPR =     10    prediction:  0-non 1-charg 2-wave 3-comb
   ISYM   =      2    0-nonsym 1-usesym 2-fastsym
   LCORR  =      T    Harris-Foulkes like correction to forces

   POTIM  = 0.2000    time-step for ionic-motion
   TEIN   =    0.0    initial temperature
   TEBEG  =    0.0;   TEEND  =   0.0 temperature during run
   SMASS  =  -3.00    Nose mass-parameter (am)
   estimated Nose-frequenzy (Omega)   =  0.10E-29 period in steps =****** mass=  -0.156E-26a.u.
   SCALEE = 1.0000    scale energy and forces
   NPACO  =    256;   APACO  = 16.0  distance and # of slots for P.C.
   PSTRESS=    0.0 pullay stress

  Mass of Ions in am
   POMASS =  26.98 54.94
  Ionic Valenz
   ZVAL   =   3.00  7.00
  Atomic Wigner-Seitz radii
   RWIGS  =  -1.00 -1.00
  virtual crystal weights 
   VCA    =   1.00  1.00
   NELECT =     180.0000    total number of electrons
   NUPDOWN=      -1.0000    fix difference up-down

 DOS related values:
   EMIN   =  10.00;   EMAX   =-10.00  energy-range for DOS
   EFERMI =   0.00
   ISMEAR =     1;   SIGMA  =   0.20  broadening in eV -4-tet -1-fermi 0-gaus

 Electronic relaxation 2 (details)
   IALGO  =     58    algorithm
   LDIAG  =      T    sub-space diagonalisation (order eigenvalues)
   LSUBROT=      F    optimize rotation matrix (better conditioning)
   TURBO    =      0    0=normal 1=particle mesh
   IRESTART =      0    0=no restart 2=restart with 2 vectors
   NREBOOT  =      0    no. of reboots
   NMIN     =      0    reboot dimension
   EREF     =   0.00    reference energy to select bands
   IMIX   =      4    mixing-type and parameters
     AMIX     =   0.40;   BMIX     =  1.00
     AMIX_MAG =   1.60;   BMIX_MAG =  1.00
     AMIN     =   0.10
     WC   =   100.;   INIMIX=   1;  MIXPRE=   1;  MAXMIX= -45

 Intra band minimization:
   WEIMIN = 0.0000     energy-eigenvalue tresh-hold
   EBREAK =  0.24E-09  absolut break condition
   DEPER  =   0.30     relativ break condition  

   TIME   =   0.40     timestep for ELM

  volume/ion in A,a.u.               =      13.15        88.72
  Fermi-wavevector in a.u.,A,eV,Ry     =   1.186118  2.241439 19.141722  1.406877
  Thomas-Fermi vector in A             =   2.322298
 
 Write flags
   LWAVE        =      F    write WAVECAR
   LDOWNSAMPLE  =      F    k-point downsampling of WAVECAR
   LCHARG       =      F    write CHGCAR
   LVTOT        =      F    write LOCPOT, total local potential
   LVHAR        =      F    write LOCPOT, Hartree potential only
   LELF         =      F    write electronic localiz. function (ELF)
   LORBIT       =     10    0 simple, 1 ext, 2 COOP (PROOUT), +10 PAW based schemes


 Dipole corrections
   LMONO  =      F    monopole corrections only (constant potential shift)
   LDIPOL =      F    correct potential (dipole corrections)
   IDIPOL =      0    1-x, 2-y, 3-z, 4-all directions 
   EPSILON=  1.0000000 bulk dielectric constant

 Exchange correlation treatment:
   GGA     =    --    GGA type
   LEXCH   =     8    internal setting for exchange type
   VOSKOWN=      0    Vosko Wilk Nusair interpolation
   LHFCALC =     F    Hartree Fock is set to
   LHFONE  =     F    Hartree Fock one center treatment
   AEXX    =    0.0000 exact exchange contribution

 Linear response parameters
   LEPSILON=     F    determine dielectric tensor
   LRPA    =     F    only Hartree local field effects (RPA)
   LNABLA  =     F    use nabla operator in PAW spheres
   LVEL    =     F    velocity operator in full k-point grid
   LINTERFAST=   F  fast interpolation
   KINTER  =     0    interpolate to denser k-point grid
   CSHIFT  =0.1000    complex shift for real part using Kramers Kronig
   OMEGAMAX=  -1.0    maximum frequency
   DEG_THRESHOLD= 0.2000000E-02 threshold for treating states as degnerate
   RTIME   =   -0.100 relaxation time in fs
  (WPLASMAI=    0.000 imaginary part of plasma frequency in eV, 0.658/RTIME)
   DFIELD  = 0.0000000 0.0000000 0.0000000 field for delta impulse in time
 
 Orbital magnetization related:
   ORBITALMAG=     F  switch on orbital magnetization
   LCHIMAG   =     F  perturbation theory with respect to B field
   DQ        =  0.001000  dq finite difference perturbation B field
   LLRAUG    =     F  two centre corrections for induced B field



--------------------------------------------------------------------------------------------------------


 Static calculation
 charge density and potential will be updated during run
 spin polarized calculation
 Conjugate gradient for all bands (Freysoldt, et al. PRB 79, 241103 (2009))
 preconditioned conjugated gradient                                        
 perform sub-space diagonalisation
    before iterative eigenvector-optimisation
 modified Broyden-mixing scheme, WC =      100.0
 initial mixing is a Kerker type mixing with AMIX =  0.4000 and BMIX =      1.0000
 Hartree-type preconditioning will be used
 using additional bands           14
 reciprocal scheme for non local part
 use partial core corrections
 no Harris-corrections to forces 
 use gradient corrections 
 use of overlap-Matrix (Vanderbilt PP)
 Methfessel and Paxton  Order N= 1 SIGMA  =   0.20


--------------------------------------------------------------------------------------------------------


  energy-cutoff  :      404.80
  volume of cell :      473.27
      direct lattice vectors                 reciprocal lattice vectors
     8.250148166  0.000000000  0.000000000     0.121209944  0.000000000  0.000000000
     0.000000000  8.250148166  0.000000000     0.000000000  0.121209944  0.000000000
     0.000000000  0.000000000  6.953274261     0.000000000  0.000000000  0.143817137

  length of vectors
     8.250148166  8.250148166  6.953274261     0.121209944  0.121209944  0.143817137


 
 k-points in units of 2pi/SCALE and weight: automatic KPOINTS                       
   0.00000000  0.00000000  0.00000000       0.007
   0.02424199  0.00000000  0.00000000       0.013
   0.04848398  0.00000000  0.00000000       0.013
   0.00000000  0.02424199  0.00000000       0.013
   0.02424199  0.02424199  0.00000000       0.013
   0.04848398  0.02424199  0.00000000       0.013
  -0.04848398  0.02424199  0.00000000       0.013
  -0.02424199  0.02424199  0.00000000       0.013
   0.00000000  0.04848398  0.00000000       0.013
   0.02424199  0.04848398  0.00000000       0.013
   0.04848398  0.04848398  0.00000000       0.013
  -0.04848398  0.04848398  0.00000000       0.013
  -0.02424199  0.04848398  0.00000000       0.013
   0.00000000  0.00000000  0.02396952       0.013
   0.02424199  0.00000000  0.02396952       0.027
   0.04848398  0.00000000  0.02396952       0.027
   0.00000000  0.02424199  0.02396952       0.027
   0.02424199  0.02424199  0.02396952       0.027
   0.04848398  0.02424199  0.02396952       0.027
  -0.04848398  0.02424199  0.02396952       0.027
  -0.02424199  0.02424199  0.02396952       0.027
   0.00000000  0.04848398  0.02396952       0.027
   0.02424199  0.04848398  0.02396952       0.027
   0.04848398  0.04848398  0.02396952       0.027
  -0.04848398  0.04848398  0.02396952       0.027
  -0.02424199  0.04848398  0.02396952       0.027
   0.00000000  0.00000000  0.04793905       0.013
   0.02424199  0.00000000  0.04793905       0.027
   0.04848398  0.00000000  0.04793905       0.027
   0.00000000  0.02424199  0.04793905       0.027
   0.02424199  0.02424199  0.04793905       0.027
   0.04848398  0.02424199  0.04793905       0.027
  -0.04848398  0.02424199  0.04793905       0.027
  -0.02424199  0.02424199  0.04793905       0.027
   0.00000000  0.04848398  0.04793905       0.027
   0.02424199  0.04848398  0.04793905       0.027
   0.04848398  0.04848398  0.04793905       0.027
  -0.04848398  0.04848398  0.04793905       0.027
  -0.02424199  0.04848398  0.04793905       0.027
   0.00000000  0.00000000  0.07190857       0.007
   0.02424199  0.00000000  0.07190857       0.013
   0.04848398  0.00000000  0.07190857       0.013
   0.00000000  0.02424199  0.07190857       0.013
   0.02424199  0.02424199  0.07190857       0.013
   0.04848398  0.02424199  0.07190857       0.013
  -0.04848398  0.02424199  0.07190857       0.013
  -0.02424199  0.02424199  0.07190857       0.013
   0.00000000  0.04848398  0.07190857       0.013
   0.02424199  0.04848398  0.07190857       0.013
   0.04848398  0.04848398  0.07190857       0.013
  -0.04848398  0.04848398  0.07190857       0.013
  -0.02424199  0.04848398  0.07190857       0.013
 
 k-points in reciprocal lattice and weights: automatic KPOINTS                       
   0.00000000  0.00000000  0.00000000       0.007
   0.20000000  0.00000000  0.00000000       0.013
   0.40000000  0.00000000  0.00000000       0.013
   0.00000000  0.20000000  0.00000000       0.013
   0.20000000  0.20000000  0.00000000       0.013
   0.40000000  0.20000000  0.00000000       0.013
  -0.40000000  0.20000000  0.00000000       0.013
  -0.20000000  0.20000000  0.00000000       0.013
   0.00000000  0.40000000  0.00000000       0.013
   0.20000000  0.40000000  0.00000000       0.013
   0.40000000  0.40000000  0.00000000       0.013
  -0.40000000  0.40000000  0.00000000       0.013
  -0.20000000  0.40000000  0.00000000       0.013
   0.00000000  0.00000000  0.16666667       0.013
   0.20000000  0.00000000  0.16666667       0.027
   0.40000000  0.00000000  0.16666667       0.027
   0.00000000  0.20000000  0.16666667       0.027
   0.20000000  0.20000000  0.16666667       0.027
   0.40000000  0.20000000  0.16666667       0.027
  -0.40000000  0.20000000  0.16666667       0.027
  -0.20000000  0.20000000  0.16666667       0.027
   0.00000000  0.40000000  0.16666667       0.027
   0.20000000  0.40000000  0.16666667       0.027
   0.40000000  0.40000000  0.16666667       0.027
  -0.40000000  0.40000000  0.16666667       0.027
  -0.20000000  0.40000000  0.16666667       0.027
   0.00000000  0.00000000  0.33333333       0.013
   0.20000000  0.00000000  0.33333333       0.027
   0.40000000  0.00000000  0.33333333       0.027
   0.00000000  0.20000000  0.33333333       0.027
   0.20000000  0.20000000  0.33333333       0.027
   0.40000000  0.20000000  0.33333333       0.027
  -0.40000000  0.20000000  0.33333333       0.027
  -0.20000000  0.20000000  0.33333333       0.027
   0.00000000  0.40000000  0.33333333       0.027
   0.20000000  0.40000000  0.33333333       0.027
   0.40000000  0.40000000  0.33333333       0.027
  -0.40000000  0.40000000  0.33333333       0.027
  -0.20000000  0.40000000  0.33333333       0.027
   0.00000000  0.00000000  0.50000000       0.007
   0.20000000  0.00000000  0.50000000       0.013
   0.40000000  0.00000000  0.50000000       0.013
   0.00000000  0.20000000  0.50000000       0.013
   0.20000000  0.20000000  0.50000000       0.013
   0.40000000  0.20000000  0.50000000       0.013
  -0.40000000  0.20000000  0.50000000       0.013
  -0.20000000  0.20000000  0.50000000       0.013
   0.00000000  0.40000000  0.50000000       0.013
   0.20000000  0.40000000  0.50000000       0.013
   0.40000000  0.40000000  0.50000000       0.013
  -0.40000000  0.40000000  0.50000000       0.013
  -0.20000000  0.40000000  0.50000000       0.013
 
 position of ions in fractional coordinates (direct lattice) 
   0.00000000  0.00000000  0.00000000
   0.00000000  0.00000000  0.50000000
   0.00000000  0.33333333  0.00000000
   0.00000000  0.33333333  0.50000000
   0.00000000  0.66666667  0.00000000
   0.00000000  0.66666667  0.50000000
   0.33333333  0.00000000  0.00000000
   0.33333333  0.00000000  0.50000000
   0.33333333  0.33333333  0.00000000
   0.33333333  0.33333333  0.50000000
   0.33333333  0.66666667  0.00000000
   0.33333333  0.66666667  0.50000000
   0.66666667  0.00000000  0.00000000
   0.66666667  0.00000000  0.50000000
   0.66666667  0.33333333  0.00000000
   0.66666667  0.33333333  0.50000000
   0.66666667  0.66666667  0.00000000
   0.66666667  0.66666667  0.50000000
   0.16666667  0.16666667  0.25000000
   0.16666667  0.16666667  0.75000000
   0.16666667  0.50000000  0.25000000
   0.16666667  0.50000000  0.75000000
   0.16666667  0.83333333  0.25000000
   0.16666667  0.83333333  0.75000000
   0.50000000  0.16666667  0.25000000
   0.50000000  0.16666667  0.75000000
   0.50000000  0.50000000  0.25000000
   0.50000000  0.50000000  0.75000000
   0.50000000  0.83333333  0.25000000
   0.50000000  0.83333333  0.75000000
   0.83333333  0.16666667  0.25000000
   0.83333333  0.16666667  0.75000000
   0.83333333  0.50000000  0.25000000
   0.83333333  0.50000000  0.75000000
   0.83333333  0.83333333  0.25000000
   0.83333333  0.83333333  0.75000000
 
 position of ions in cartesian coordinates  (Angst):
   0.00000000  0.00000000  0.00000000
   0.00000000  0.00000000  3.47663713
   0.00000000  2.75004939  0.00000000
   0.00000000  2.75004939  3.47663713
   0.00000000  5.50009878  0.00000000
   0.00000000  5.50009878  3.47663713
   2.75004939  0.00000000  0.00000000
   2.75004939  0.00000000  3.47663713
   2.75004939  2.75004939  0.00000000
   2.75004939  2.75004939  3.47663713
   2.75004939  5.50009878  0.00000000
   2.75004939  5.50009878  3.47663713
   5.50009878  0.00000000  0.00000000
   5.50009878  0.00000000  3.47663713
   5.50009878  2.75004939  0.00000000
   5.50009878  2.75004939  3.47663713
   5.50009878  5.50009878  0.00000000
   5.50009878  5.50009878  3.47663713
   1.37502469  1.37502469  1.73831857
   1.37502469  1.37502469  5.21495570
   1.37502469  4.12507408  1.73831857
   1.37502469  4.12507408  5.21495570
   1.37502469  6.87512347  1.73831857
   1.37502469  6.87512347  5.21495570
   4.12507408  1.37502469  1.73831857
   4.12507408  1.37502469  5.21495570
   4.12507408  4.12507408  1.73831857
   4.12507408  4.12507408  5.21495570
   4.12507408  6.87512347  1.73831857
   4.12507408  6.87512347  5.21495570
   6.87512347  1.37502469  1.73831857
   6.87512347  1.37502469  5.21495570
   6.87512347  4.12507408  1.73831857
   6.87512347  4.12507408  5.21495570
   6.87512347  6.87512347  1.73831857
   6.87512347  6.87512347  5.21495570
 


--------------------------------------------------------------------------------------------------------


 k-point  1 :   0.0000 0.0000 0.0000  plane waves:    8799
 k-point  2 :   0.2000 0.0000 0.0000  plane waves:    8753
 k-point  3 :   0.4000 0.0000 0.0000  plane waves:    8757
 k-point  4 :   0.0000 0.2000 0.0000  plane waves:    8753
 k-point  5 :   0.2000 0.2000 0.0000  plane waves:    8767
 k-point  6 :   0.4000 0.2000 0.0000  plane waves:    8761
 k-point  7 :  -0.4000 0.2000 0.0000  plane waves:    8761
 k-point  8 :  -0.2000 0.2000 0.0000  plane waves:    8767
 k-point  9 :   0.0000 0.4000 0.0000  plane waves:    8757
 k-point 10 :   0.2000 0.4000 0.0000  plane waves:    8761
 k-point 11 :   0.4000 0.4000 0.0000  plane waves:    8731
 k-point 12 :  -0.4000 0.4000 0.0000  plane waves:    8731
 k-point 13 :  -0.2000 0.4000 0.0000  plane waves:    8761
 k-point 14 :   0.0000 0.0000 0.1667  plane waves:    8763
 k-point 15 :   0.2000 0.0000 0.1667  plane waves:    8771
 k-point 16 :   0.4000 0.0000 0.1667  plane waves:    8747
 k-point 17 :   0.0000 0.2000 0.1667  plane waves:    8771
 k-point 18 :   0.2000 0.2000 0.1667  plane waves:    8764
 k-point 19 :   0.4000 0.2000 0.1667  plane waves:    8768
 k-point 20 :  -0.4000 0.2000 0.1667  plane waves:    8768
 k-point 21 :  -0.2000 0.2000 0.1667  plane waves:    8764
 k-point 22 :   0.0000 0.4000 0.1667  plane waves:    8747
 k-point 23 :   0.2000 0.4000 0.1667  plane waves:    8768
 k-point 24 :   0.4000 0.4000 0.1667  plane waves:    8740
 k-point 25 :  -0.4000 0.4000 0.1667  plane waves:    8740
 k-point 26 :  -0.2000 0.4000 0.1667  plane waves:    8768
 k-point 27 :   0.0000 0.0000 0.3333  plane waves:    8743
 k-point 28 :   0.2000 0.0000 0.3333  plane waves:    8736
 k-point 29 :   0.4000 0.0000 0.3333  plane waves:    8753
 k-point 30 :   0.0000 0.2000 0.3333  plane waves:    8736
 k-point 31 :   0.2000 0.2000 0.3333  plane waves:    8753
 k-point 32 :   0.4000 0.2000 0.3333  plane waves:    8743
 k-point 33 :  -0.4000 0.2000 0.3333  plane waves:    8743
 k-point 34 :  -0.2000 0.2000 0.3333  plane waves:    8753
 k-point 35 :   0.0000 0.4000 0.3333  plane waves:    8753
 k-point 36 :   0.2000 0.4000 0.3333  plane waves:    8743
 k-point 37 :   0.4000 0.4000 0.3333  plane waves:    8755
 k-point 38 :  -0.4000 0.4000 0.3333  plane waves:    8755
 k-point 39 :  -0.2000 0.4000 0.3333  plane waves:    8743
 k-point 40 :   0.0000 0.0000 0.5000  plane waves:    8742
 k-point 41 :   0.2000 0.0000 0.5000  plane waves:    8756
 k-point 42 :   0.4000 0.0000 0.5000  plane waves:    8744
 k-point 43 :   0.0000 0.2000 0.5000  plane waves:    8756
 k-point 44 :   0.2000 0.2000 0.5000  plane waves:    8762
 k-point 45 :   0.4000 0.2000 0.5000  plane waves:    8732
 k-point 46 :  -0.4000 0.2000 0.5000  plane waves:    8732
 k-point 47 :  -0.2000 0.2000 0.5000  plane waves:    8762
 k-point 48 :   0.0000 0.4000 0.5000  plane waves:    8744
 k-point 49 :   0.2000 0.4000 0.5000  plane waves:    8732
 k-point 50 :   0.4000 0.4000 0.5000  plane waves:    8736
 k-point 51 :  -0.4000 0.4000 0.5000  plane waves:    8736
 k-point 52 :  -0.2000 0.4000 0.5000  plane waves:    8732

 maximum and minimum number of plane-waves per node :      2210     2164

 maximum number of plane-waves:      8799
 maximum index in each direction: 
   IXMAX=   13   IYMAX=   13   IZMAX=   11
   IXMIN=  -13   IYMIN=  -13   IZMIN=  -11


 parallel 3D FFT for wavefunctions:
    minimum data exchange during FFTs selected (reduces bandwidth)
 parallel 3D FFT for charge:
    minimum data exchange during FFTs selected (reduces bandwidth)


 total amount of memory used by VASP MPI-rank0   705355. kBytes
=======================================================================

   base      :      30000. kBytes
   nonl-proj :      34307. kBytes
   fftplans  :      21726. kBytes
   grid      :      14732. kBytes
   one-center:        279. kBytes
   wavefun   :     604311. kBytes
 
     INWAV:  cpu time    0.0000: real time    0.0000
 Broyden mixing: mesh for mixing (old mesh)
   NGX = 27   NGY = 27   NGZ = 23
  (NGX  =108   NGY  =108   NGZ  = 96)
  gives a total of  16767 points

 initial charge density was supplied:
 charge density of overlapping atoms calculated
 number of electron     180.0000000 magnetization     -12.0000000
 keeping initial charge density in first step


--------------------------------------------------------------------------------------------------------


 Maximum index for augmentation-charges        11261 (set IRDMAX)


--------------------------------------------------------------------------------------------------------


 First call to EWALD:  gamma=   0.227
 Maximum number of real-space cells 3x 3x 3
 Maximum number of reciprocal cells 3x 3x 3

    FEWALD:  cpu time    0.0056: real time    0.0056


--------------------------------------- Iteration      1(   1)  ---------------------------------------


    POTLOK:  cpu time    0.2618: real time    0.2622
    SETDIJ:  cpu time    0.2863: real time    0.3506
    TRIAL :  cpu time   16.9391: real time   17.0903
    CORREC:  cpu time    0.0061: real time    0.0071
    --------------------------------------------
      LOOP:  cpu time   17.6863: real time   17.9235

 eigenvalue-minimisations  : 21632
 total energy-change (2. order) : 0.1369827E+04  (-0.5769516E+04)
 number of electron     180.0000000 magnetization     -12.0000000
 augmentation part      180.0000000 magnetization     -12.0000000

 Free energy of the ion-electron system (eV)
  ---------------------------------------------------
  alpha Z        PSCENC =       532.25742704
  Ewald energy   TEWEN  =     -8601.05107233
  -Hartree energ DENC   =     -1903.73857242
  -exchange      EXHF   =         0.00000000
  -V(xc)+E(xc)   XCENC  =      -664.60701015
  PAW double counting   =      8494.55058411    -7650.81563588
  entropy T*S    EENTRO =        -0.00033897
  eigenvalues    EBANDS =      2698.11567622
  atomic energy  EATOM  =      8465.11600846
  ---------------------------------------------------
  free energy    TOTEN  =      1369.82706607 eV

  energy without entropy =     1369.82740505  energy(sigma->0) =     1369.82717907


--------------------------------------------------------------------------------------------------------




--------------------------------------- Iteration      1(   2)  ---------------------------------------


    TRIAL :  cpu time   17.1159: real time   17.7100
    CORREC:  cpu time    0.0076: real time    0.0078
    --------------------------------------------
      LOOP:  cpu time   17.1245: real time   17.7209

 eigenvalue-minimisations  : 21632
 total energy-change (2. order) :-0.1405385E+04  (-0.1385747E+04)
 number of electron     180.0000000 magnetization     -12.0000000
 augmentation part      180.0000000 magnetization     -12.0000000

 Free energy of the ion-electron system (eV)
  ---------------------------------------------------
  alpha Z        PSCENC =       532.25742704
  Ewald energy   TEWEN  =     -8601.05107233
  -Hartree energ DENC   =     -1903.73857242
  -exchange      EXHF   =         0.00000000
  -V(xc)+E(xc)   XCENC  =      -664.60701015
  PAW double counting   =      8494.55058411    -7650.81563588
  entropy T*S    EENTRO =         0.00564198
  eigenvalues    EBANDS =      1292.72428562
  atomic energy  EATOM  =      8465.11600846
  ---------------------------------------------------
  free energy    TOTEN  =       -35.55834357 eV

  energy without entropy =      -35.56398555  energy(sigma->0) =      -35.56022423


--------------------------------------------------------------------------------------------------------




--------------------------------------- Iteration      1(   3)  ---------------------------------------


    TRIAL :  cpu time   23.9932: real time   24.1312
    CORREC:  cpu time    0.0090: real time    0.0099
    --------------------------------------------
      LOOP:  cpu time   24.0034: real time   24.1453

 eigenvalue-minimisations  : 33832
 total energy-change (2. order) :-0.1971131E+03  (-0.1835345E+03)
 number of electron     180.0000000 magnetization     -12.0000000
 augmentation part      180.0000000 magnetization     -12.0000000

 Free energy of the ion-electron system (eV)
  ---------------------------------------------------
  alpha Z        PSCENC =       532.25742704
  Ewald energy   TEWEN  =     -8601.05107233
  -Hartree energ DENC   =     -1903.73857242
  -exchange      EXHF   =         0.00000000
  -V(xc)+E(xc)   XCENC  =      -664.60701015
  PAW double counting   =      8494.55058411    -7650.81563588
  entropy T*S    EENTRO =         0.00125668
  eigenvalues    EBANDS =      1095.61553775
  atomic energy  EATOM  =      8465.11600846
  ---------------------------------------------------
  free energy    TOTEN  =      -232.67147674 eV

  energy without entropy =     -232.67273342  energy(sigma->0) =     -232.67189563


--------------------------------------------------------------------------------------------------------




--------------------------------------- Iteration      1(   4)  ---------------------------------------


    TRIAL :  cpu time   26.0959: real time   26.3686
    CORREC:  cpu time    0.0093: real time    0.0095
    --------------------------------------------
      LOOP:  cpu time   26.1064: real time   26.3817

 eigenvalue-minimisations  : 35800
 total energy-change (2. order) :-0.3204338E+02  (-0.2944577E+02)
 number of electron     180.0000000 magnetization     -12.0000000
 augmentation part      180.0000000 magnetization     -12.0000000

 Free energy of the ion-electron system (eV)
  ---------------------------------------------------
  alpha Z        PSCENC =       532.25742704
  Ewald energy   TEWEN  =     -8601.05107233
  -Hartree energ DENC   =     -1903.73857242
  -exchange      EXHF   =         0.00000000
  -V(xc)+E(xc)   XCENC  =      -664.60701015
  PAW double counting   =      8494.55058411    -7650.81563588
  entropy T*S    EENTRO =         0.01037743
  eigenvalues    EBANDS =      1063.56303702
  atomic energy  EATOM  =      8465.11600846
  ---------------------------------------------------
  free energy    TOTEN  =      -264.71485672 eV

  energy without entropy =     -264.72523415  energy(sigma->0) =     -264.71831587


--------------------------------------------------------------------------------------------------------




--------------------------------------- Iteration      1(   5)  ---------------------------------------


    TRIAL :  cpu time   26.1722: real time   26.3660
    CORREC:  cpu time    0.0095: real time    0.0104
    --------------------------------------------
      LOOP:  cpu time   26.1842: real time   26.3804

 eigenvalue-minimisations  : 36880
 total energy-change (2. order) :-0.4221863E+01  (-0.4005628E+01)
 number of electron     180.0000000 magnetization     -12.0000000
 augmentation part      180.0000000 magnetization     -12.0000000

 Free energy of the ion-electron system (eV)
  ---------------------------------------------------
  alpha Z        PSCENC =       532.25742704
  Ewald energy   TEWEN  =     -8601.05107233
  -Hartree energ DENC   =     -1903.73857242
  -exchange      EXHF   =         0.00000000
  -V(xc)+E(xc)   XCENC  =      -664.60701015
  PAW double counting   =      8494.55058411    -7650.81563588
  entropy T*S    EENTRO =         0.02387621
  eigenvalues    EBANDS =      1059.32767482
  atomic energy  EATOM  =      8465.11600846
  ---------------------------------------------------
  free energy    TOTEN  =      -268.93672015 eV

  energy without entropy =     -268.96059635  energy(sigma->0) =     -268.94467888


--------------------------------------------------------------------------------------------------------




--------------------------------------- Iteration      1(   6)  ---------------------------------------


    TRIAL :  cpu time   25.5311: real time   25.7474
    CORREC:  cpu time    0.0097: real time    0.0098
    --------------------------------------------
      LOOP:  cpu time   25.5424: real time   25.7608

 eigenvalue-minimisations  : 36560
 total energy-change (2. order) :-0.5518458E+00  (-0.5278135E+00)
 number of electron     180.0000000 magnetization     -12.0000000
 augmentation part      180.0000000 magnetization     -12.0000000

 Free energy of the ion-electron system (eV)
  ---------------------------------------------------
  alpha Z        PSCENC =       532.25742704
  Ewald energy   TEWEN  =     -8601.05107233
  -Hartree energ DENC   =     -1903.73857242
  -exchange      EXHF   =         0.00000000
  -V(xc)+E(xc)   XCENC  =      -664.60701015
  PAW double counting   =      8494.55058411    -7650.81563588
  entropy T*S    EENTRO =         0.02963254
  eigenvalues    EBANDS =      1058.77007267
  atomic energy  EATOM  =      8465.11600846
  ---------------------------------------------------
  free energy    TOTEN  =      -269.48856596 eV

  energy without entropy =     -269.51819850  energy(sigma->0) =     -269.49844347


--------------------------------------------------------------------------------------------------------




--------------------------------------- Iteration      1(   7)  ---------------------------------------


    TRIAL :  cpu time   26.8531: real time   27.1235
    CORREC:  cpu time    0.0095: real time    0.0105
    --------------------------------------------
      LOOP:  cpu time   26.8648: real time   27.1384

 eigenvalue-minimisations  : 37320
 total energy-change (2. order) :-0.1050398E+00  (-0.1007643E+00)
 number of electron     180.0000000 magnetization     -12.0000000
 augmentation part      180.0000000 magnetization     -12.0000000

 Free energy of the ion-electron system (eV)
  ---------------------------------------------------
  alpha Z        PSCENC =       532.25742704
  Ewald energy   TEWEN  =     -8601.05107233
  -Hartree energ DENC   =     -1903.73857242
  -exchange      EXHF   =         0.00000000
  -V(xc)+E(xc)   XCENC  =      -664.60701015
  PAW double counting   =      8494.55058411    -7650.81563588
  entropy T*S    EENTRO =         0.03188491
  eigenvalues    EBANDS =      1058.66278051
  atomic energy  EATOM  =      8465.11600846
  ---------------------------------------------------
  free energy    TOTEN  =      -269.59360575 eV

  energy without entropy =     -269.62549066  energy(sigma->0) =     -269.60423405


--------------------------------------------------------------------------------------------------------




--------------------------------------- Iteration      1(   8)  ---------------------------------------


    TRIAL :  cpu time   25.0150: real time   25.2395
    CORREC:  cpu time    0.0098: real time    0.0099
    CHARGE:  cpu time    1.0171: real time    1.0407
    --------------------------------------------
      LOOP:  cpu time   26.0436: real time   26.2946

 eigenvalue-minimisations  : 35888
 total energy-change (2. order) :-0.2447402E-01  (-0.2351294E-01)
 number of electron     179.9999997 magnetization      -8.7327084
 augmentation part       42.5936820 magnetization      -5.1133888

 Free energy of the ion-electron system (eV)
  ---------------------------------------------------
  alpha Z        PSCENC =       532.25742704
  Ewald energy   TEWEN  =     -8601.05107233
  -Hartree energ DENC   =     -1903.73857242
  -exchange      EXHF   =         0.00000000
  -V(xc)+E(xc)   XCENC  =      -664.60701015
  PAW double counting   =      8494.55058411    -7650.81563588
  entropy T*S    EENTRO =         0.03298736
  eigenvalues    EBANDS =      1058.63720405
  atomic energy  EATOM  =      8465.11600846
  ---------------------------------------------------
  free energy    TOTEN  =      -269.61807977 eV

  energy without entropy =     -269.65106713  energy(sigma->0) =     -269.62907556


--------------------------------------------------------------------------------------------------------




--------------------------------------- Iteration      1(   9)  ---------------------------------------


    POTLOK:  cpu time    0.2515: real time    0.2515
    SETDIJ:  cpu time    0.3441: real time    0.3441
    TRIAL :  cpu time    8.2599: real time    8.3427
    CORREC:  cpu time    3.9961: real time    4.0731
    CHARGE:  cpu time    1.0469: real time    1.0475
    --------------------------------------------
      LOOP:  cpu time   13.8998: real time   14.0612

 eigenvalue-minimisations  :     0
 total energy-change (2. order) : 0.2079661E+03  (-0.1459988E+03)
 number of electron     179.9999997 magnetization      -8.7424932
 augmentation part       54.1793818 magnetization      -5.6841249

 Free energy of the ion-electron system (eV)
  ---------------------------------------------------
  alpha Z        PSCENC =       532.25742704
  Ewald energy   TEWEN  =     -8601.05107233
  -Hartree energ DENC   =      -843.72821209
  -exchange      EXHF   =         0.00000000
  -V(xc)+E(xc)   XCENC  =      -694.62546641
  PAW double counting   =     12753.05151198   -11806.28042642
  entropy T*S    EENTRO =        -0.00270793
  eigenvalues    EBANDS =       133.57527577
  atomic energy  EATOM  =      8465.11600846
  ---------------------------------------------------
  free energy    TOTEN  =       -61.65196665 eV

  energy without entropy =      -61.64925872  energy(sigma->0) =      -61.65106401


--------------------------------------------------------------------------------------------------------




--------------------------------------- Iteration      1(  10)  ---------------------------------------


    POTLOK:  cpu time    0.2466: real time    0.2527
    SETDIJ:  cpu time    0.3274: real time    0.3620
    TRIAL :  cpu time    8.9562: real time    9.0225
    CORREC:  cpu time    3.2072: real time    3.2771
    CHARGE:  cpu time    1.0258: real time    1.0262
    --------------------------------------------
      LOOP:  cpu time   13.7676: real time   13.9467

 eigenvalue-minimisations  :     0
 total energy-change (2. order) :-0.1453880E+03  (-0.1047076E+02)
 number of electron     179.9999996 magnetization      -8.8282529
 augmentation part       57.6289743 magnetization      -5.9728711

 Free energy of the ion-electron system (eV)
  ---------------------------------------------------
  alpha Z        PSCENC =       532.25742704
  Ewald energy   TEWEN  =     -8601.05107233
  -Hartree energ DENC   =     -1362.13355043
  -exchange      EXHF   =         0.00000000
  -V(xc)+E(xc)   XCENC  =      -677.03102270
  PAW double counting   =     13577.99162154   -12744.50012788
  entropy T*S    EENTRO =        -0.00746799
  eigenvalues    EBANDS =       602.31342087
  atomic energy  EATOM  =      8465.11600846
  ---------------------------------------------------
  free energy    TOTEN  =      -207.04000338 eV

  energy without entropy =     -207.03253538  energy(sigma->0) =     -207.03751405


--------------------------------------------------------------------------------------------------------




--------------------------------------- Iteration      1(  11)  ---------------------------------------


    POTLOK:  cpu time    0.2467: real time    0.2469
    SETDIJ:  cpu time    0.3040: real time    0.3320
    TRIAL :  cpu time    8.3819: real time    8.4046
    CORREC:  cpu time    3.2163: real time    3.2196
    CHARGE:  cpu time    1.0350: real time    1.0426
    --------------------------------------------
      LOOP:  cpu time   13.1874: real time   13.2505

 eigenvalue-minimisations  :     0
 total energy-change (2. order) :-0.1041776E+02  (-0.7985055E+01)
 number of electron     179.9999996 magnetization      -8.5349421
 augmentation part       59.0432152 magnetization      -5.9330650

 Free energy of the ion-electron system (eV)
  ---------------------------------------------------
  alpha Z        PSCENC =       532.25742704
  Ewald energy   TEWEN  =     -8601.05107233
  -Hartree energ DENC   =     -1556.45767226
  -exchange      EXHF   =         0.00000000
  -V(xc)+E(xc)   XCENC  =      -670.06378177
  PAW double counting   =     14396.74355109   -13599.10991767
  entropy T*S    EENTRO =        -0.01418312
  eigenvalues    EBANDS =       815.11515856
  atomic energy  EATOM  =      8465.11600846
  ---------------------------------------------------
  free energy    TOTEN  =      -217.45776687 eV

  energy without entropy =     -217.44358375  energy(sigma->0) =     -217.45303916


--------------------------------------------------------------------------------------------------------




--------------------------------------- Iteration      1(  12)  ---------------------------------------


    POTLOK:  cpu time    0.2489: real time    0.2490
    SETDIJ:  cpu time    0.3235: real time    0.3237
    TRIAL :  cpu time    8.2157: real time    8.3351
    CORREC:  cpu time    3.1538: real time    3.1778
    CHARGE:  cpu time    1.0266: real time    1.0270
    --------------------------------------------
      LOOP:  cpu time   12.9804: real time   13.1260

 eigenvalue-minimisations  :     0
 total energy-change (2. order) :-0.7987204E+01  (-0.7254375E+01)
 number of electron     179.9999996 magnetization      -8.6705299
 augmentation part       58.4235031 magnetization      -6.0258935

 Free energy of the ion-electron system (eV)
  ---------------------------------------------------
  alpha Z        PSCENC =       532.25742704
  Ewald energy   TEWEN  =     -8601.05107233
  -Hartree energ DENC   =     -1685.26020154
  -exchange      EXHF   =         0.00000000
  -V(xc)+E(xc)   XCENC  =      -665.86881868
  PAW double counting   =     14471.25415212   -13676.95201313
  entropy T*S    EENTRO =        -0.01237360
  eigenvalues    EBANDS =       935.07373050
  atomic energy  EATOM  =      8465.11600846
  ---------------------------------------------------
  free energy    TOTEN  =      -225.44497068 eV

  energy without entropy =     -225.43259709  energy(sigma->0) =     -225.44084615


--------------------------------------------------------------------------------------------------------




--------------------------------------- Iteration      1(  13)  ---------------------------------------


    POTLOK:  cpu time    0.2473: real time    0.2473
    SETDIJ:  cpu time    0.4034: real time    0.4038
    TRIAL :  cpu time    8.2653: real time    8.3664
    CORREC:  cpu time    3.1516: real time    3.1601
    CHARGE:  cpu time    1.0233: real time    1.0685
    --------------------------------------------
      LOOP:  cpu time   13.0963: real time   13.2531

 eigenvalue-minimisations  :     0
 total energy-change (2. order) :-0.7023092E+01  (-0.1189599E+01)
 number of electron     179.9999997 magnetization      -8.4808383
 augmentation part       57.6185765 magnetization      -5.8869913

 Free energy of the ion-electron system (eV)
  ---------------------------------------------------
  alpha Z        PSCENC =       532.25742704
  Ewald energy   TEWEN  =     -8601.05107233
  -Hartree energ DENC   =     -1707.10851426
  -exchange      EXHF   =         0.00000000
  -V(xc)+E(xc)   XCENC  =      -665.53650888
  PAW double counting   =     14266.85836116   -13450.05774982
  entropy T*S    EENTRO =        -0.00904262
  eigenvalues    EBANDS =       927.06635960
  atomic energy  EATOM  =      8465.11600846
  ---------------------------------------------------
  free energy    TOTEN  =      -232.46806263 eV

  energy without entropy =     -232.45902001  energy(sigma->0) =     -232.46504843


--------------------------------------------------------------------------------------------------------




--------------------------------------- Iteration      1(  14)  ---------------------------------------


    POTLOK:  cpu time    0.2471: real time    0.2472
    SETDIJ:  cpu time    0.3214: real time    0.3215
    TRIAL :  cpu time    9.3189: real time    9.3941
    CORREC:  cpu time    3.9840: real time    4.0272
    CHARGE:  cpu time    1.0406: real time    1.0410
    --------------------------------------------
      LOOP:  cpu time   14.9300: real time   15.0503

 eigenvalue-minimisations  :     0
 total energy-change (2. order) :-0.1157518E+01  (-0.6926608E+00)
 number of electron     179.9999997 magnetization      -8.4792548
 augmentation part       57.1535000 magnetization      -5.8088262

 Free energy of the ion-electron system (eV)
  ---------------------------------------------------
  alpha Z        PSCENC =       532.25742704
  Ewald energy   TEWEN  =     -8601.05107233
  -Hartree energ DENC   =     -1669.88445449
  -exchange      EXHF   =         0.00000000
  -V(xc)+E(xc)   XCENC  =      -667.01183373
  PAW double counting   =     14027.22089999   -13197.82185078
  entropy T*S    EENTRO =        -0.00767834
  eigenvalues    EBANDS =       877.55833824
  atomic energy  EATOM  =      8465.11600846
  ---------------------------------------------------
  free energy    TOTEN  =      -233.62558023 eV

  energy without entropy =     -233.61790188  energy(sigma->0) =     -233.62302078


--------------------------------------------------------------------------------------------------------




--------------------------------------- Iteration      1(  15)  ---------------------------------------


    POTLOK:  cpu time    0.2473: real time    0.2473
    SETDIJ:  cpu time    0.3202: real time    0.3215
    TRIAL :  cpu time    8.2967: real time    8.4033
    CORREC:  cpu time    3.1892: real time    3.1919
    CHARGE:  cpu time    1.0262: real time    1.0293
    --------------------------------------------
      LOOP:  cpu time   13.0882: real time   13.2035

 eigenvalue-minimisations  :     0
 total energy-change (2. order) :-0.6877556E+00  (-0.8391339E+00)
 number of electron     179.9999996 magnetization      -8.2573313
 augmentation part       57.5767920 magnetization      -5.6281428

 Free energy of the ion-electron system (eV)
  ---------------------------------------------------
  alpha Z        PSCENC =       532.25742704
  Ewald energy   TEWEN  =     -8601.05107233
  -Hartree energ DENC   =     -1641.25658153
  -exchange      EXHF   =         0.00000000
  -V(xc)+E(xc)   XCENC  =      -668.09056737
  PAW double counting   =     13644.92804857   -12807.63439198
  entropy T*S    EENTRO =        -0.00248525
  eigenvalues    EBANDS =       841.42547168
  atomic energy  EATOM  =      8465.11600846
  ---------------------------------------------------
  free energy    TOTEN  =      -234.31333581 eV

  energy without entropy =     -234.31085055  energy(sigma->0) =     -234.31250739


--------------------------------------------------------------------------------------------------------




--------------------------------------- Iteration      1(  16)  ---------------------------------------


    POTLOK:  cpu time    0.2474: real time    0.2475
    SETDIJ:  cpu time    0.3214: real time    0.3215
    TRIAL :  cpu time    8.3217: real time    8.3500
    CORREC:  cpu time    3.0528: real time    3.1802
    CHARGE:  cpu time    0.9902: real time    1.0567
    --------------------------------------------
      LOOP:  cpu time   12.9479: real time   13.1718

 eigenvalue-minimisations  :     0
 total energy-change (2. order) :-0.8382444E+00  (-0.2118294E+00)
 number of electron     179.9999996 magnetization      -8.2680444
 augmentation part       57.9218571 magnetization      -5.6466443

 Free energy of the ion-electron system (eV)
  ---------------------------------------------------
  alpha Z        PSCENC =       532.25742704
  Ewald energy   TEWEN  =     -8601.05107233
  -Hartree energ DENC   =     -1651.61774266
  -exchange      EXHF   =         0.00000000
  -V(xc)+E(xc)   XCENC  =      -667.75282002
  PAW double counting   =     13137.82286504   -12301.87599288
  entropy T*S    EENTRO =        -0.00257355
  eigenvalues    EBANDS =       851.95223239
  atomic energy  EATOM  =      8465.11600846
  ---------------------------------------------------
  free energy    TOTEN  =      -235.15158022 eV

  energy without entropy =     -235.14900666  energy(sigma->0) =     -235.15072237


--------------------------------------------------------------------------------------------------------




--------------------------------------- Iteration      1(  17)  ---------------------------------------


    POTLOK:  cpu time    0.2474: real time    0.2474
    SETDIJ:  cpu time    0.3219: real time    0.3219
    TRIAL :  cpu time    8.3271: real time    8.3763
    CORREC:  cpu time    3.1396: real time    3.1768
    CHARGE:  cpu time    1.0126: real time    1.0284
    --------------------------------------------
      LOOP:  cpu time   13.0499: real time   13.1535

 eigenvalue-minimisations  :     0
 total energy-change (2. order) :-0.2123703E+00  (-0.1757221E+00)
 number of electron     179.9999996 magnetization      -8.1498821
 augmentation part       58.2249913 magnetization      -5.6224568

 Free energy of the ion-electron system (eV)
  ---------------------------------------------------
  alpha Z        PSCENC =       532.25742704
  Ewald energy   TEWEN  =     -8601.05107233
  -Hartree energ DENC   =     -1665.93203697
  -exchange      EXHF   =         0.00000000
  -V(xc)+E(xc)   XCENC  =      -667.18042286
  PAW double counting   =     13043.22575923   -12210.56025358
  entropy T*S    EENTRO =         0.00130846
  eigenvalues    EBANDS =       868.76321410
  atomic energy  EATOM  =      8465.11600846
  ---------------------------------------------------
  free energy    TOTEN  =      -235.36395047 eV

  energy without entropy =     -235.36525893  energy(sigma->0) =     -235.36438663


--------------------------------------------------------------------------------------------------------




--------------------------------------- Iteration      1(  18)  ---------------------------------------


    POTLOK:  cpu time    0.2475: real time    0.2475
    SETDIJ:  cpu time    0.3220: real time    0.3221
    TRIAL :  cpu time    9.1760: real time    9.2882
    CORREC:  cpu time    3.2220: real time    3.2399
    CHARGE:  cpu time    1.0288: real time    1.0288
    --------------------------------------------
      LOOP:  cpu time   14.0455: real time   14.1776

 eigenvalue-minimisations  :     0
 total energy-change (2. order) :-0.1757360E+00  (-0.2147518E+00)
 number of electron     179.9999996 magnetization      -8.0939864
 augmentation part       58.1949339 magnetization      -5.6263514

 Free energy of the ion-electron system (eV)
  ---------------------------------------------------
  alpha Z        PSCENC =       532.25742704
  Ewald energy   TEWEN  =     -8601.05107233
  -Hartree energ DENC   =     -1678.59743000
  -exchange      EXHF   =         0.00000000
  -V(xc)+E(xc)   XCENC  =      -666.59743485
  PAW double counting   =     12991.01774271   -12161.62951219
  entropy T*S    EENTRO =         0.00173344
  eigenvalues    EBANDS =       883.94327624
  atomic energy  EATOM  =      8465.11600846
  ---------------------------------------------------
  free energy    TOTEN  =      -235.53968647 eV

  energy without entropy =     -235.54141991  energy(sigma->0) =     -235.54026428


--------------------------------------------------------------------------------------------------------




--------------------------------------- Iteration      1(  19)  ---------------------------------------


    POTLOK:  cpu time    0.2475: real time    0.2475
    SETDIJ:  cpu time    0.3494: real time    0.3495
    TRIAL :  cpu time    8.9758: real time    9.0541
    CORREC:  cpu time    3.1481: real time    3.2275
    CHARGE:  cpu time    1.0268: real time    1.0285
    --------------------------------------------
      LOOP:  cpu time   13.7669: real time   13.9285

 eigenvalue-minimisations  :     0
 total energy-change (2. order) :-0.2145292E+00  (-0.8418209E-01)
 number of electron     179.9999996 magnetization      -8.0194917
 augmentation part       57.9657022 magnetization      -5.5939892

 Free energy of the ion-electron system (eV)
  ---------------------------------------------------
  alpha Z        PSCENC =       532.25742704
  Ewald energy   TEWEN  =     -8601.05107233
  -Hartree energ DENC   =     -1673.51664953
  -exchange      EXHF   =         0.00000000
  -V(xc)+E(xc)   XCENC  =      -666.54730969
  PAW double counting   =     12938.25302904   -12108.79564110
  entropy T*S    EENTRO =         0.00400277
  eigenvalues    EBANDS =       878.52825897
  atomic energy  EATOM  =      8465.11600846
  ---------------------------------------------------
  free energy    TOTEN  =      -235.75421569 eV

  energy without entropy =     -235.75821846  energy(sigma->0) =     -235.75554995


--------------------------------------------------------------------------------------------------------




--------------------------------------- Iteration      1(  20)  ---------------------------------------


    POTLOK:  cpu time    0.2479: real time    0.2479
    SETDIJ:  cpu time    0.3315: real time    0.3347
    TRIAL :  cpu time    8.3043: real time    8.3294
    CORREC:  cpu time    3.1873: real time    3.1970
    CHARGE:  cpu time    1.0555: real time    1.0620
    --------------------------------------------
      LOOP:  cpu time   13.1310: real time   13.1767

 eigenvalue-minimisations  :     0
 total energy-change (2. order) :-0.8385550E-01  (-0.5575005E-01)
 number of electron     179.9999996 magnetization      -8.0085580
 augmentation part       57.8086029 magnetization      -5.5890153

 Free energy of the ion-electron system (eV)
  ---------------------------------------------------
  alpha Z        PSCENC =       532.25742704
  Ewald energy   TEWEN  =     -8601.05107233
  -Hartree energ DENC   =     -1661.21805265
  -exchange      EXHF   =         0.00000000
  -V(xc)+E(xc)   XCENC  =      -666.89487099
  PAW double counting   =     12915.84943640   -12084.04414299
  entropy T*S    EENTRO =         0.00327040
  eigenvalues    EBANDS =       864.14319310
  atomic energy  EATOM  =      8465.11600846
  ---------------------------------------------------
  free energy    TOTEN  =      -235.83807119 eV

  energy without entropy =     -235.84134158  energy(sigma->0) =     -235.83916132


--------------------------------------------------------------------------------------------------------




--------------------------------------- Iteration      1(  21)  ---------------------------------------


    POTLOK:  cpu time    0.2474: real time    0.2474
    SETDIJ:  cpu time    0.3208: real time    0.3210
    TRIAL :  cpu time    8.2355: real time    8.3672
    CORREC:  cpu time    3.2320: real time    3.2361
    CHARGE:  cpu time    1.0734: real time    1.0735
    --------------------------------------------
      LOOP:  cpu time   13.1153: real time   13.2514

 eigenvalue-minimisations  :     0
 total energy-change (2. order) :-0.5576464E-01  (-0.9483420E-01)
 number of electron     179.9999996 magnetization      -7.8855970
 augmentation part       57.7574320 magnetization      -5.5353618

 Free energy of the ion-electron system (eV)
  ---------------------------------------------------
  alpha Z        PSCENC =       532.25742704
  Ewald energy   TEWEN  =     -8601.05107233
  -Hartree energ DENC   =     -1654.32697429
  -exchange      EXHF   =         0.00000000
  -V(xc)+E(xc)   XCENC  =      -667.07942626
  PAW double counting   =     12910.86028179   -12077.57001480
  entropy T*S    EENTRO =         0.00659305
  eigenvalues    EBANDS =       855.89666416
  atomic energy  EATOM  =      8465.11600846
  ---------------------------------------------------
  free energy    TOTEN  =      -235.89383583 eV

  energy without entropy =     -235.90042888  energy(sigma->0) =     -235.89603352


--------------------------------------------------------------------------------------------------------




--------------------------------------- Iteration      1(  22)  ---------------------------------------


    POTLOK:  cpu time    0.2486: real time    0.2488
    SETDIJ:  cpu time    0.3423: real time    0.3428
    TRIAL :  cpu time    8.2910: real time    8.3842
    CORREC:  cpu time    3.1262: real time    3.1928
    CHARGE:  cpu time    0.9829: real time    1.2803
    --------------------------------------------
      LOOP:  cpu time   12.9926: real time   13.4530

 eigenvalue-minimisations  :     0
 total energy-change (2. order) :-0.9470305E-01  (-0.5013597E-01)
 number of electron     179.9999996 magnetization      -7.8663431
 augmentation part       57.8831263 magnetization      -5.5363572

 Free energy of the ion-electron system (eV)
  ---------------------------------------------------
  alpha Z        PSCENC =       532.25742704
  Ewald energy   TEWEN  =     -8601.05107233
  -Hartree energ DENC   =     -1655.39415953
  -exchange      EXHF   =         0.00000000
  -V(xc)+E(xc)   XCENC  =      -666.94716453
  PAW double counting   =     12934.21005210   -12100.82683630
  entropy T*S    EENTRO =         0.00657499
  eigenvalues    EBANDS =       856.64061316
  atomic energy  EATOM  =      8465.11600846
  ---------------------------------------------------
  free energy    TOTEN  =      -235.98853888 eV

  energy without entropy =     -235.99511387  energy(sigma->0) =     -235.99073055


--------------------------------------------------------------------------------------------------------




--------------------------------------- Iteration      1(  23)  ---------------------------------------


    POTLOK:  cpu time    0.2472: real time    0.2481
    SETDIJ:  cpu time    0.8341: real time    0.9649
    TRIAL :  cpu time    9.0598: real time    9.1071
    CORREC:  cpu time    3.1540: real time    3.1726
    CHARGE:  cpu time    1.0284: real time    1.0284
    --------------------------------------------
[...]
  8.438  14.380   0.001  -0.000   0.001   0.002  -0.000   0.002
 14.380  24.506   0.001  -0.000   0.001   0.004  -0.001   0.004
  0.001   0.001   1.996  -0.000  -0.000   5.748  -0.000  -0.000
 -0.000  -0.000  -0.000   1.995   0.000  -0.000   5.747   0.000
  0.001   0.001  -0.000   0.000   1.996  -0.000   0.000   5.748
  0.002   0.004   5.748  -0.000  -0.000  16.472  -0.000  -0.001
 -0.000  -0.001  -0.000   5.747   0.000  -0.000  16.468   0.001
  0.002   0.004  -0.000   0.000   5.748  -0.001   0.001  16.472
 total augmentation occupancy for first ion, spin component:           1
  4.370  -1.246   0.005   0.000   0.006   0.000   0.000   0.000
 -1.246   0.375  -0.006   0.001  -0.007   0.000  -0.000   0.000
  0.005  -0.006   1.422   0.002   0.008  -0.101  -0.000  -0.000
  0.000   0.001   0.002   1.492  -0.006  -0.000  -0.101   0.000
  0.006  -0.007   0.008  -0.006   1.420  -0.000   0.000  -0.101
  0.000   0.000  -0.101  -0.000  -0.000   0.008  -0.000  -0.000
  0.000  -0.000  -0.000  -0.101   0.000  -0.000   0.007   0.000
  0.000   0.000  -0.000   0.000  -0.101  -0.000   0.000   0.008
 total augmentation occupancy for first ion, spin component:           2
  0.042  -0.014  -0.015   0.032  -0.011   0.000  -0.001   0.001
 -0.014   0.005  -0.002   0.008  -0.000   0.000  -0.001   0.000
 -0.015  -0.002   0.016  -0.034   0.009  -0.001   0.001  -0.000
  0.032   0.008  -0.034   0.028  -0.033   0.001  -0.001   0.001
 -0.011  -0.000   0.009  -0.033   0.017  -0.000   0.001  -0.001
  0.000   0.000  -0.001   0.001  -0.000   0.000   0.000  -0.000
 -0.001  -0.001   0.001  -0.001   0.001   0.000   0.000   0.000
  0.001   0.000  -0.000   0.001  -0.001  -0.000   0.000   0.000


------------------------ aborting loop because EDIFF is reached ----------------------------------------


 


 total charge     
 
# of ion       s       p       d       tot
------------------------------------------
    1        0.406   0.428   0.000   0.834
    2        0.406   0.429   0.000   0.835
    3        0.405   0.429   0.000   0.834
    4        0.405   0.429   0.000   0.834
    5        0.404   0.427   0.000   0.831
    6        0.404   0.427   0.000   0.831
    7        0.405   0.429   0.000   0.834
    8        0.406   0.429   0.000   0.835
    9        0.405   0.427   0.000   0.832
   10        0.405   0.426   0.000   0.832
   11        0.405   0.425   0.000   0.830
   12        0.405   0.426   0.000   0.831
   13        0.405   0.425   0.000   0.831
   14        0.406   0.425   0.000   0.831
   15        0.405   0.429   0.000   0.834
   16        0.404   0.429   0.000   0.833
   17        0.405   0.426   0.000   0.831
   18        0.405   0.427   0.000   0.832
   19        0.333   0.353   5.134   5.821
   20        0.331   0.356   5.136   5.823
   21        0.336   0.352   5.131   5.819
   22        0.336   0.355   5.126   5.817
   23        0.333   0.359   5.119   5.811
   24        0.331   0.358   5.131   5.819
   25        0.338   0.355   5.118   5.811
   26        0.337   0.355   5.121   5.813
   27        0.335   0.349   5.139   5.824
   28        0.336   0.356   5.127   5.819
   29        0.332   0.356   5.135   5.822
   30        0.333   0.358   5.121   5.811
   31        0.330   0.356   5.140   5.826
   32        0.334   0.359   5.117   5.809
   33        0.332   0.358   5.127   5.817
   34        0.334   0.354   5.132   5.820
   35        0.331   0.344   5.157   5.832
   36        0.327   0.350   5.169   5.846
--------------------------------------------------
tot         13.290  14.074  92.380 119.744
 


 magnetization (x)
 
# of ion       s       p       d       tot
------------------------------------------
    1        0.002   0.006   0.000   0.009
    2        0.003   0.007   0.000   0.010
    3        0.005   0.008   0.000   0.013
    4        0.005   0.008   0.000   0.014
    5        0.010   0.016   0.000   0.026
    6        0.010   0.016   0.000   0.025
    7       -0.002  -0.007   0.000  -0.010
    8       -0.002  -0.007   0.000  -0.009
    9        0.004   0.010   0.000   0.013
   10        0.004   0.009   0.000   0.013
   11        0.009   0.016   0.000   0.025
   12        0.009   0.016   0.000   0.025
   13       -0.001  -0.002   0.000  -0.003
   14       -0.001  -0.002   0.000  -0.003
   15        0.001   0.000   0.000   0.002
   16        0.001   0.000   0.000   0.001
   17        0.008   0.015   0.000   0.023
   18        0.007   0.014   0.000   0.022
   19        0.017   0.027   2.262   2.306
   20       -0.026  -0.031  -2.225  -2.282
   21       -0.022  -0.018  -2.406  -2.447
   22       -0.023  -0.015  -2.408  -2.446
   23       -0.015  -0.032  -2.364  -2.411
   24        0.029   0.032   2.242   2.303
   25        0.029   0.016   2.546   2.591
   26        0.028   0.020   2.551   2.599
   27       -0.025  -0.010  -2.404  -2.439
   28       -0.032  -0.025  -2.348  -2.405
   29       -0.016  -0.022  -2.204  -2.243
   30        0.021   0.022   2.402   2.445
   31       -0.025  -0.034  -2.087  -2.145
   32        0.018   0.029   2.423   2.470
   33       -0.005  -0.021  -2.242  -2.267
   34        0.032   0.025   2.335   2.392
   35       -0.016   0.009  -2.303  -2.309
   36       -0.030  -0.039  -1.169  -1.237
--------------------------------------------------
tot          0.011   0.056  -7.396  -7.330
 
    FORLOC:  cpu time    0.0287: real time    0.0287
    FORNL :  cpu time   12.8311: real time   12.9703
    STRESS:  cpu time   17.8884: real time   18.0870
    FORCOR:  cpu time    0.2703: real time    0.2703
    OFIELD:  cpu time    0.0016: real time    0.0016

  FORCE on cell =-STRESS in cart. coord.  units (eV):
  Direction    XX          YY          ZZ          XY          YZ          ZX
  --------------------------------------------------------------------------------------
  Alpha Z   532.25743   532.25743   532.25743
  Ewald   -2702.40749 -2702.40749 -3196.26924    -0.00000    -0.00000    -0.00000
  Hartree   721.73012   719.92637   224.99399     0.02340    -0.00000    -0.00000
  E(xc)    -760.23874  -759.84374  -760.13193     0.00687    -0.00000    -0.00000
  Local     246.74536   251.88097  1262.56595    -0.14144    -0.00000    -0.00000
  n-local  -110.75083  -109.69806  -121.98998    -0.51728    -0.08046    -0.19436
  augment   521.57856   519.95580   515.08668     0.16034     0.00001     0.00001
  Kinetic  1556.94873  1553.81989  1543.21361    -0.13411     0.57171     0.11183
  Fock        0.00000     0.00000     0.00000     0.00000     0.00000     0.00000
  -------------------------------------------------------------------------------------
  Total       5.86314     5.89117    -0.27350    -0.60222     0.00000     0.00000
  in kB      19.84851    19.94339    -0.92588    -2.03869     0.00000     0.00000
  external pressure =       12.96 kB  Pullay stress =        0.00 kB


 VOLUME and BASIS-vectors are now :
 -----------------------------------------------------------------------------
  energy-cutoff  :      404.80
  volume of cell :      473.27
      direct lattice vectors                 reciprocal lattice vectors
     8.250148166  0.000000000  0.000000000     0.121209944  0.000000000  0.000000000
     0.000000000  8.250148166  0.000000000     0.000000000  0.121209944  0.000000000
     0.000000000  0.000000000  6.953274261     0.000000000  0.000000000  0.143817137

  length of vectors
     8.250148166  8.250148166  6.953274261     0.121209944  0.121209944  0.143817137


 FORCES acting on ions:
    Electron-Ion                     Ewald-Force                    Non-Local-Force
 -----------------------------------------------------------------------------------------------
   -.350E+00 -.334E+00 0.532E-02   -.239E-08 -.239E-08 0.411E-08   0.637E-01 0.720E-01 -.711E-02
   -.350E+00 -.334E+00 -.532E-02   -.239E-08 -.239E-08 0.411E-08   0.637E-01 0.720E-01 0.711E-02
   -.160E+00 0.103E+00 -.487E-01   -.239E-08 -.802E-09 0.411E-08   0.896E-01 -.129E-01 0.316E-01
   -.160E+00 0.103E+00 0.487E-01   -.239E-08 -.802E-09 0.411E-08   0.896E-01 -.129E-01 -.316E-01
   -.135E+00 0.182E+00 0.488E-01   -.239E-08 0.631E-08 0.411E-08   0.744E-03 -.183E-01 0.126E-01
   -.135E+00 0.182E+00 -.488E-01   -.239E-08 0.631E-08 0.411E-08   0.744E-03 -.183E-01 -.126E-01
   0.801E-01 -.213E+00 -.219E-02   -.802E-09 -.239E-08 0.411E-08   -.463E-02 0.133E+00 -.346E-01
   0.801E-01 -.213E+00 0.219E-02   -.802E-09 -.239E-08 0.411E-08   -.463E-02 0.133E+00 0.346E-01
   -.125E-01 0.142E-01 -.423E-01   -.802E-09 -.802E-09 0.411E-08   -.251E-01 0.278E-01 0.207E-03
   -.125E-01 0.142E-01 0.423E-01   -.802E-09 -.802E-09 0.411E-08   -.251E-01 0.278E-01 -.207E-03
   -.150E-01 0.193E+00 -.387E-01   -.802E-09 0.631E-08 0.411E-08   -.293E-02 -.167E+00 0.658E-01
   -.150E-01 0.193E+00 0.387E-01   -.802E-09 0.631E-08 0.411E-08   -.293E-02 -.167E+00 -.658E-01
   0.256E+00 -.210E+00 -.732E-01   0.631E-08 -.239E-08 0.411E-08   -.531E-01 0.687E-01 -.208E-02
   0.256E+00 -.210E+00 0.732E-01   0.631E-08 -.239E-08 0.411E-08   -.531E-01 0.687E-01 0.208E-02
   0.107E+00 0.107E-01 -.306E-02   0.631E-08 -.802E-09 0.411E-08   -.919E-02 -.164E-01 0.137E-01
   0.107E+00 0.107E-01 0.306E-02   0.631E-08 -.802E-09 0.411E-08   -.919E-02 -.164E-01 -.137E-01
   0.169E+00 0.182E+00 0.533E-01   0.631E-08 0.631E-08 0.411E-08   -.642E-02 -.360E-01 0.233E-01
   0.169E+00 0.182E+00 -.533E-01   0.631E-08 0.631E-08 0.411E-08   -.642E-02 -.360E-01 -.233E-01
   0.586E+00 0.285E+00 -.313E-08   -.169E-07 -.169E-07 -.411E-08   -.275E+00 -.268E+00 0.000E+00
   0.202E+00 0.553E+00 -.381E-08   -.169E-07 -.169E-07 -.411E-08   -.138E+00 -.184E+00 0.000E+00
   -.776E-02 0.438E+00 -.459E-08   -.169E-07 0.802E-09 -.411E-08   -.389E-01 -.159E+00 0.000E+00
   0.491E+00 -.474E+00 -.747E-09   -.169E-07 0.802E-09 -.411E-08   -.249E+00 0.280E+00 0.000E+00
   -.265E-01 -.451E+00 -.540E-08   -.169E-07 0.130E-07 -.411E-08   0.126E-01 0.265E+00 0.000E+00
   0.343E+00 -.150E+00 -.193E-08   -.169E-07 0.130E-07 -.411E-08   -.310E+00 0.110E+00 0.000E+00
   -.501E+00 0.156E+00 -.268E-08   0.802E-09 -.169E-07 -.411E-08   0.185E+00 -.134E+00 0.000E+00
   0.607E+00 -.504E+00 -.277E-08   0.802E-09 -.169E-07 -.411E-08   -.325E+00 0.367E+00 0.000E+00
   -.263E-02 0.225E+00 -.430E-08   0.802E-09 0.802E-09 -.411E-08   0.768E-01 -.118E+00 0.000E+00
   -.558E+00 -.380E-01 0.278E-09   0.802E-09 0.802E-09 -.411E-08   0.140E+00 0.640E-02 0.000E+00
   0.701E-01 -.831E-01 -.508E-08   0.802E-09 0.130E-07 -.411E-08   -.262E-01 -.113E-01 0.000E+00
   -.321E+00 0.349E+00 -.107E-08   0.802E-09 0.130E-07 -.411E-08   0.327E+00 -.214E+00 0.000E+00
   -.240E+00 0.254E-01 -.129E-08   0.130E-07 -.169E-07 -.411E-08   0.178E+00 -.806E-01 0.000E+00
   -.569E+00 0.320E+00 -.365E-08   0.130E-07 -.169E-07 -.411E-08   0.381E+00 -.262E+00 0.000E+00
   -.125E-01 -.143E+00 -.297E-08   0.130E-07 0.802E-09 -.411E-08   0.244E-01 0.128E+00 0.000E+00
   0.280E-01 -.341E+00 -.524E-09   0.130E-07 0.802E-09 -.411E-08   -.595E-01 0.288E+00 0.000E+00
   -.708E-01 0.152E+00 -.342E-08   0.130E-07 0.130E-07 -.411E-08   0.700E-01 -.250E+00 0.000E+00
   0.930E-01 -.230E+00 -.144E-08   0.130E-07 0.130E-07 -.411E-08   -.609E-01 0.196E+00 0.000E+00
 -----------------------------------------------------------------------------------------------
   -.181E-01 -.596E-01 -.845E-07   -.197E-14 0.275E-13 0.265E-14   0.181E-01 0.598E-01 0.000E+00
 
 
 POSITION                                       TOTAL-FORCE (eV/Angst)
 -----------------------------------------------------------------------------------
      0.00000      0.00000      0.00000        -0.292816     -0.268264     -0.002329
      0.00000      0.00000      3.47664        -0.292816     -0.268264      0.002329
      0.00000      2.75005      0.00000        -0.078595      0.090742     -0.020582
      0.00000      2.75005      3.47664        -0.078595      0.090742      0.020582
      0.00000      5.50010      0.00000        -0.134190      0.166257      0.058614
      0.00000      5.50010      3.47664        -0.134190      0.166257     -0.058614
      2.75005      0.00000      0.00000         0.075163     -0.092512     -0.034104
      2.75005      0.00000      3.47664         0.075163     -0.092512      0.034104
      2.75005      2.75005      0.00000        -0.036046      0.038892     -0.042649
      2.75005      2.75005      3.47664        -0.036046      0.038892      0.042649
      2.75005      5.50010      0.00000        -0.018064      0.041208      0.020176
      2.75005      5.50010      3.47664        -0.018064      0.041208     -0.020176
      5.50010      0.00000      0.00000         0.208280     -0.147733     -0.076185
      5.50010      0.00000      3.47664         0.208280     -0.147733      0.076185
      5.50010      2.75005      0.00000         0.099889     -0.004803      0.009023
      5.50010      2.75005      3.47664         0.099889     -0.004803     -0.009023
      5.50010      5.50010      0.00000         0.163293      0.149397      0.072633
      5.50010      5.50010      3.47664         0.163293      0.149397     -0.072633
      1.37502      1.37502      1.73832         0.321272      0.022349      0.000000
      1.37502      1.37502      5.21496         0.069609      0.375304      0.000000
      1.37502      4.12507      1.73832        -0.042917      0.291745      0.000000
      1.37502      4.12507      5.21496         0.250698     -0.200968      0.000000
      1.37502      6.87512      1.73832        -0.015644     -0.190452      0.000000
      1.37502      6.87512      5.21496         0.043880     -0.042350      0.000000
      4.12507      1.37502      1.73832        -0.329365      0.027820      0.000000
      4.12507      1.37502      5.21496         0.297017     -0.149444      0.000000
      4.12507      4.12507      1.73832         0.068171      0.107607      0.000000
      4.12507      4.12507      5.21496        -0.428667     -0.030463      0.000000
      4.12507      6.87512      1.73832         0.045121     -0.087297      0.000000
      4.12507      6.87512      5.21496        -0.000660      0.137840      0.000000
      6.87512      1.37502      1.73832        -0.069550     -0.055280      0.000000
      6.87512      1.37502      5.21496        -0.197387      0.063806      0.000000
      6.87512      4.12507      1.73832         0.011695     -0.014427      0.000000
      6.87512      4.12507      5.21496        -0.032553     -0.065592      0.000000
      6.87512      6.87512      1.73832        -0.000303     -0.095276      0.000000
      6.87512      6.87512      5.21496         0.035757     -0.041290      0.000000
 -----------------------------------------------------------------------------------
    total drift:                               -0.000021      0.000204     -0.000000


--------------------------------------------------------------------------------------------------------



  FREE ENERGIE OF THE ION-ELECTRON SYSTEM (eV)
  ---------------------------------------------------
  free  energy   TOTEN  =      -236.25420292 eV

  energy  without entropy=     -236.29623922  energy(sigma->0) =     -236.26821502
 


--------------------------------------------------------------------------------------------------------


    POTLOK:  cpu time    0.6210: real time    0.6261


--------------------------------------------------------------------------------------------------------


     LOOP+:  cpu time 1468.8850: real time 1484.3504
    4ORBIT:  cpu time    0.0000: real time    0.0000
 


 total charge     
 
# of ion       s       p       d       tot
------------------------------------------
    1        0.406   0.428   0.000   0.834
    2        0.406   0.429   0.000   0.835
    3        0.405   0.429   0.000   0.834
    4        0.405   0.429   0.000   0.834
    5        0.404   0.427   0.000   0.831
    6        0.404   0.427   0.000   0.831
    7        0.405   0.429   0.000   0.834
    8        0.406   0.429   0.000   0.835
    9        0.405   0.427   0.000   0.832
   10        0.405   0.426   0.000   0.832
   11        0.405   0.425   0.000   0.830
   12        0.405   0.426   0.000   0.831
   13        0.405   0.425   0.000   0.831
   14        0.406   0.425   0.000   0.831
   15        0.405   0.429   0.000   0.834
   16        0.404   0.429   0.000   0.833
   17        0.405   0.426   0.000   0.831
   18        0.405   0.427   0.000   0.832
   19        0.333   0.353   5.134   5.821
   20        0.331   0.356   5.136   5.823
   21        0.336   0.352   5.131   5.819
   22        0.336   0.355   5.126   5.817
   23        0.333   0.359   5.119   5.811
   24        0.331   0.358   5.131   5.819
   25        0.338   0.355   5.118   5.811
   26        0.337   0.355   5.121   5.813
   27        0.335   0.349   5.139   5.824
   28        0.336   0.356   5.127   5.819
   29        0.332   0.356   5.135   5.822
   30        0.333   0.358   5.121   5.811
   31        0.330   0.356   5.140   5.826
   32        0.334   0.359   5.117   5.809
   33        0.332   0.358   5.127   5.817
   34        0.334   0.354   5.132   5.820
   35        0.331   0.344   5.157   5.832
   36        0.327   0.350   5.169   5.846
--------------------------------------------------
tot         13.290  14.074  92.380 119.744
 


 magnetization (x)
 
# of ion       s       p       d       tot
------------------------------------------
    1        0.002   0.006   0.000   0.009
    2        0.003   0.007   0.000   0.010
    3        0.005   0.008   0.000   0.013
    4        0.005   0.008   0.000   0.014
    5        0.010   0.016   0.000   0.026
    6        0.010   0.016   0.000   0.025
    7       -0.002  -0.007   0.000  -0.010
    8       -0.002  -0.007   0.000  -0.009
    9        0.004   0.010   0.000   0.013
   10        0.004   0.009   0.000   0.013
   11        0.009   0.016   0.000   0.025
   12        0.009   0.016   0.000   0.025
   13       -0.001  -0.002   0.000  -0.003
   14       -0.001  -0.002   0.000  -0.003
   15        0.001   0.000   0.000   0.002
   16        0.001   0.000   0.000   0.001
   17        0.008   0.015   0.000   0.023
   18        0.007   0.014   0.000   0.022
   19        0.017   0.027   2.262   2.306
   20       -0.026  -0.031  -2.225  -2.282
   21       -0.022  -0.018  -2.406  -2.447
   22       -0.023  -0.015  -2.408  -2.446
   23       -0.015  -0.032  -2.364  -2.411
   24        0.029   0.032   2.242   2.303
   25        0.029   0.016   2.546   2.591
   26        0.028   0.020   2.551   2.599
   27       -0.025  -0.010  -2.404  -2.439
   28       -0.032  -0.025  -2.348  -2.405
   29       -0.016  -0.022  -2.204  -2.243
   30        0.021   0.022   2.402   2.445
   31       -0.025  -0.034  -2.087  -2.145
   32        0.018   0.029   2.423   2.470
   33       -0.005  -0.021  -2.242  -2.267
   34        0.032   0.025   2.335   2.392
   35       -0.016   0.009  -2.303  -2.309
   36       -0.030  -0.039  -1.169  -1.237
--------------------------------------------------
tot          0.011   0.056  -7.396  -7.330
 

 total amount of memory used by VASP MPI-rank0   705355. kBytes
=======================================================================

   base      :      30000. kBytes
   nonl-proj :      34307. kBytes
   fftplans  :      21726. kBytes
   grid      :      14732. kBytes
   one-center:        279. kBytes
   wavefun   :     604311. kBytes
 
  
  
 General timing and accounting informations for this job:
 ========================================================
  
                  Total CPU time used (sec):     1493.039
                            User time (sec):     1468.017
                          System time (sec):       25.022
                         Elapsed time (sec):     1510.812
  
                   Maximum memory used (kb):      842168.
                   Average memory used (kb):           0.
  
                          Minor page faults:       700347
                          Major page faults:           19
                 Voluntary context switches:         7476
