 vasp.5.4.4.18Apr17-6-g9f103f2a35 (build Dec 20 2018 12:05:58) complex          
  
 executed on             LinuxIFC date 2019.06.20  18:40:37
 running on   32 total cores
 distrk:  each k-point on    8 cores,    4 groups
 distr:  one band on NCORES_PER_BAND=   4 cores,    2 groups


--------------------------------------------------------------------------------------------------------


 INCAR:
 POTCAR:    PAW_PBE Al 04Jan2001                  
 POTCAR:    PAW_PBE Mn 06Sep2000                  

 ----------------------------------------------------------------------------- 
|                                                                             |
|           W    W    AA    RRRRR   N    N  II  N    N   GGGG   !!!           |
|           W    W   A  A   R    R  NN   N  II  NN   N  G    G  !!!           |
|           W    W  A    A  R    R  N N  N  II  N N  N  G       !!!           |
|           W WW W  AAAAAA  RRRRR   N  N N  II  N  N N  G  GGG   !            |
|           WW  WW  A    A  R   R   N   NN  II  N   NN  G    G                |
|           W    W  A    A  R    R  N    N  II  N    N   GGGG   !!!           |
|                                                                             |
|      You have enabled k-point parallelism (KPAR>1).                         |
|      This developmental code was originally  written by Paul Kent at ORNL,  |
|      and carefully double checked in Vienna.                                |
|      GW as well as linear response parallelism added by Martijn Marsman     |
|      and Georg Kresse.                                                      |
|      Carefully verify results versus KPAR=1.                                |
|      Report problems to Paul Kent and Vienna.                               |
|                                                                             |
 ----------------------------------------------------------------------------- 

 POTCAR:    PAW_PBE Al 04Jan2001                  
   VRHFIN =Al: s2p1                                                             
   LEXCH  = PE                                                                  
   EATOM  =    53.5387 eV,    3.9350 Ry                                         
                                                                                
   TITEL  = PAW_PBE Al 04Jan2001                                                
   LULTRA =        F    use ultrasoft PP ?                                      
   IUNSCR =        1    unscreen: 0-lin 1-nonlin 2-no                           
   RPACOR =    1.500    partial core radius                                     
   POMASS =   26.981; ZVAL   =    3.000    mass and valenz                      
   RCORE  =    1.900    outmost cutoff radius                                   
   RWIGS  =    2.650; RWIGS  =    1.402    wigner-seitz radius (au A)           
   ENMAX  =  240.300; ENMIN  =  180.225 eV                                      
   ICORE  =        2    local potential                                         
   LCOR   =        T    correct aug charges                                     
   LPAW   =        T    paw PP                                                  
   EAUG   =  291.052                                                            
   DEXC   =    0.000                                                            
   RMAX   =    1.939    core radius for proj-oper                               
   RAUG   =    1.300    factor for augmentation sphere                          
   RDEP   =    1.966    radius for radial grids                                 
   RDEPT  =    1.856    core radius for aug-charge                              
                                                                                
   Atomic configuration                                                         
    6 entries                                                                   
     n  l   j            E        occ.                                          
     1  0  0.50     -1511.1048   2.0000                                         
     2  0  0.50      -108.1629   2.0000                                         
     2  1  1.50       -69.6402   6.0000                                         
     3  0  0.50        -7.7528   2.0000                                         
     3  1  1.50        -2.7121   1.0000                                         
     3  2  2.50        -2.7212   0.0000                                         
   Description                                                                  
     l       E           TYP  RCUT    TYP  RCUT                                 
     0     -7.7528455     23  1.900                                             
     0     -3.3096929     23  1.900                                             
     1     -2.7120682     23  1.900                                             
     1     13.6058260     23  1.900                                             
     2     -2.7211652      7  1.900                                             
  local pseudopotential read in
  partial core-charges read in
  partial kinetic energy density read in
  atomic valenz-charges read in
  non local Contribution for L=           0  read in
    real space projection operators read in
  non local Contribution for L=           0  read in
    real space projection operators read in
  non local Contribution for L=           1  read in
    real space projection operators read in
  non local Contribution for L=           1  read in
    real space projection operators read in
    PAW grid and wavefunctions read in
 
   number of l-projection  operators is LMAX  =           4
   number of lm-projection operators is LMMAX =           8
 
 POTCAR:    PAW_PBE Mn 06Sep2000                  
   VRHFIN =Mn: d6 s1                                                            
   LEXCH  = PE                                                                  
   EATOM  =   416.7541 eV,   30.6306 Ry                                         
                                                                                
   TITEL  = PAW_PBE Mn 06Sep2000                                                
   LULTRA =        F    use ultrasoft PP ?                                      
   IUNSCR =        1    unscreen: 0-lin 1-nonlin 2-no                           
   RPACOR =    2.000    partial core radius                                     
   POMASS =   54.938; ZVAL   =    7.000    mass and valenz                      
   RCORE  =    2.300    outmost cutoff radius                                   
   RWIGS  =    2.500; RWIGS  =    1.323    wigner-seitz radius (au A)           
   ENMAX  =  269.864; ENMIN  =  202.398 eV                                      
   RCLOC  =    1.725    cutoff for local pot                                    
   LCOR   =        T    correct aug charges                                     
   LPAW   =        T    paw PP                                                  
   EAUG   =  500.711                                                            
   DEXC   =    0.000                                                            
   RMAX   =    2.343    core radius for proj-oper                               
   RAUG   =    1.300    factor for augmentation sphere                          
   RDEP   =    2.338    radius for radial grids                                 
   RDEPT  =    1.911    core radius for aug-charge                              
                                                                                
   Atomic configuration                                                         
    9 entries                                                                   
     n  l   j            E        occ.                                          
     1  0  0.50     -6424.8288   2.0000                                         
     2  0  0.50      -739.1154   2.0000                                         
     2  1  1.50      -625.3949   6.0000                                         
     3  0  0.50       -81.6100   2.0000                                         
     3  1  1.50       -50.4667   6.0000                                         
     3  2  2.50        -3.3745   6.0000                                         
     4  0  0.50        -4.1331   1.0000                                         
     4  1  0.50        -4.0817   0.0000                                         
     4  3  2.50        -1.3606   0.0000                                         
   Description                                                                  
     l       E           TYP  RCUT    TYP  RCUT                                 
     2     -3.3744664     23  2.300                                             
     2     -4.7350490     23  2.300                                             
     0     -4.1331408     23  2.300                                             
     0      7.6656614     23  2.300                                             
     1     -2.7211652     23  2.300                                             
     1     20.4087390     23  2.300                                             
  local pseudopotential read in
  partial core-charges read in
  partial kinetic energy density read in
  atomic valenz-charges read in
  non local Contribution for L=           2  read in
    real space projection operators read in
  non local Contribution for L=           2  read in
    real space projection operators read in
  non local Contribution for L=           0  read in
    real space projection operators read in
  non local Contribution for L=           0  read in
    real space projection operators read in
  non local Contribution for L=           1  read in
    real space projection operators read in
  non local Contribution for L=           1  read in
    real space projection operators read in
    PAW grid and wavefunctions read in
 
   number of l-projection  operators is LMAX  =           6
   number of lm-projection operators is LMMAX =          18
 

 ----------------------------------------------------------------------------- 
|                                                                             |
|  ADVICE TO THIS USER RUNNING 'VASP/VAMP'   (HEAR YOUR MASTER'S VOICE ...):  |
|                                                                             |
|      You have a (more or less) 'large supercell' and for larger cells       |
|      it might be more efficient to use real space projection opertators     |
|      So try LREAL= Auto  in the INCAR   file.                               |
|      Mind:          For very  accurate calculation you might also keep the  |
|      reciprocal projection scheme          (i.e. LREAL=.FALSE.)             |
|                                                                             |
 ----------------------------------------------------------------------------- 

  PAW_PBE Al 04Jan2001                  :
 energy of atom  1       EATOM=  -53.5387
 kinetic energy error for atom=    0.0005 (will be added to EATOM!!)
  PAW_PBE Mn 06Sep2000                  :
 energy of atom  2       EATOM= -416.7541
 kinetic energy error for atom=    0.0080 (will be added to EATOM!!)
 
 
 POSCAR: NewRef: 27, @ ['Mn', array([1.37502469, 
  positions in cartesian coordinates
  velocities in cartesian coordinates
  No initial velocities read in
 exchange correlation table for  LEXCH =        8
   RHO(1)=    0.500       N(1)  =     2000
   RHO(2)=  100.500       N(2)  =     4000
 


--------------------------------------------------------------------------------------------------------


 ion  position               nearest neighbor table
   1  0.000  0.000  0.000-  28 2.61  30 2.61  34 2.61  36 2.61  46 2.61  48 2.61  52 2.61  54 2.61
                             4 2.75  10 2.75   7 2.75  19 2.75
   2  0.000  0.000  0.333-  28 2.61  34 2.61  46 2.61  52 2.61  29 2.61  47 2.61  35 2.61  53 2.61
                             5 2.75  11 2.75   8 2.75  20 2.75
   3  0.000  0.000  0.667-  29 2.61  35 2.61  47 2.61  53 2.61  30 2.61  48 2.61  36 2.61  54 2.61
                             6 2.75  12 2.75   9 2.75  21 2.75
   4  0.000  0.333  0.000-  28 2.61  30 2.61  46 2.61  48 2.61  31 2.61  33 2.61  49 2.61  51 2.61
                            13 2.75   1 2.75   7 2.75  22 2.75
   5  0.000  0.333  0.333-  28 2.61  46 2.61  31 2.61  49 2.61  47 2.61  29 2.61  32 2.61  50 2.61
                            14 2.75   2 2.75   8 2.75  23 2.75
   6  0.000  0.333  0.667-  29 2.61  47 2.61  32 2.61  50 2.61  48 2.61  30 2.61  33 2.61  51 2.61
                            15 2.75   3 2.75   9 2.75  24 2.75
   7  0.000  0.667  0.000-  31 2.61  33 2.61  49 2.61  51 2.61  34 2.61  36 2.61  52 2.61  54 2.61
                             4 2.75  16 2.75   1 2.75  25 2.75
   8  0.000  0.667  0.333-  31 2.61  49 2.61  34 2.61  52 2.61  50 2.61  32 2.61  35 2.61  53 2.61
                             5 2.75  17 2.75   2 2.75  26 2.75
   9  0.000  0.667  0.667-  32 2.61  50 2.61  35 2.61  53 2.61  51 2.61  33 2.61  36 2.61  54 2.61
                             6 2.75  18 2.75   3 2.75  27 2.75
  10  0.333  0.000  0.000-  28 2.61  30 2.61  34 2.61  36 2.61  37 2.61  39 2.61  43 2.61  45 2.61
                            19 2.75   1 2.75  13 2.75  16 2.75
  11  0.333  0.000  0.333-  28 2.61  34 2.61  37 2.61  43 2.61  29 2.61  35 2.61  38 2.61  44 2.61
                            20 2.75   2 2.75  14 2.75  17 2.75
  12  0.333  0.000  0.667-  29 2.61  35 2.61  38 2.61  44 2.61  30 2.61  36 2.61  39 2.61  45 2.61
                            21 2.75   3 2.75  15 2.75  18 2.75
  13  0.333  0.333  0.000-  28 2.61  30 2.61  31 2.61  33 2.61  37 2.61  39 2.61  40 2.61  42 2.61
                             4 2.75  10 2.75  16 2.75  22 2.75
  14  0.333  0.333  0.333-  28 2.61  31 2.61  37 2.61  29 2.61  40 2.61  38 2.61  32 2.61  41 2.61
                             5 2.75  11 2.75  17 2.75  23 2.75
  15  0.333  0.333  0.667-  29 2.61  32 2.61  38 2.61  30 2.61  41 2.61  39 2.61  33 2.61  42 2.61
                             6 2.75  12 2.75  18 2.75  24 2.75
  16  0.333  0.667  0.000-  31 2.61  33 2.61  34 2.61  36 2.61  40 2.61  42 2.61  43 2.61  45 2.61
                            25 2.75   7 2.75  13 2.75  10 2.75
  17  0.333  0.667  0.333-  31 2.61  34 2.61  40 2.61  32 2.61  43 2.61  41 2.61  35 2.61  44 2.61
                            26 2.75   8 2.75  14 2.75  11 2.75
  18  0.333  0.667  0.667-  32 2.61  35 2.61  41 2.61  33 2.61  44 2.61  42 2.61  36 2.61  45 2.61
                            27 2.75   9 2.75  15 2.75  12 2.75
  19  0.667  0.000  0.000-  37 2.61  39 2.61  43 2.61  45 2.61  46 2.61  48 2.61  52 2.61  54 2.61
                            10 2.75  22 2.75   1 2.75  25 2.75
  20  0.667  0.000  0.333-  37 2.61  43 2.61  46 2.61  52 2.61  38 2.61  44 2.61  47 2.61  53 2.61
                            11 2.75  23 2.75   2 2.75  26 2.75
  21  0.667  0.000  0.667-  38 2.61  44 2.61  47 2.61  53 2.61  39 2.61  45 2.61  48 2.61  54 2.61
                            12 2.75  24 2.75   3 2.75  27 2.75
  22  0.667  0.333  0.000-  37 2.61  39 2.61  40 2.61  42 2.61  46 2.61  48 2.61  49 2.61  51 2.61
                            25 2.75  13 2.75  19 2.75   4 2.75
  23  0.667  0.333  0.333-  37 2.61  40 2.61  46 2.61  38 2.61  49 2.61  47 2.61  41 2.61  50 2.61
                            26 2.75  14 2.75  20 2.75   5 2.75
  24  0.667  0.333  0.667-  38 2.61  41 2.61  47 2.61  39 2.61  50 2.61  48 2.61  42 2.61  51 2.61
                            27 2.75  15 2.75  21 2.75   6 2.75
  25  0.667  0.667  0.000-  40 2.61  42 2.61  43 2.61  45 2.61  49 2.61  51 2.61  52 2.61  54 2.61
                            16 2.75  22 2.75  19 2.75   7 2.75
  26  0.667  0.667  0.333-  40 2.61  43 2.61  49 2.61  41 2.61  52 2.61  50 2.61  44 2.61  53 2.61
                            17 2.75  23 2.75  20 2.75   8 2.75
  27  0.667  0.667  0.667-  41 2.61  44 2.61  50 2.61  42 2.61  53 2.61  51 2.61  45 2.61  54 2.61
                            18 2.75  24 2.75  21 2.75   9 2.75
  28  0.167  0.167  0.167-  14 2.61  11 2.61   5 2.61  13 2.61   2 2.61  10 2.61   4 2.61   1 2.61
                            31 2.75  37 2.75  34 2.75  46 2.75
  29  0.167  0.167  0.500-  15 2.61  12 2.61   6 2.61  14 2.61   3 2.61  11 2.61   5 2.61   2 2.61
                            32 2.75  38 2.75  35 2.75  47 2.75
  30  0.167  0.167  0.833-  13 2.61  15 2.61  10 2.61  12 2.61   4 2.61   6 2.61   1 2.61   3 2.61
                            33 2.75  39 2.75  36 2.75  48 2.75
  31  0.167  0.500  0.167-  17 2.61  14 2.61   8 2.61  16 2.61   5 2.61  13 2.61   7 2.61   4 2.61
                            28 2.75  34 2.75  40 2.75  49 2.75
  32  0.167  0.500  0.500-  18 2.61  15 2.61   9 2.61  17 2.61   6 2.61  14 2.61   8 2.61   5 2.61
                            29 2.75  35 2.75  41 2.75  50 2.75
  33  0.167  0.500  0.833-  16 2.61  18 2.61  13 2.61  15 2.61   7 2.61   9 2.61   4 2.61   6 2.61
                            30 2.75  36 2.75  42 2.75  51 2.75
  34  0.167  0.833  0.167-  11 2.61  17 2.61   2 2.61   8 2.61  16 2.61  10 2.61   7 2.61   1 2.61
                            31 2.75  43 2.75  28 2.75  52 2.75
  35  0.167  0.833  0.500-  12 2.61  18 2.61   3 2.61   9 2.61  17 2.61  11 2.61   8 2.61   2 2.61
                            32 2.75  44 2.75  29 2.75  53 2.75
  36  0.167  0.833  0.833-  10 2.61  12 2.61  16 2.61  18 2.61   1 2.61   3 2.61   7 2.61   9 2.61
                            33 2.75  45 2.75  30 2.75  54 2.75
  37  0.500  0.167  0.167-  23 2.61  20 2.61  14 2.61  22 2.61  11 2.61  19 2.61  13 2.61  10 2.61
                            28 2.75  40 2.75  46 2.75  43 2.75
  38  0.500  0.167  0.500-  24 2.61  21 2.61  15 2.61  23 2.61  12 2.61  20 2.61  14 2.61  11 2.61
                            29 2.75  41 2.75  47 2.75  44 2.75
  39  0.500  0.167  0.833-  22 2.61  24 2.61  19 2.61  21 2.61  13 2.61  15 2.61  10 2.61  12 2.61
                            30 2.75  42 2.75  48 2.75  45 2.75
  40  0.500  0.500  0.167-  26 2.61  23 2.61  17 2.61  25 2.61  14 2.61  22 2.61  16 2.61  13 2.61
                            31 2.75  37 2.75  43 2.75  49 2.75
  41  0.500  0.500  0.500-  27 2.61  24 2.61  18 2.61  26 2.61  15 2.61  23 2.61  17 2.61  14 2.61
                            32 2.75  38 2.75  44 2.75  50 2.75
  42  0.500  0.500  0.833-  25 2.61  27 2.61  22 2.61  24 2.61  16 2.61  18 2.61  13 2.61  15 2.61
                            33 2.75  39 2.75  45 2.75  51 2.75
  43  0.500  0.833  0.167-  20 2.61  26 2.61  11 2.61  17 2.61  25 2.61  19 2.61  16 2.61  10 2.61
                            34 2.75  40 2.75  52 2.75  37 2.75
  44  0.500  0.833  0.500-  21 2.61  27 2.61  12 2.61  18 2.61  26 2.61  20 2.61  17 2.61  11 2.61
                            35 2.75  41 2.75  53 2.75  38 2.75
  45  0.500  0.833  0.833-  19 2.61  21 2.61  25 2.61  27 2.61  10 2.61  12 2.61  16 2.61  18 2.61
                            36 2.75  42 2.75  54 2.75  39 2.75
  46  0.833  0.167  0.167-   5 2.61  23 2.61  20 2.61   2 2.61  22 2.61   4 2.61  19 2.61   1 2.61
                            37 2.75  49 2.75  28 2.75  52 2.75
  47  0.833  0.167  0.500-   6 2.61  24 2.61  21 2.61   3 2.61  23 2.61   5 2.61  20 2.61   2 2.61
                            38 2.75  50 2.75  29 2.75  53 2.75
  48  0.833  0.167  0.833-   4 2.61   6 2.61  22 2.61  24 2.61  19 2.61  21 2.61   1 2.61   3 2.61
                            39 2.75  51 2.75  30 2.75  54 2.75
  49  0.833  0.500  0.167-   8 2.61  26 2.61  23 2.61   5 2.61  25 2.61   7 2.61  22 2.61   4 2.61
                            40 2.75  46 2.75  52 2.75  31 2.75
  50  0.833  0.500  0.500-   9 2.61  27 2.61  24 2.61   6 2.61  26 2.61   8 2.61  23 2.61   5 2.61
                            41 2.75  47 2.75  53 2.75  32 2.75
  51  0.833  0.500  0.833-   7 2.61   9 2.61  25 2.61  27 2.61  22 2.61  24 2.61   4 2.61   6 2.61
                            42 2.75  48 2.75  54 2.75  33 2.75
  52  0.833  0.833  0.167-   2 2.61   8 2.61  20 2.61  26 2.61  19 2.61   7 2.61  25 2.61   1 2.61
                            43 2.75  49 2.75  46 2.75  34 2.75
  53  0.833  0.833  0.500-   3 2.61   9 2.61  21 2.61  27 2.61  20 2.61   8 2.61  26 2.61   2 2.61
                            44 2.75  50 2.75  47 2.75  35 2.75
  54  0.833  0.833  0.833-   1 2.61   3 2.61   7 2.61   9 2.61  19 2.61  21 2.61  25 2.61  27 2.61
                            45 2.75  51 2.75  48 2.75  36 2.75
 
  LATTYP: Found a simple tetragonal cell.
 ALAT       =     8.2501481662
 C/A-ratio  =     1.2642089792
  
  Lattice vectors:
  
 A1 = (   8.2501481662,   0.0000000000,   0.0000000000)
 A2 = (   0.0000000000,   8.2501481662,   0.0000000000)
 A3 = (   0.0000000000,   0.0000000000,  10.4299113916)


Analysis of symmetry for initial positions (statically):
=====================================================================
 Subroutine PRICEL returns following result:
 
  LATTYP: Found a simple tetragonal cell.
 ALAT       =     2.7500493888
 C/A-ratio  =     1.2642089792
  
  Lattice vectors:
  
 A1 = (   2.7500493888,   0.0000000000,   0.0000000000)
 A2 = (   0.0000000000,   2.7500493888,   0.0000000000)
 A3 = (   0.0000000000,   0.0000000000,   3.4766371306)
 
  27 primitive cells build up your supercell.
 

 Routine SETGRP: Setting up the symmetry group for a 
 simple tetragonal supercell.


 Subroutine GETGRP returns: Found 16 space group operations
 (whereof 16 operations were pure point group operations)
 out of a pool of 16 trial point group operations.


The static configuration has the point symmetry D_4h.


Analysis of symmetry for dynamics (positions and initial velocities):
=====================================================================
 Subroutine PRICEL returns following result:
 
  LATTYP: Found a simple tetragonal cell.
 ALAT       =     2.7500493888
 C/A-ratio  =     1.2642089792
  
  Lattice vectors:
  
 A1 = (   2.7500493888,   0.0000000000,   0.0000000000)
 A2 = (   0.0000000000,   2.7500493888,   0.0000000000)
 A3 = (   0.0000000000,   0.0000000000,   3.4766371306)
 
  27 primitive cells build up your supercell.
 

 Routine SETGRP: Setting up the symmetry group for a 
 simple tetragonal supercell.


 Subroutine GETGRP returns: Found 16 space group operations
 (whereof 16 operations were pure point group operations)
 out of a pool of 16 trial point group operations.


The dynamic configuration has the point symmetry D_4h.


Analysis of structural, dynamic, and magnetic symmetry:
=====================================================================
 Subroutine PRICEL returns:
 Original cell was already a primitive cell.
 

 Routine SETGRP: Setting up the symmetry group for a 
 simple tetragonal supercell.


 Subroutine GETGRP returns: Found  2 space group operations
 (whereof  1 operations were pure point group operations)
 out of a pool of 16 trial point group operations.


The magnetic configuration has the point symmetry C_1 .
 The point group associated with its full space group is C_1h.


 Subroutine INISYM returns: Found  2 space group operations
 (whereof  1 operations are pure point group operations),
 and found     1 'primitive' translations

 
 
 KPOINTS: automatic KPOINTS                       

Automatic generation of k-mesh.
 generate k-points for:    5    5    4
Space group operators:
 irot       det(A)        alpha          n_x          n_y          n_z        tau_x        tau_y        tau_z
    1     1.000000     0.000001     1.000000     0.000000     0.000000     0.000000     0.000000     0.000000
    2    -1.000000   180.000000     1.000000     0.000000     0.000000     0.666667     0.000000     0.000000
 
 Subroutine IBZKPT returns following result:
 ===========================================
 
 Found     33 irreducible k-points:
 
 Following reciprocal coordinates:
            Coordinates               Weight
  0.000000  0.000000  0.000000      1.000000
  0.200000  0.000000  0.000000      2.000000
  0.400000  0.000000  0.000000      2.000000
  0.000000  0.200000  0.000000      2.000000
  0.200000  0.200000  0.000000      4.000000
  0.400000  0.200000  0.000000      4.000000
  0.000000  0.400000  0.000000      2.000000
  0.200000  0.400000  0.000000      4.000000
  0.400000  0.400000  0.000000      4.000000
  0.000000  0.000000  0.250000      2.000000
  0.200000  0.000000  0.250000      4.000000
  0.400000  0.000000  0.250000      4.000000
  0.000000  0.200000  0.250000      2.000000
  0.200000  0.200000  0.250000      4.000000
  0.400000  0.200000  0.250000      4.000000
  0.000000  0.400000  0.250000      2.000000
  0.200000  0.400000  0.250000      4.000000
  0.400000  0.400000  0.250000      4.000000
  0.000000 -0.400000  0.250000      2.000000
  0.200000 -0.400000  0.250000      4.000000
  0.400000 -0.400000  0.250000      4.000000
  0.000000 -0.200000  0.250000      2.000000
  0.200000 -0.200000  0.250000      4.000000
  0.400000 -0.200000  0.250000      4.000000
  0.000000  0.000000  0.500000      1.000000
  0.200000  0.000000  0.500000      2.000000
  0.400000  0.000000  0.500000      2.000000
  0.000000  0.200000  0.500000      2.000000
  0.200000  0.200000  0.500000      4.000000
  0.400000  0.200000  0.500000      4.000000
  0.000000  0.400000  0.500000      2.000000
  0.200000  0.400000  0.500000      4.000000
  0.400000  0.400000  0.500000      4.000000
 
 Following cartesian coordinates:
            Coordinates               Weight
  0.000000  0.000000  0.000000      1.000000
  0.024242  0.000000  0.000000      2.000000
  0.048484  0.000000  0.000000      2.000000
  0.000000  0.024242  0.000000      2.000000
  0.024242  0.024242  0.000000      4.000000
  0.048484  0.024242  0.000000      4.000000
  0.000000  0.048484  0.000000      2.000000
  0.024242  0.048484  0.000000      4.000000
  0.048484  0.048484  0.000000      4.000000
  0.000000  0.000000  0.023970      2.000000
  0.024242  0.000000  0.023970      4.000000
  0.048484  0.000000  0.023970      4.000000
  0.000000  0.024242  0.023970      2.000000
  0.024242  0.024242  0.023970      4.000000
  0.048484  0.024242  0.023970      4.000000
  0.000000  0.048484  0.023970      2.000000
  0.024242  0.048484  0.023970      4.000000
  0.048484  0.048484  0.023970      4.000000
  0.000000 -0.048484  0.023970      2.000000
  0.024242 -0.048484  0.023970      4.000000
  0.048484 -0.048484  0.023970      4.000000
  0.000000 -0.024242  0.023970      2.000000
  0.024242 -0.024242  0.023970      4.000000
  0.048484 -0.024242  0.023970      4.000000
  0.000000  0.000000  0.047939      1.000000
  0.024242  0.000000  0.047939      2.000000
  0.048484  0.000000  0.047939      2.000000
  0.000000  0.024242  0.047939      2.000000
  0.024242  0.024242  0.047939      4.000000
  0.048484  0.024242  0.047939      4.000000
  0.000000  0.048484  0.047939      2.000000
  0.024242  0.048484  0.047939      4.000000
  0.048484  0.048484  0.047939      4.000000
 


--------------------------------------------------------------------------------------------------------




 Dimension of arrays:
   k-points           NKPTS =     33   k-points in BZ     NKDIM =     33   number of bands    NBANDS=    168
   number of dos      NEDOS =    301   number of ions     NIONS =     54
   non local maximal  LDIM  =      6   non local SUM 2l+1 LMDIM =     18
   total plane-waves  NPLWV = 204120
   max r-space proj   IRMAX =      1   max aug-charges    IRDMAX=  89713
   dimension x,y,z NGX =    54 NGY =   54 NGZ =   70
   dimension x,y,z NGXF=   108 NGYF=  108 NGZF=  140
   support grid    NGXF=   216 NGYF=  216 NGZF=  280
   ions per type =              27  27
   NGX,Y,Z   is equivalent  to a cutoff of  10.88, 10.88, 11.16 a.u.
   NGXF,Y,Z  is equivalent  to a cutoff of  21.76, 21.76, 22.32 a.u.

 SYSTEM =  AlMn_pv                                 
 POSCAR =  NewRef: 27, @ ['Mn', array([1.37502469, 

 Startparameter for this run:
   NWRITE =      2    write-flag & timer
   PREC   = accura    normal or accurate (medium, high low for compatibility)
   ISTART =      0    job   : 0-new  1-cont  2-samecut
   ICHARG =      2    charge: 1-file 2-atom 10-const
   ISPIN  =      2    spin polarized calculation?
   LNONCOLLINEAR =      F non collinear calculations
   LSORBIT =      F    spin-orbit coupling
   INIWAV =      1    electr: 0-lowe 1-rand  2-diag
   LASPH  =      F    aspherical Exc in radial PAW
   METAGGA=      F    non-selfconsistent MetaGGA calc.

 Electronic Relaxation 1
   ENCUT  =  404.8 eV  29.75 Ry    5.45 a.u.  13.53 13.53 17.11*2*pi/ulx,y,z
   ENINI  =  404.8     initial cutoff
   ENAUG  =  500.7 eV  augmentation charge cutoff
   NELM   =    100;   NELMIN=  4; NELMDL= -8     # of ELM steps 
   EDIFF  = 0.1E-06   stopping-criterion for ELM
   LREAL  =      F    real-space projection
   NLSPLINE    = F    spline interpolate recip. space projectors
   LCOMPAT=      F    compatible to vasp.4.4
   GGA_COMPAT  = T    GGA compatible to vasp.4.4-vasp.4.6
   LMAXPAW     = -100 max onsite density
   LMAXMIX     =    2 max onsite mixed and CHGCAR
   VOSKOWN=      0    Vosko Wilk Nusair interpolation
   ROPT   =    0.00000   0.00000
 Ionic relaxation
   EDIFFG = 0.1E-05   stopping-criterion for IOM
   NSW    =      0    number of steps for IOM
   NBLOCK =      1;   KBLOCK =      1    inner block; outer block 
   IBRION =     -1    ionic relax: 0-MD 1-quasi-New 2-CG
   NFREE  =      0    steps in history (QN), initial steepest desc. (CG)
   ISIF   =      2    stress and relaxation
   IWAVPR =     10    prediction:  0-non 1-charg 2-wave 3-comb
   ISYM   =      2    0-nonsym 1-usesym 2-fastsym
   LCORR  =      T    Harris-Foulkes like correction to forces

   POTIM  = 0.2000    time-step for ionic-motion
   TEIN   =    0.0    initial temperature
   TEBEG  =    0.0;   TEEND  =   0.0 temperature during run
   SMASS  =  -3.00    Nose mass-parameter (am)
   estimated Nose-frequenzy (Omega)   =  0.10E-29 period in steps =****** mass=  -0.156E-26a.u.
   SCALEE = 1.0000    scale energy and forces
   NPACO  =    256;   APACO  = 16.0  distance and # of slots for P.C.
   PSTRESS=    0.0 pullay stress

  Mass of Ions in am
   POMASS =  26.98 54.94
  Ionic Valenz
   ZVAL   =   3.00  7.00
  Atomic Wigner-Seitz radii
   RWIGS  =  -1.00 -1.00
  virtual crystal weights 
   VCA    =   1.00  1.00
   NELECT =     270.0000    total number of electrons
   NUPDOWN=      -1.0000    fix difference up-down

 DOS related values:
   EMIN   =  10.00;   EMAX   =-10.00  energy-range for DOS
   EFERMI =   0.00
   ISMEAR =     1;   SIGMA  =   0.20  broadening in eV -4-tet -1-fermi 0-gaus

 Electronic relaxation 2 (details)
   IALGO  =     58    algorithm
   LDIAG  =      T    sub-space diagonalisation (order eigenvalues)
   LSUBROT=      F    optimize rotation matrix (better conditioning)
   TURBO    =      0    0=normal 1=particle mesh
   IRESTART =      0    0=no restart 2=restart with 2 vectors
   NREBOOT  =      0    no. of reboots
   NMIN     =      0    reboot dimension
   EREF     =   0.00    reference energy to select bands
   IMIX   =      4    mixing-type and parameters
     AMIX     =   0.40;   BMIX     =  1.00
     AMIX_MAG =   1.60;   BMIX_MAG =  1.00
     AMIN     =   0.10
     WC   =   100.;   INIMIX=   1;  MIXPRE=   1;  MAXMIX= -45

 Intra band minimization:
   WEIMIN = 0.0000     energy-eigenvalue tresh-hold
   EBREAK =  0.15E-09  absolut break condition
   DEPER  =   0.30     relativ break condition  

   TIME   =   0.40     timestep for ELM

  volume/ion in A,a.u.               =      13.15        88.72
  Fermi-wavevector in a.u.,A,eV,Ry     =   1.186118  2.241439 19.141722  1.406877
  Thomas-Fermi vector in A             =   2.322298
 
 Write flags
   LWAVE        =      F    write WAVECAR
   LDOWNSAMPLE  =      F    k-point downsampling of WAVECAR
   LCHARG       =      F    write CHGCAR
   LVTOT        =      F    write LOCPOT, total local potential
   LVHAR        =      F    write LOCPOT, Hartree potential only
   LELF         =      F    write electronic localiz. function (ELF)
   LORBIT       =     10    0 simple, 1 ext, 2 COOP (PROOUT), +10 PAW based schemes


 Dipole corrections
   LMONO  =      F    monopole corrections only (constant potential shift)
   LDIPOL =      F    correct potential (dipole corrections)
   IDIPOL =      0    1-x, 2-y, 3-z, 4-all directions 
   EPSILON=  1.0000000 bulk dielectric constant

 Exchange correlation treatment:
   GGA     =    --    GGA type
   LEXCH   =     8    internal setting for exchange type
   VOSKOWN=      0    Vosko Wilk Nusair interpolation
   LHFCALC =     F    Hartree Fock is set to
   LHFONE  =     F    Hartree Fock one center treatment
   AEXX    =    0.0000 exact exchange contribution

 Linear response parameters
   LEPSILON=     F    determine dielectric tensor
   LRPA    =     F    only Hartree local field effects (RPA)
   LNABLA  =     F    use nabla operator in PAW spheres
   LVEL    =     F    velocity operator in full k-point grid
   LINTERFAST=   F  fast interpolation
   KINTER  =     0    interpolate to denser k-point grid
   CSHIFT  =0.1000    complex shift for real part using Kramers Kronig
   OMEGAMAX=  -1.0    maximum frequency
   DEG_THRESHOLD= 0.2000000E-02 threshold for treating states as degnerate
   RTIME   =   -0.100 relaxation time in fs
  (WPLASMAI=    0.000 imaginary part of plasma frequency in eV, 0.658/RTIME)
   DFIELD  = 0.0000000 0.0000000 0.0000000 field for delta impulse in time
 
 Orbital magnetization related:
   ORBITALMAG=     F  switch on orbital magnetization
   LCHIMAG   =     F  perturbation theory with respect to B field
   DQ        =  0.001000  dq finite difference perturbation B field
   LLRAUG    =     F  two centre corrections for induced B field



--------------------------------------------------------------------------------------------------------


 Static calculation
 charge density and potential will be updated during run
 spin polarized calculation
 Conjugate gradient for all bands (Freysoldt, et al. PRB 79, 241103 (2009))
 preconditioned conjugated gradient                                        
 perform sub-space diagonalisation
    before iterative eigenvector-optimisation
 modified Broyden-mixing scheme, WC =      100.0
 initial mixing is a Kerker type mixing with AMIX =  0.4000 and BMIX =      1.0000
 Hartree-type preconditioning will be used
 using additional bands           33
 reciprocal scheme for non local part
 use partial core corrections
 no Harris-corrections to forces 
 use gradient corrections 
 use of overlap-Matrix (Vanderbilt PP)
 Methfessel and Paxton  Order N= 1 SIGMA  =   0.20


--------------------------------------------------------------------------------------------------------


  energy-cutoff  :      404.80
  volume of cell :      709.91
      direct lattice vectors                 reciprocal lattice vectors
     8.250148166  0.000000000  0.000000000     0.121209944  0.000000000  0.000000000
     0.000000000  8.250148166  0.000000000     0.000000000  0.121209944  0.000000000
     0.000000000  0.000000000 10.429911392     0.000000000  0.000000000  0.095878092

  length of vectors
     8.250148166  8.250148166 10.429911392     0.121209944  0.121209944  0.095878092


 
 k-points in units of 2pi/SCALE and weight: automatic KPOINTS                       
   0.00000000  0.00000000  0.00000000       0.010
   0.02424199  0.00000000  0.00000000       0.020
   0.04848398  0.00000000  0.00000000       0.020
   0.00000000  0.02424199  0.00000000       0.020
   0.02424199  0.02424199  0.00000000       0.040
   0.04848398  0.02424199  0.00000000       0.040
   0.00000000  0.04848398  0.00000000       0.020
   0.02424199  0.04848398  0.00000000       0.040
   0.04848398  0.04848398  0.00000000       0.040
   0.00000000  0.00000000  0.02396952       0.020
   0.02424199  0.00000000  0.02396952       0.040
   0.04848398  0.00000000  0.02396952       0.040
   0.00000000  0.02424199  0.02396952       0.020
   0.02424199  0.02424199  0.02396952       0.040
   0.04848398  0.02424199  0.02396952       0.040
   0.00000000  0.04848398  0.02396952       0.020
   0.02424199  0.04848398  0.02396952       0.040
   0.04848398  0.04848398  0.02396952       0.040
   0.00000000 -0.04848398  0.02396952       0.020
   0.02424199 -0.04848398  0.02396952       0.040
   0.04848398 -0.04848398  0.02396952       0.040
   0.00000000 -0.02424199  0.02396952       0.020
   0.02424199 -0.02424199  0.02396952       0.040
   0.04848398 -0.02424199  0.02396952       0.040
   0.00000000  0.00000000  0.04793905       0.010
   0.02424199  0.00000000  0.04793905       0.020
   0.04848398  0.00000000  0.04793905       0.020
   0.00000000  0.02424199  0.04793905       0.020
   0.02424199  0.02424199  0.04793905       0.040
   0.04848398  0.02424199  0.04793905       0.040
   0.00000000  0.04848398  0.04793905       0.020
   0.02424199  0.04848398  0.04793905       0.040
   0.04848398  0.04848398  0.04793905       0.040
 
 k-points in reciprocal lattice and weights: automatic KPOINTS                       
   0.00000000  0.00000000  0.00000000       0.010
   0.20000000  0.00000000  0.00000000       0.020
   0.40000000  0.00000000  0.00000000       0.020
   0.00000000  0.20000000  0.00000000       0.020
   0.20000000  0.20000000  0.00000000       0.040
   0.40000000  0.20000000  0.00000000       0.040
   0.00000000  0.40000000  0.00000000       0.020
   0.20000000  0.40000000  0.00000000       0.040
   0.40000000  0.40000000  0.00000000       0.040
   0.00000000  0.00000000  0.25000000       0.020
   0.20000000  0.00000000  0.25000000       0.040
   0.40000000  0.00000000  0.25000000       0.040
   0.00000000  0.20000000  0.25000000       0.020
   0.20000000  0.20000000  0.25000000       0.040
   0.40000000  0.20000000  0.25000000       0.040
   0.00000000  0.40000000  0.25000000       0.020
   0.20000000  0.40000000  0.25000000       0.040
   0.40000000  0.40000000  0.25000000       0.040
   0.00000000 -0.40000000  0.25000000       0.020
   0.20000000 -0.40000000  0.25000000       0.040
   0.40000000 -0.40000000  0.25000000       0.040
   0.00000000 -0.20000000  0.25000000       0.020
   0.20000000 -0.20000000  0.25000000       0.040
   0.40000000 -0.20000000  0.25000000       0.040
   0.00000000  0.00000000  0.50000000       0.010
   0.20000000  0.00000000  0.50000000       0.020
   0.40000000  0.00000000  0.50000000       0.020
   0.00000000  0.20000000  0.50000000       0.020
   0.20000000  0.20000000  0.50000000       0.040
   0.40000000  0.20000000  0.50000000       0.040
   0.00000000  0.40000000  0.50000000       0.020
   0.20000000  0.40000000  0.50000000       0.040
   0.40000000  0.40000000  0.50000000       0.040
 
 position of ions in fractional coordinates (direct lattice) 
   0.00000000  0.00000000  0.00000000
   0.00000000  0.00000000  0.33333333
   0.00000000  0.00000000  0.66666667
   0.00000000  0.33333333  0.00000000
   0.00000000  0.33333333  0.33333333
   0.00000000  0.33333333  0.66666667
   0.00000000  0.66666667  0.00000000
   0.00000000  0.66666667  0.33333333
   0.00000000  0.66666667  0.66666667
   0.33333333  0.00000000  0.00000000
   0.33333333  0.00000000  0.33333333
   0.33333333  0.00000000  0.66666667
   0.33333333  0.33333333  0.00000000
   0.33333333  0.33333333  0.33333333
   0.33333333  0.33333333  0.66666667
   0.33333333  0.66666667  0.00000000
   0.33333333  0.66666667  0.33333333
   0.33333333  0.66666667  0.66666667
   0.66666667  0.00000000  0.00000000
   0.66666667  0.00000000  0.33333333
   0.66666667  0.00000000  0.66666667
   0.66666667  0.33333333  0.00000000
   0.66666667  0.33333333  0.33333333
   0.66666667  0.33333333  0.66666667
   0.66666667  0.66666667  0.00000000
   0.66666667  0.66666667  0.33333333
   0.66666667  0.66666667  0.66666667
   0.16666667  0.16666667  0.16666667
   0.16666667  0.16666667  0.50000000
   0.16666667  0.16666667  0.83333333
   0.16666667  0.50000000  0.16666667
   0.16666667  0.50000000  0.50000000
   0.16666667  0.50000000  0.83333333
   0.16666667  0.83333333  0.16666667
   0.16666667  0.83333333  0.50000000
   0.16666667  0.83333333  0.83333333
   0.50000000  0.16666667  0.16666667
   0.50000000  0.16666667  0.50000000
   0.50000000  0.16666667  0.83333333
   0.50000000  0.50000000  0.16666667
   0.50000000  0.50000000  0.50000000
   0.50000000  0.50000000  0.83333333
   0.50000000  0.83333333  0.16666667
   0.50000000  0.83333333  0.50000000
   0.50000000  0.83333333  0.83333333
   0.83333333  0.16666667  0.16666667
   0.83333333  0.16666667  0.50000000
   0.83333333  0.16666667  0.83333333
   0.83333333  0.50000000  0.16666667
   0.83333333  0.50000000  0.50000000
   0.83333333  0.50000000  0.83333333
   0.83333333  0.83333333  0.16666667
   0.83333333  0.83333333  0.50000000
   0.83333333  0.83333333  0.83333333
 
 position of ions in cartesian coordinates  (Angst):
   0.00000000  0.00000000  0.00000000
   0.00000000  0.00000000  3.47663713
   0.00000000  0.00000000  6.95327426
   0.00000000  2.75004939  0.00000000
   0.00000000  2.75004939  3.47663713
   0.00000000  2.75004939  6.95327426
   0.00000000  5.50009878  0.00000000
   0.00000000  5.50009878  3.47663713
   0.00000000  5.50009878  6.95327426
   2.75004939  0.00000000  0.00000000
   2.75004939  0.00000000  3.47663713
   2.75004939  0.00000000  6.95327426
   2.75004939  2.75004939  0.00000000
   2.75004939  2.75004939  3.47663713
   2.75004939  2.75004939  6.95327426
   2.75004939  5.50009878  0.00000000
   2.75004939  5.50009878  3.47663713
   2.75004939  5.50009878  6.95327426
   5.50009878  0.00000000  0.00000000
   5.50009878  0.00000000  3.47663713
   5.50009878  0.00000000  6.95327426
   5.50009878  2.75004939  0.00000000
   5.50009878  2.75004939  3.47663713
   5.50009878  2.75004939  6.95327426
   5.50009878  5.50009878  0.00000000
   5.50009878  5.50009878  3.47663713
   5.50009878  5.50009878  6.95327426
   1.37502469  1.37502469  1.73831857
   1.37502469  1.37502469  5.21495570
   1.37502469  1.37502469  8.69159283
   1.37502469  4.12507408  1.73831857
   1.37502469  4.12507408  5.21495570
   1.37502469  4.12507408  8.69159283
   1.37502469  6.87512347  1.73831857
   1.37502469  6.87512347  5.21495570
   1.37502469  6.87512347  8.69159283
   4.12507408  1.37502469  1.73831857
   4.12507408  1.37502469  5.21495570
   4.12507408  1.37502469  8.69159283
   4.12507408  4.12507408  1.73831857
   4.12507408  4.12507408  5.21495570
   4.12507408  4.12507408  8.69159283
   4.12507408  6.87512347  1.73831857
   4.12507408  6.87512347  5.21495570
   4.12507408  6.87512347  8.69159283
   6.87512347  1.37502469  1.73831857
   6.87512347  1.37502469  5.21495570
   6.87512347  1.37502469  8.69159283
   6.87512347  4.12507408  1.73831857
   6.87512347  4.12507408  5.21495570
   6.87512347  4.12507408  8.69159283
   6.87512347  6.87512347  1.73831857
   6.87512347  6.87512347  5.21495570
   6.87512347  6.87512347  8.69159283
 


--------------------------------------------------------------------------------------------------------


 k-point  1 :   0.0000 0.0000 0.0000  plane waves:   13099
 k-point  2 :   0.2000 0.0000 0.0000  plane waves:   13101
 k-point  3 :   0.4000 0.0000 0.0000  plane waves:   13111
 k-point  4 :   0.0000 0.2000 0.0000  plane waves:   13101
 k-point  5 :   0.2000 0.2000 0.0000  plane waves:   13137
 k-point  6 :   0.4000 0.2000 0.0000  plane waves:   13119
 k-point  7 :   0.0000 0.4000 0.0000  plane waves:   13111
 k-point  8 :   0.2000 0.4000 0.0000  plane waves:   13119
 k-point  9 :   0.4000 0.4000 0.0000  plane waves:   13129
 k-point 10 :   0.0000 0.0000 0.2500  plane waves:   13134
 k-point 11 :   0.2000 0.0000 0.2500  plane waves:   13149
 k-point 12 :   0.4000 0.0000 0.2500  plane waves:   13119
 k-point 13 :   0.0000 0.2000 0.2500  plane waves:   13149
 k-point 14 :   0.2000 0.2000 0.2500  plane waves:   13145
 k-point 15 :   0.4000 0.2000 0.2500  plane waves:   13134
 k-point 16 :   0.0000 0.4000 0.2500  plane waves:   13119
 k-point 17 :   0.2000 0.4000 0.2500  plane waves:   13134
 k-point 18 :   0.4000 0.4000 0.2500  plane waves:   13108
 k-point 19 :   0.0000-0.4000 0.2500  plane waves:   13119
 k-point 20 :   0.2000-0.4000 0.2500  plane waves:   13134
 k-point 21 :   0.4000-0.4000 0.2500  plane waves:   13108
 k-point 22 :   0.0000-0.2000 0.2500  plane waves:   13149
 k-point 23 :   0.2000-0.2000 0.2500  plane waves:   13145
 k-point 24 :   0.4000-0.2000 0.2500  plane waves:   13134
 k-point 25 :   0.0000 0.0000 0.5000  plane waves:   13186
 k-point 26 :   0.2000 0.0000 0.5000  plane waves:   13124
 k-point 27 :   0.4000 0.0000 0.5000  plane waves:   13152
 k-point 28 :   0.0000 0.2000 0.5000  plane waves:   13124
 k-point 29 :   0.2000 0.2000 0.5000  plane waves:   13136
 k-point 30 :   0.4000 0.2000 0.5000  plane waves:   13128
 k-point 31 :   0.0000 0.4000 0.5000  plane waves:   13152
 k-point 32 :   0.2000 0.4000 0.5000  plane waves:   13128
 k-point 33 :   0.4000 0.4000 0.5000  plane waves:   13112

 maximum and minimum number of plane-waves per node :      3313     3254

 maximum number of plane-waves:     13186
 maximum index in each direction: 
   IXMAX=   13   IYMAX=   13   IZMAX=   17
   IXMIN=  -13   IYMIN=  -13   IZMIN=  -17


 parallel 3D FFT for wavefunctions:
    minimum data exchange during FFTs selected (reduces bandwidth)
 parallel 3D FFT for charge:
    minimum data exchange during FFTs selected (reduces bandwidth)


 total amount of memory used by VASP MPI-rank0  1044215. kBytes
=======================================================================

   base      :      30000. kBytes
   nonl-proj :      34214. kBytes
   fftplans  :      31580. kBytes
   grid      :      21385. kBytes
   one-center:        435. kBytes
   wavefun   :     926601. kBytes
 
     INWAV:  cpu time    0.0000: real time    0.0000
 Broyden mixing: mesh for mixing (old mesh)
   NGX = 27   NGY = 27   NGZ = 35
  (NGX  =108   NGY  =108   NGZ  =140)
  gives a total of  25515 points

 initial charge density was supplied:
 charge density of overlapping atoms calculated
 number of electron     270.0000000 magnetization       9.0000000
 keeping initial charge density in first step


--------------------------------------------------------------------------------------------------------


 Maximum index for augmentation-charges        10967 (set IRDMAX)


--------------------------------------------------------------------------------------------------------


 First call to EWALD:  gamma=   0.199
 Maximum number of real-space cells 3x 3x 2
 Maximum number of reciprocal cells 3x 3x 3

    FEWALD:  cpu time    0.0025: real time    0.0025


--------------------------------------- Iteration      1(   1)  ---------------------------------------


    POTLOK:  cpu time    0.3964: real time    0.3964
    SETDIJ:  cpu time    0.4928: real time    0.4942
    TRIAL :  cpu time   38.1566: real time   38.5367
    CORREC:  cpu time    0.0066: real time    0.0075
    --------------------------------------------
      LOOP:  cpu time   39.3674: real time   39.7557

 eigenvalue-minimisations  : 22176
 total energy-change (2. order) : 0.2049462E+04  (-0.8801476E+04)
 number of electron     270.0000000 magnetization       9.0000000
 augmentation part      270.0000000 magnetization       9.0000000

 Free energy of the ion-electron system (eV)
  ---------------------------------------------------
  alpha Z        PSCENC =       798.38614055
  Ewald energy   TEWEN  =    -12901.57693327
  -Hartree energ DENC   =     -2855.60785864
  -exchange      EXHF   =         0.00000000
  -V(xc)+E(xc)   XCENC  =      -996.21796948
  PAW double counting   =     12741.82587617   -11476.22345381
  entropy T*S    EENTRO =         0.00182128
  eigenvalues    EBANDS =      4041.20050127
  atomic energy  EATOM  =     12697.67401269
  ---------------------------------------------------
  free energy    TOTEN  =      2049.46213676 eV

  energy without entropy =     2049.46031547  energy(sigma->0) =     2049.46152966


--------------------------------------------------------------------------------------------------------




--------------------------------------- Iteration      1(   2)  ---------------------------------------


    TRIAL :  cpu time   38.3514: real time   39.4085
    CORREC:  cpu time    0.0084: real time    0.0093
    --------------------------------------------
      LOOP:  cpu time   38.3773: real time   39.4373

 eigenvalue-minimisations  : 22176
 total energy-change (2. order) :-0.2128963E+04  (-0.2080507E+04)
 number of electron     270.0000000 magnetization       9.0000000
 augmentation part      270.0000000 magnetization       9.0000000

 Free energy of the ion-electron system (eV)
  ---------------------------------------------------
  alpha Z        PSCENC =       798.38614055
  Ewald energy   TEWEN  =    -12901.57693327
  -Hartree energ DENC   =     -2855.60785864
  -exchange      EXHF   =         0.00000000
  -V(xc)+E(xc)   XCENC  =      -996.21796948
  PAW double counting   =     12741.82587617   -11476.22345381
  entropy T*S    EENTRO =         0.00502381
  eigenvalues    EBANDS =      1912.23395893
  atomic energy  EATOM  =     12697.67401269
  ---------------------------------------------------
  free energy    TOTEN  =       -79.50120307 eV

  energy without entropy =      -79.50622688  energy(sigma->0) =      -79.50287767


--------------------------------------------------------------------------------------------------------




--------------------------------------- Iteration      1(   3)  ---------------------------------------


    TRIAL :  cpu time   53.5395: real time   53.8495
    CORREC:  cpu time    0.0097: real time    0.0106
    --------------------------------------------
      LOOP:  cpu time   53.5524: real time   53.8637

 eigenvalue-minimisations  : 33344
 total energy-change (2. order) :-0.2719332E+03  (-0.2430198E+03)
 number of electron     270.0000000 magnetization       9.0000000
 augmentation part      270.0000000 magnetization       9.0000000

 Free energy of the ion-electron system (eV)
  ---------------------------------------------------
  alpha Z        PSCENC =       798.38614055
  Ewald energy   TEWEN  =    -12901.57693327
  -Hartree energ DENC   =     -2855.60785864
  -exchange      EXHF   =         0.00000000
  -V(xc)+E(xc)   XCENC  =      -996.21796948
  PAW double counting   =     12741.82587617   -11476.22345381
  entropy T*S    EENTRO =         0.00350212
  eigenvalues    EBANDS =      1640.30228399
  atomic energy  EATOM  =     12697.67401269
  ---------------------------------------------------
  free energy    TOTEN  =      -351.43439969 eV

  energy without entropy =     -351.43790181  energy(sigma->0) =     -351.43556706


--------------------------------------------------------------------------------------------------------




--------------------------------------- Iteration      1(   4)  ---------------------------------------


    TRIAL :  cpu time   56.2977: real time   57.4527
    CORREC:  cpu time    0.0103: real time    0.0112
    --------------------------------------------
      LOOP:  cpu time   56.3100: real time   57.4672

 eigenvalue-minimisations  : 36016
 total energy-change (2. order) :-0.4672276E+02  (-0.4139220E+02)
 number of electron     270.0000000 magnetization       9.0000000
 augmentation part      270.0000000 magnetization       9.0000000

 Free energy of the ion-electron system (eV)
  ---------------------------------------------------
  alpha Z        PSCENC =       798.38614055
  Ewald energy   TEWEN  =    -12901.57693327
  -Hartree energ DENC   =     -2855.60785864
  -exchange      EXHF   =         0.00000000
  -V(xc)+E(xc)   XCENC  =      -996.21796948
  PAW double counting   =     12741.82587617   -11476.22345381
  entropy T*S    EENTRO =         0.00316834
  eigenvalues    EBANDS =      1593.57986009
  atomic energy  EATOM  =     12697.67401269
  ---------------------------------------------------
  free energy    TOTEN  =      -398.15715737 eV

  energy without entropy =     -398.16032571  energy(sigma->0) =     -398.15821348


--------------------------------------------------------------------------------------------------------




--------------------------------------- Iteration      1(   5)  ---------------------------------------


    TRIAL :  cpu time   57.8065: real time   58.9162
    CORREC:  cpu time    0.0105: real time    0.0113
    --------------------------------------------
      LOOP:  cpu time   57.8190: real time   58.9311

 eigenvalue-minimisations  : 37064
 total energy-change (2. order) :-0.5394821E+01  (-0.5146253E+01)
 number of electron     270.0000000 magnetization       9.0000000
 augmentation part      270.0000000 magnetization       9.0000000

 Free energy of the ion-electron system (eV)
  ---------------------------------------------------
  alpha Z        PSCENC =       798.38614055
  Ewald energy   TEWEN  =    -12901.57693327
  -Hartree energ DENC   =     -2855.60785864
  -exchange      EXHF   =         0.00000000
  -V(xc)+E(xc)   XCENC  =      -996.21796948
  PAW double counting   =     12741.82587617   -11476.22345381
  entropy T*S    EENTRO =         0.00023790
  eigenvalues    EBANDS =      1588.18796988
  atomic energy  EATOM  =     12697.67401269
  ---------------------------------------------------
  free energy    TOTEN  =      -403.55197803 eV

  energy without entropy =     -403.55221592  energy(sigma->0) =     -403.55205733


--------------------------------------------------------------------------------------------------------




--------------------------------------- Iteration      1(   6)  ---------------------------------------


    TRIAL :  cpu time   57.4614: real time   58.5251
    CORREC:  cpu time    0.0103: real time    0.0111
    --------------------------------------------
      LOOP:  cpu time   57.4749: real time   58.5402

 eigenvalue-minimisations  : 36760
 total energy-change (2. order) :-0.4481269E+00  (-0.4374689E+00)
 number of electron     270.0000000 magnetization       9.0000000
 augmentation part      270.0000000 magnetization       9.0000000

 Free energy of the ion-electron system (eV)
  ---------------------------------------------------
  alpha Z        PSCENC =       798.38614055
  Ewald energy   TEWEN  =    -12901.57693327
  -Hartree energ DENC   =     -2855.60785864
  -exchange      EXHF   =         0.00000000
  -V(xc)+E(xc)   XCENC  =      -996.21796948
  PAW double counting   =     12741.82587617   -11476.22345381
  entropy T*S    EENTRO =         0.00090575
  eigenvalues    EBANDS =      1587.73917514
  atomic energy  EATOM  =     12697.67401269
  ---------------------------------------------------
  free energy    TOTEN  =      -404.00010491 eV

  energy without entropy =     -404.00101066  energy(sigma->0) =     -404.00040683


--------------------------------------------------------------------------------------------------------




--------------------------------------- Iteration      1(   7)  ---------------------------------------


    TRIAL :  cpu time   58.4747: real time   59.5744
    CORREC:  cpu time    0.0103: real time    0.0112
    --------------------------------------------
      LOOP:  cpu time   58.4858: real time   59.5888

 eigenvalue-minimisations  : 37656
 total energy-change (2. order) :-0.5006767E-01  (-0.4947713E-01)
 number of electron     270.0000000 magnetization       9.0000000
 augmentation part      270.0000000 magnetization       9.0000000

 Free energy of the ion-electron system (eV)
  ---------------------------------------------------
  alpha Z        PSCENC =       798.38614055
  Ewald energy   TEWEN  =    -12901.57693327
  -Hartree energ DENC   =     -2855.60785864
  -exchange      EXHF   =         0.00000000
  -V(xc)+E(xc)   XCENC  =      -996.21796948
  PAW double counting   =     12741.82587617   -11476.22345381
  entropy T*S    EENTRO =         0.00124738
  eigenvalues    EBANDS =      1587.68876584
  atomic energy  EATOM  =     12697.67401269
  ---------------------------------------------------
  free energy    TOTEN  =      -404.05017258 eV

  energy without entropy =     -404.05141996  energy(sigma->0) =     -404.05058838


--------------------------------------------------------------------------------------------------------




--------------------------------------- Iteration      1(   8)  ---------------------------------------


    TRIAL :  cpu time   56.3051: real time   57.3374
    CORREC:  cpu time    0.0109: real time    0.0118
    CHARGE:  cpu time    1.8039: real time    1.8040
    --------------------------------------------
      LOOP:  cpu time   58.1212: real time   59.1573

 eigenvalue-minimisations  : 35888
 total energy-change (2. order) :-0.4220621E-02  (-0.4186042E-02)
 number of electron     269.9999995 magnetization       5.9596968
 augmentation part       64.1976371 magnetization       3.5063516

 Free energy of the ion-electron system (eV)
  ---------------------------------------------------
  alpha Z        PSCENC =       798.38614055
  Ewald energy   TEWEN  =    -12901.57693327
  -Hartree energ DENC   =     -2855.60785864
  -exchange      EXHF   =         0.00000000
  -V(xc)+E(xc)   XCENC  =      -996.21796948
  PAW double counting   =     12741.82587617   -11476.22345381
  entropy T*S    EENTRO =         0.00138014
  eigenvalues    EBANDS =      1587.68441246
  atomic energy  EATOM  =     12697.67401269
  ---------------------------------------------------
  free energy    TOTEN  =      -404.05439320 eV

  energy without entropy =     -404.05577334  energy(sigma->0) =     -404.05485325


--------------------------------------------------------------------------------------------------------




--------------------------------------- Iteration      1(   9)  ---------------------------------------


    POTLOK:  cpu time    0.3969: real time    0.3969
    SETDIJ:  cpu time    0.4764: real time    0.4764
    TRIAL :  cpu time   19.4512: real time   19.6993
    CORREC:  cpu time    5.8799: real time    5.9017
    CHARGE:  cpu time    1.8244: real time    1.8244
    --------------------------------------------
      LOOP:  cpu time   28.0333: real time   28.3053

 eigenvalue-minimisations  :     0
 total energy-change (2. order) : 0.3001002E+03  (-0.2187833E+03)
 number of electron     269.9999993 magnetization       6.4695288
 augmentation part       82.6169617 magnetization       4.3200657

 Free energy of the ion-electron system (eV)
  ---------------------------------------------------
  alpha Z        PSCENC =       798.38614055
  Ewald energy   TEWEN  =    -12901.57693327
  -Hartree energ DENC   =     -1273.19115748
  -exchange      EXHF   =         0.00000000
  -V(xc)+E(xc)   XCENC  =     -1041.63499898
  PAW double counting   =     19167.61025573   -17748.23991790
  entropy T*S    EENTRO =         0.02609640
  eigenvalues    EBANDS =       197.01704055
  atomic energy  EATOM  =     12697.67401269
  ---------------------------------------------------
  free energy    TOTEN  =      -103.95417798 eV

  energy without entropy =     -103.98027438  energy(sigma->0) =     -103.96287678


--------------------------------------------------------------------------------------------------------




--------------------------------------- Iteration      1(  10)  ---------------------------------------


    POTLOK:  cpu time    0.3923: real time    0.3923
    SETDIJ:  cpu time    0.4580: real time    0.4869
    TRIAL :  cpu time   19.3351: real time   19.3841
    CORREC:  cpu time    5.8504: real time    6.5247
    CHARGE:  cpu time    1.7950: real time    1.8432
    --------------------------------------------
      LOOP:  cpu time   27.8368: real time   28.6378

 eigenvalue-minimisations  :     0
 total energy-change (2. order) :-0.2141827E+03  (-0.1216035E+02)
 number of electron     269.9999993 magnetization       6.5646074
 augmentation part       86.5602973 magnetization       4.3896166

 Free energy of the ion-electron system (eV)
  ---------------------------------------------------
  alpha Z        PSCENC =       798.38614055
  Ewald energy   TEWEN  =    -12901.57693327
  -Hartree energ DENC   =     -2113.47519285
  -exchange      EXHF   =         0.00000000
  -V(xc)+E(xc)   XCENC  =     -1012.22256820
  PAW double counting   =     20666.58537775   -19429.45882256
  entropy T*S    EENTRO =         0.01764244
  eigenvalues    EBANDS =       975.92499098
  atomic energy  EATOM  =     12697.67401269
  ---------------------------------------------------
  free energy    TOTEN  =      -318.13689852 eV

  energy without entropy =     -318.15454096  energy(sigma->0) =     -318.14277933


--------------------------------------------------------------------------------------------------------




--------------------------------------- Iteration      1(  11)  ---------------------------------------


    POTLOK:  cpu time    0.3958: real time    0.3958
    SETDIJ:  cpu time    0.4589: real time    0.4588
    TRIAL :  cpu time   19.4075: real time   19.6232
    CORREC:  cpu time    5.8599: real time    5.8797
    CHARGE:  cpu time    1.8157: real time    1.8159
    --------------------------------------------
      LOOP:  cpu time   27.9416: real time   28.1782

 eigenvalue-minimisations  :     0
 total energy-change (2. order) :-0.1156077E+02  (-0.1131966E+02)
 number of electron     269.9999993 magnetization       6.4364291
 augmentation part       89.0350967 magnetization       4.5467595

 Free energy of the ion-electron system (eV)
  ---------------------------------------------------
  alpha Z        PSCENC =       798.38614055
  Ewald energy   TEWEN  =    -12901.57693327
  -Hartree energ DENC   =     -2348.08690472
  -exchange      EXHF   =         0.00000000
  -V(xc)+E(xc)   XCENC  =     -1003.66396341
  PAW double counting   =     21574.65926277   -20376.53654818
  entropy T*S    EENTRO =         0.01279683
  eigenvalues    EBANDS =      1229.42962291
  atomic energy  EATOM  =     12697.67401269
  ---------------------------------------------------
  free energy    TOTEN  =      -329.69766820 eV

  energy without entropy =     -329.71046503  energy(sigma->0) =     -329.70193381


--------------------------------------------------------------------------------------------------------




--------------------------------------- Iteration      1(  12)  ---------------------------------------


    POTLOK:  cpu time    0.4134: real time    0.4134
    SETDIJ:  cpu time    0.4597: real time    0.4597
    TRIAL :  cpu time   19.7724: real time   19.8295
    CORREC:  cpu time    5.8904: real time    5.9400
    CHARGE:  cpu time    1.7730: real time    2.4247
    --------------------------------------------
      LOOP:  cpu time   28.3133: real time   29.0726

 eigenvalue-minimisations  :     0
 total energy-change (2. order) :-0.1130751E+02  (-0.1164346E+02)
 number of electron     269.9999993 magnetization       6.9156646
 augmentation part       86.8259838 magnetization       4.7859427

 Free energy of the ion-electron system (eV)
  ---------------------------------------------------
  alpha Z        PSCENC =       798.38614055
  Ewald energy   TEWEN  =    -12901.57693327
  -Hartree energ DENC   =     -2552.65217127
  -exchange      EXHF   =         0.00000000
  -V(xc)+E(xc)   XCENC  =      -996.77541468
  PAW double counting   =     21826.98346934   -20639.90284187
  entropy T*S    EENTRO =        -0.00255308
  eigenvalues    EBANDS =      1426.84576690
  atomic energy  EATOM  =     12697.67401269
  ---------------------------------------------------
  free energy    TOTEN  =      -341.00517478 eV

  energy without entropy =     -341.00262170  energy(sigma->0) =     -341.00432375


--------------------------------------------------------------------------------------------------------




--------------------------------------- Iteration      1(  13)  ---------------------------------------


    POTLOK:  cpu time    0.3913: real time    0.3913
    SETDIJ:  cpu time    0.4805: real time    0.4805
    TRIAL :  cpu time   19.3385: real time   19.5720
    CORREC:  cpu time    5.8516: real time    5.9416
    CHARGE:  cpu time    1.7918: real time    1.8032
    --------------------------------------------
      LOOP:  cpu time   27.8566: real time   28.1927

 eigenvalue-minimisations  :     0
 total energy-change (2. order) :-0.1153201E+02  (-0.8512561E+00)
 number of electron     269.9999993 magnetization       6.9851559
 augmentation part       86.2380752 magnetization       4.7791128

 Free energy of the ion-electron system (eV)
  ---------------------------------------------------
  alpha Z        PSCENC =       798.38614055
  Ewald energy   TEWEN  =    -12901.57693327
  -Hartree energ DENC   =     -2522.94552483
  -exchange      EXHF   =         0.00000000
  -V(xc)+E(xc)   XCENC  =      -998.64995839
  PAW double counting   =     21247.36928111   -20009.63884959
  entropy T*S    EENTRO =        -0.00632355
  eigenvalues    EBANDS =      1336.84719600
  atomic energy  EATOM  =     12697.67401269
  ---------------------------------------------------
  free energy    TOTEN  =      -352.53718882 eV

  energy without entropy =     -352.53086527  energy(sigma->0) =     -352.53508097


--------------------------------------------------------------------------------------------------------




--------------------------------------- Iteration      1(  14)  ---------------------------------------


    POTLOK:  cpu time    0.3918: real time    0.3918
    SETDIJ:  cpu time    0.4739: real time    0.4739
    TRIAL :  cpu time   20.0180: real time   20.0675
    CORREC:  cpu time    5.8882: real time    5.9234
    CHARGE:  cpu time    1.8427: real time    1.8428
    --------------------------------------------
      LOOP:  cpu time   28.6307: real time   28.7157

 eigenvalue-minimisations  :     0
 total energy-change (2. order) :-0.8381837E+00  (-0.1135224E+01)
 number of electron     269.9999993 magnetization       7.0304878
 augmentation part       85.8576832 magnetization       4.7616771

 Free energy of the ion-electron system (eV)
  ---------------------------------------------------
  alpha Z        PSCENC =       798.38614055
  Ewald energy   TEWEN  =    -12901.57693327
  -Hartree energ DENC   =     -2490.46549410
  -exchange      EXHF   =         0.00000000
  -V(xc)+E(xc)   XCENC  =      -999.81932182
  PAW double counting   =     20886.53582042   -19639.24205498
  entropy T*S    EENTRO =        -0.00859801
  eigenvalues    EBANDS =      1295.13878155
  atomic energy  EATOM  =     12697.67401269
  ---------------------------------------------------
  free energy    TOTEN  =      -353.37537251 eV

  energy without entropy =     -353.36677450  energy(sigma->0) =     -353.37250650


--------------------------------------------------------------------------------------------------------




--------------------------------------- Iteration      1(  15)  ---------------------------------------


    POTLOK:  cpu time    0.3859: real time    0.3935
    SETDIJ:  cpu time    0.4603: real time    0.4603
    TRIAL :  cpu time   19.3011: real time   20.2593
    CORREC:  cpu time    5.9179: real time    5.9383
    CHARGE:  cpu time    1.8176: real time    1.8179
    --------------------------------------------
      LOOP:  cpu time   27.8867: real time   28.8739

 eigenvalue-minimisations  :     0
 total energy-change (2. order) :-0.1134637E+01  (-0.7117423E+00)
 number of electron     269.9999992 magnetization       7.0616147
 augmentation part       86.6515494 magnetization       4.7860529

 Free energy of the ion-electron system (eV)
  ---------------------------------------------------
  alpha Z        PSCENC =       798.38614055
  Ewald energy   TEWEN  =    -12901.57693327
  -Hartree energ DENC   =     -2458.11408785
  -exchange      EXHF   =         0.00000000
  -V(xc)+E(xc)   XCENC  =     -1000.97433511
  PAW double counting   =     20146.80717688   -18890.16954287
  entropy T*S    EENTRO =        -0.00931724
  eigenvalues    EBANDS =      1253.46615769
  atomic energy  EATOM  =     12697.67401269
  ---------------------------------------------------
  free energy    TOTEN  =      -354.51000930 eV

  energy without entropy =     -354.50069206  energy(sigma->0) =     -354.50690356


--------------------------------------------------------------------------------------------------------




--------------------------------------- Iteration      1(  16)  ---------------------------------------


    POTLOK:  cpu time    0.4064: real time    0.4410
    SETDIJ:  cpu time    0.4687: real time    0.4689
    TRIAL :  cpu time   19.3704: real time   19.4393
    CORREC:  cpu time    6.6091: real time    6.6192
    CHARGE:  cpu time    1.7986: real time    1.8047
    --------------------------------------------
      LOOP:  cpu time   28.6594: real time   28.7807

 eigenvalue-minimisations  :     0
 total energy-change (2. order) :-0.7104348E+00  (-0.2196573E+00)
 number of electron     269.9999992 magnetization       7.1566668
 augmentation part       87.0770080 magnetization       4.8474935

 Free energy of the ion-electron system (eV)
  ---------------------------------------------------
  alpha Z        PSCENC =       798.38614055
  Ewald energy   TEWEN  =    -12901.57693327
  -Hartree energ DENC   =     -2488.15283682
  -exchange      EXHF   =         0.00000000
  -V(xc)+E(xc)   XCENC  =      -999.76541794
  PAW double counting   =     19732.09394253   -18481.24900029
  entropy T*S    EENTRO =        -0.01189654
  eigenvalues    EBANDS =      1287.37896570
  atomic energy  EATOM  =     12697.67401269
  ---------------------------------------------------
  free energy    TOTEN  =      -355.22044409 eV

  energy without entropy =     -355.20854756  energy(sigma->0) =     -355.21647858


--------------------------------------------------------------------------------------------------------




--------------------------------------- Iteration      1(  17)  ---------------------------------------


    POTLOK:  cpu time    0.4128: real time    0.4243
    SETDIJ:  cpu time    0.4498: real time    0.4497
    TRIAL :  cpu time   19.3000: real time   20.2964
    CORREC:  cpu time    5.9082: real time    5.9349
    CHARGE:  cpu time    1.8455: real time    1.8530
    --------------------------------------------
      LOOP:  cpu time   27.9190: real time   28.9636

 eigenvalue-minimisations  :     0
 total energy-change (2. order) :-0.2205603E+00  (-0.2281387E+00)
 number of electron     269.9999992 magnetization       7.1849383
 augmentation part       87.3038362 magnetization       4.9185537

 Free energy of the ion-electron system (eV)
  ---------------------------------------------------
  alpha Z        PSCENC =       798.38614055
  Ewald energy   TEWEN  =    -12901.57693327
  -Hartree energ DENC   =     -2506.53084924
  -exchange      EXHF   =         0.00000000
  -V(xc)+E(xc)   XCENC  =      -998.98085080
  PAW double counting   =     19631.54778749   -18384.77052205
  entropy T*S    EENTRO =        -0.01268317
  eigenvalues    EBANDS =      1308.82210675
  atomic energy  EATOM  =     12697.67401269
  ---------------------------------------------------
  free energy    TOTEN  =      -355.44100441 eV

  energy without entropy =     -355.42832125  energy(sigma->0) =     -355.43677669


--------------------------------------------------------------------------------------------------------




--------------------------------------- Iteration      1(  18)  ---------------------------------------


    POTLOK:  cpu time    0.3917: real time    0.3917
    SETDIJ:  cpu time    0.4702: real time    0.4702
    TRIAL :  cpu time   19.3892: real time   19.4635
    CORREC:  cpu time    6.3676: real time    6.3687
    CHARGE:  cpu time    1.7910: real time    1.7911
    --------------------------------------------
      LOOP:  cpu time   28.4146: real time   28.4911

 eigenvalue-minimisations  :     0
 total energy-change (2. order) :-0.2280736E+00  (-0.2013793E+00)
 number of electron     269.9999992 magnetization       7.2255559
 augmentation part       87.1241038 magnetization       4.9965440

 Free energy of the ion-electron system (eV)
  ---------------------------------------------------
  alpha Z        PSCENC =       798.38614055
  Ewald energy   TEWEN  =    -12901.57693327
  -Hartree energ DENC   =     -2515.05018279
  -exchange      EXHF   =         0.00000000
  -V(xc)+E(xc)   XCENC  =      -998.39502085
  PAW double counting   =     19550.82646653   -18306.35236030
  entropy T*S    EENTRO =        -0.01447169
  eigenvalues    EBANDS =      1318.83148257
  atomic energy  EATOM  =     12697.67401269
  ---------------------------------------------------
  free energy    TOTEN  =      -355.66907803 eV

  energy without entropy =     -355.65460634  energy(sigma->0) =     -355.66425414


--------------------------------------------------------------------------------------------------------




--------------------------------------- Iteration      1(  19)  ---------------------------------------


    POTLOK:  cpu time    0.3933: real time    0.3997
    SETDIJ:  cpu time    0.4637: real time    0.4677
    TRIAL :  cpu time   19.3287: real time   20.2520
    CORREC:  cpu time    5.8336: real time    5.9006
    CHARGE:  cpu time    1.8167: real time    1.8168
    --------------------------------------------
      LOOP:  cpu time   27.8416: real time   28.8437

 eigenvalue-minimisations  :     0
 total energy-change (2. order) :-0.2009509E+00  (-0.5307248E-01)
 number of electron     269.9999992 magnetization       7.2716385
 augmentation part       86.9293658 magnetization       5.0225325

 Free energy of the ion-electron system (eV)
  ---------------------------------------------------
  alpha Z        PSCENC =       798.38614055
  Ewald energy   TEWEN  =    -12901.57693327
  -Hartree energ DENC   =     -2503.55228542
  -exchange      EXHF   =         0.00000000
  -V(xc)+E(xc)   XCENC  =      -998.50125148
  PAW double counting   =     19486.73455568   -18240.33495148
  entropy T*S    EENTRO =        -0.01530750
  eigenvalues    EBANDS =      1305.31515554
  atomic energy  EATOM  =     12697.67401269
  ---------------------------------------------------
  free energy    TOTEN  =      -355.87002889 eV

  energy without entropy =     -355.85472139  energy(sigma->0) =     -355.86492639


--------------------------------------------------------------------------------------------------------




--------------------------------------- Iteration      1(  20)  ---------------------------------------


    POTLOK:  cpu time    0.3874: real time    0.3979
    SETDIJ:  cpu time    0.5045: real time    0.5045
    TRIAL :  cpu time   19.3747: real time   19.4947
    CORREC:  cpu time    5.8675: real time    5.8970
    CHARGE:  cpu time    2.5765: real time    2.5765
    --------------------------------------------
      LOOP:  cpu time   28.7159: real time   28.8777

 eigenvalue-minimisations  :     0
 total energy-change (2. order) :-0.5299531E-01  (-0.7046410E-01)
 number of electron     269.9999992 magnetization       7.3055947
 augmentation part       86.7517353 magnetization       5.0566835

 Free energy of the ion-electron system (eV)
  ---------------------------------------------------
  alpha Z        PSCENC =       798.38614055
  Ewald energy   TEWEN  =    -12901.57693327
  -Hartree energ DENC   =     -2494.18599955
  -exchange      EXHF   =         0.00000000
  -V(xc)+E(xc)   XCENC  =      -998.74287659
  PAW double counting   =     19468.51012221   -18220.15649210
  entropy T*S    EENTRO =        -0.01635815
  eigenvalues    EBANDS =      1294.18430937
  atomic energy  EATOM  =     12697.67401269
  ---------------------------------------------------
  free energy    TOTEN  =      -355.92302420 eV

  energy without entropy =     -355.90666606  energy(sigma->0) =     -355.91757149


--------------------------------------------------------------------------------------------------------




--------------------------------------- Iteration      1(  21)  ---------------------------------------


    POTLOK:  cpu time    0.3904: real time    0.3904
    SETDIJ:  cpu time    0.4771: real time    0.4771
    TRIAL :  cpu time   19.2897: real time   20.2651
    CORREC:  cpu time    5.8471: real time    5.8994
    CHARGE:  cpu time    1.7960: real time    1.7960
    --------------------------------------------
      LOOP:  cpu time   27.8038: real time   28.8319

 eigenvalue-minimisations  :     0
 total energy-change (2. order) :-0.7045197E-01  (-0.5700326E-01)
 number of electron     269.9999992 magnetization       7.3238499
 augmentation part       86.8246013 magnetization       5.0903734

 Free energy of the ion-electron system (eV)
  ---------------------------------------------------
  alpha Z        PSCENC =       798.38614055
  Ewald energy   TEWEN  =    -12901.57693327
  -Hartree energ DENC   =     -2487.66926729
  -exchange      EXHF   =         0.00000000
  -V(xc)+E(xc)   XCENC  =      -998.85551363
  PAW double counting   =     19462.64753750   -18212.79822773
  entropy T*S    EENTRO =        -0.01700829
  eigenvalues    EBANDS =      1286.21513315
  atomic energy  EATOM  =     12697.67401269
  ---------------------------------------------------
  free energy    TOTEN  =      -355.99347618 eV

  energy without entropy =     -355.97646789  energy(sigma->0) =     -355.98780675


--------------------------------------------------------------------------------------------------------




--------------------------------------- Iteration      1(  22)  ---------------------------------------


    POTLOK:  cpu time    0.4115: real time    0.4115
    SETDIJ:  cpu time    0.4552: real time    0.4552
    TRIAL :  cpu time   19.4976: real time   19.6139
    CORREC:  cpu time    5.8384: real time    5.8700
    CHARGE:  cpu time    1.8116: real time    1.8116
    --------------------------------------------
      LOOP:  cpu time   28.0241: real time   28.1738

 eigenvalue-minimisations  :     0
 total energy-change (2. order) :-0.5694978E-01  (-0.2402508E-01)
 number of electron     269.9999992 magnetization       7.3773416
 augmentation part       86.9408091 magnetization       5.1268327

 Free energy of the ion-electron system (eV)
  ---------------------------------------------------
  alpha Z        PSCENC =       798.38614055
  Ewald energy   TEWEN  =    -12901.57693327
  -Hartree energ DENC   =     -2494.32544637
  -exchange      EXHF   =         0.00000000
  -V(xc)+E(xc)   XCENC  =      -998.50034721
  PAW double counting   =     19482.93914010   -18234.39550574
  entropy T*S    EENTRO =        -0.01763208
  eigenvalues    EBANDS =      1293.76552159
  atomic energy  EATOM  =     12697.67401269
  ---------------------------------------------------
  free energy    TOTEN  =      -356.05042595 eV

  energy without entropy =     -356.03279387  energy(sigma->0) =     -356.04454859


--------------------------------------------------------------------------------------------------------




--------------------------------------- Iteration      1(  23)  ---------------------------------------


    POTLOK:  cpu time    0.3951: real time    0.3950
    SETDIJ:  cpu time    0.4625: real time    0.4624
    TRIAL :  cpu time   19.3918: real time   20.2173
    CORREC:  cpu time    5.8449: real time    5.9207
    CHARGE:  cpu time    1.8042: real time    1.8596
    --------------------------------------------
      LOOP:  cpu time   27.9084: real time   28.8663

 eigenvalue-minimisations  :     0
 total energy-change (2. order) :-0.2410353E-01  (-0.1318082E-01)
 number of electron     269.9999992 magnetization       7.4058994
 augmentation part       86.9938871 magnetization       5.1487854

 Free energy of the ion-electron system (eV)
  ---------------------------------------------------
  alpha Z        PSCENC =       798.38614055
[...]
   45       -0.013  -0.022  -2.262  -2.297
   46        0.027   0.022   2.450   2.498
   47        0.030   0.029   2.257   2.316
   48       -0.012  -0.026  -2.260  -2.299
   49        0.019   0.026   2.267   2.313
   50       -0.022  -0.021  -2.339  -2.382
   51       -0.018  -0.020  -2.344  -2.383
   52       -0.032  -0.024  -2.334  -2.390
   53       -0.027  -0.016  -2.460  -2.503
   54       -0.021  -0.010  -2.340  -2.371
--------------------------------------------------
tot         -0.016  -0.038   7.591   7.537
 
    FORLOC:  cpu time    0.0585: real time    0.0585
    FORNL :  cpu time   29.0285: real time   29.9217
    STRESS:  cpu time   40.6255: real time   40.8622
    FORCOR:  cpu time    0.4405: real time    0.4405
    OFIELD:  cpu time    0.0022: real time    0.0022

  FORCE on cell =-STRESS in cart. coord.  units (eV):
  Direction    XX          YY          ZZ          XY          YZ          ZX
  --------------------------------------------------------------------------------------
  Alpha Z   798.38614   798.38614   798.38614
  Ewald   -4053.61603 -4053.61603 -4794.40593    -0.00000    -0.00000    -0.00000
  Hartree  1082.92715  1084.29139   333.97445    -0.00000     0.28521    -0.00000
  E(xc)   -1141.43772 -1141.71991 -1140.16242     0.00000    -0.05648     0.00000
  Local     371.95056   368.20409  1902.69491     0.00000    -0.87807     0.00000
  n-local  -168.97037  -169.49752  -175.91142     0.10430    -0.17066    -0.34981
  augment   783.63550   784.86705   768.51931     0.00000     0.29569     0.00001
  Kinetic  2333.48438  2336.37783  2309.73894    -1.27252     0.77889    -1.15886
  Fock        0.00000     0.00000     0.00000     0.00000     0.00000     0.00000
  -------------------------------------------------------------------------------------
  Total       6.35962     7.29305     2.83398     0.00000     0.25457     0.00000
  in kB      14.35282    16.45945     6.39591     0.00000     0.57454     0.00000
  external pressure =       12.40 kB  Pullay stress =        0.00 kB


 VOLUME and BASIS-vectors are now :
 -----------------------------------------------------------------------------
  energy-cutoff  :      404.80
  volume of cell :      709.91
      direct lattice vectors                 reciprocal lattice vectors
     8.250148166  0.000000000  0.000000000     0.121209944  0.000000000  0.000000000
     0.000000000  8.250148166  0.000000000     0.000000000  0.121209944  0.000000000
     0.000000000  0.000000000 10.429911392     0.000000000  0.000000000  0.095878092

  length of vectors
     8.250148166  8.250148166 10.429911392     0.121209944  0.121209944  0.095878092


 FORCES acting on ions:
    Electron-Ion                     Ewald-Force                    Non-Local-Force
 -----------------------------------------------------------------------------------------------
   0.157E+00 0.124E+00 -.109E+00   -.239E-08 -.239E-08 -.210E-08   -.889E-01 -.820E-01 0.431E-02
   -.395E-01 0.204E-01 0.159E-01   -.239E-08 -.239E-08 0.171E-08   0.162E-01 -.231E-02 0.858E-02
   0.120E+00 0.158E+00 0.858E-01   -.239E-08 -.239E-08 0.861E-08   -.747E-01 -.535E-01 -.311E-03
   0.593E-02 0.893E-02 -.421E-01   -.239E-08 -.802E-09 -.210E-08   -.671E-02 0.310E-02 0.121E-01
   -.227E-01 -.544E-01 -.369E-01   -.239E-08 -.802E-09 0.171E-08   0.360E-01 -.174E-01 -.179E-01
   0.104E+00 -.115E+00 0.143E+00   -.239E-08 -.802E-09 0.861E-08   -.847E-01 0.691E-01 -.439E-01
   0.133E+00 -.164E+00 -.425E-01   -.239E-08 0.631E-08 -.210E-08   -.877E-01 0.925E-01 -.174E-01
   0.722E-01 0.200E-01 0.288E-01   -.239E-08 0.631E-08 0.171E-08   -.257E-01 0.335E-01 -.384E-01
   0.927E-01 -.347E-01 0.337E-01   -.239E-08 0.631E-08 0.861E-08   -.170E+00 -.120E-01 0.381E-01
   0.373E-09 -.321E-03 -.984E-01   -.802E-09 -.239E-08 -.210E-08   0.000E+00 -.309E-02 0.511E-01
   0.373E-09 -.387E-01 -.216E-01   -.802E-09 -.239E-08 0.171E-08   0.000E+00 0.589E-02 0.453E-01
   0.373E-09 0.797E-04 0.112E+00   -.803E-09 -.239E-08 0.861E-08   0.000E+00 -.247E-03 -.780E-01
   0.373E-09 -.121E-02 -.932E-01   -.802E-09 -.802E-09 -.210E-08   0.000E+00 0.576E-02 0.848E-01
   0.373E-09 0.221E-01 -.523E-02   -.802E-09 -.802E-09 0.171E-08   0.000E+00 0.106E-01 0.266E-01
   0.373E-09 0.329E-01 0.266E-01   -.803E-09 -.802E-09 0.861E-08   0.000E+00 -.803E-02 -.614E-01
   0.373E-09 -.951E-02 -.157E+00   -.802E-09 0.631E-08 -.210E-08   0.000E+00 0.890E-02 0.623E-01
   0.372E-09 0.114E-01 -.197E-01   -.802E-09 0.631E-08 0.171E-08   0.000E+00 -.890E-02 0.269E-01
   0.372E-09 -.280E-01 0.829E-01   -.803E-09 0.631E-08 0.861E-08   0.000E+00 0.269E-02 -.238E-01
   -.157E+00 0.124E+00 -.109E+00   0.631E-08 -.239E-08 -.210E-08   0.889E-01 -.820E-01 0.431E-02
   0.395E-01 0.204E-01 0.159E-01   0.631E-08 -.239E-08 0.171E-08   -.162E-01 -.231E-02 0.858E-02
   -.120E+00 0.158E+00 0.858E-01   0.631E-08 -.239E-08 0.861E-08   0.747E-01 -.535E-01 -.311E-03
   -.593E-02 0.893E-02 -.421E-01   0.631E-08 -.802E-09 -.210E-08   0.671E-02 0.310E-02 0.121E-01
   0.227E-01 -.544E-01 -.369E-01   0.631E-08 -.802E-09 0.171E-08   -.360E-01 -.174E-01 -.179E-01
   -.104E+00 -.115E+00 0.143E+00   0.631E-08 -.802E-09 0.861E-08   0.847E-01 0.691E-01 -.439E-01
   -.133E+00 -.164E+00 -.425E-01   0.631E-08 0.631E-08 -.210E-08   0.877E-01 0.925E-01 -.174E-01
   -.722E-01 0.200E-01 0.288E-01   0.631E-08 0.631E-08 0.171E-08   0.257E-01 0.335E-01 -.384E-01
   -.927E-01 -.347E-01 0.337E-01   0.631E-08 0.631E-08 0.861E-08   0.170E+00 -.120E-01 0.381E-01
   -.162E+00 -.827E-01 -.293E-01   -.169E-07 -.169E-07 -.180E-07   0.212E+00 0.858E-01 -.544E-01
   -.226E+00 -.510E-02 0.867E-02   -.169E-07 -.169E-07 -.170E-08   0.258E+00 0.363E-01 0.606E-01
   -.638E-01 -.255E-01 -.128E-01   -.169E-07 -.169E-07 0.115E-07   0.242E-01 0.227E-01 0.179E-01
   -.143E+00 0.898E-01 0.482E-01   -.169E-07 0.802E-09 -.180E-07   0.120E+00 -.121E+00 -.134E+00
   0.311E+00 -.437E-01 -.171E-01   -.169E-07 0.802E-09 -.170E-08   -.136E+00 0.103E-01 0.504E-01
   0.315E-01 0.476E-01 0.911E-01   -.169E-07 0.802E-09 0.115E-07   -.112E-02 -.220E-01 -.828E-01
   0.267E+00 0.402E-03 0.163E+00   -.169E-07 0.130E-07 -.180E-07   -.132E+00 0.790E-02 -.227E+00
   0.197E+00 0.347E-01 -.207E+00   -.169E-07 0.130E-07 -.170E-08   -.608E-01 -.365E-02 0.303E+00
   0.117E+00 -.326E-01 0.570E-02   -.169E-07 0.130E-07 0.115E-07   -.633E-01 0.112E-01 -.228E-01
   0.162E+00 -.827E-01 -.293E-01   0.802E-09 -.169E-07 -.180E-07   -.212E+00 0.858E-01 -.544E-01
   0.226E+00 -.510E-02 0.867E-02   0.802E-09 -.169E-07 -.170E-08   -.258E+00 0.363E-01 0.606E-01
   0.638E-01 -.255E-01 -.128E-01   0.802E-09 -.169E-07 0.115E-07   -.242E-01 0.227E-01 0.179E-01
   0.143E+00 0.898E-01 0.482E-01   0.802E-09 0.802E-09 -.180E-07   -.120E+00 -.121E+00 -.134E+00
   -.311E+00 -.437E-01 -.171E-01   0.802E-09 0.802E-09 -.170E-08   0.136E+00 0.103E-01 0.504E-01
   -.315E-01 0.476E-01 0.911E-01   0.802E-09 0.802E-09 0.115E-07   0.112E-02 -.220E-01 -.828E-01
   -.267E+00 0.402E-03 0.163E+00   0.802E-09 0.130E-07 -.180E-07   0.132E+00 0.790E-02 -.227E+00
   -.197E+00 0.347E-01 -.207E+00   0.802E-09 0.130E-07 -.170E-08   0.608E-01 -.365E-02 0.303E+00
   -.117E+00 -.326E-01 0.570E-02   0.802E-09 0.130E-07 0.115E-07   0.633E-01 0.112E-01 -.228E-01
   -.605E-08 0.296E+00 0.264E+00   0.130E-07 -.169E-07 -.180E-07   0.000E+00 -.169E+00 -.295E+00
   -.605E-08 -.624E-01 -.279E+00   0.130E-07 -.169E-07 -.170E-08   0.000E+00 0.186E-01 0.289E+00
   -.605E-08 0.931E-01 0.109E+00   0.130E-07 -.169E-07 0.115E-07   0.000E+00 -.744E-01 -.149E+00
   -.605E-08 -.230E+00 -.122E+00   0.130E-07 0.802E-09 -.180E-07   0.000E+00 0.128E+00 0.150E+00
   -.605E-08 0.515E+00 0.243E+00   0.130E-07 0.802E-09 -.170E-08   0.000E+00 -.192E+00 -.291E+00
   -.605E-08 -.640E-01 -.304E+00   0.130E-07 0.802E-09 0.115E-07   0.000E+00 -.488E-02 0.410E+00
   -.605E-08 0.463E-01 0.882E-01   0.130E-07 0.130E-07 -.180E-07   0.000E+00 -.412E-01 -.138E+00
   -.605E-08 -.491E+00 -.954E-01   0.130E-07 0.130E-07 -.170E-08   0.000E+00 0.189E+00 0.166E+00
   -.605E-08 -.112E-01 0.271E-01   0.130E-07 0.130E-07 0.115E-07   0.000E+00 0.479E-01 0.239E-02
 -----------------------------------------------------------------------------------------------
   -.363E-07 -.334E-01 0.101E-01   -.614E-13 -.142E-13 0.128E-13   -.833E-16 0.334E-01 -.102E-01
 
 
 POSITION                                       TOTAL-FORCE (eV/Angst)
 -----------------------------------------------------------------------------------
      0.00000      0.00000      0.00000         0.075500      0.049499     -0.103865
      0.00000      0.00000      3.47664        -0.025315      0.017504      0.023779
      0.00000      0.00000      6.95327         0.051572      0.109441      0.084505
      0.00000      2.75005      0.00000        -0.000630      0.011693     -0.031185
      0.00000      2.75005      3.47664         0.009167     -0.069808     -0.052535
      0.00000      2.75005      6.95327         0.025738     -0.051994      0.102298
      0.00000      5.50010      0.00000         0.053492     -0.079751     -0.056988
      0.00000      5.50010      3.47664         0.048463      0.051030     -0.005892
      0.00000      5.50010      6.95327        -0.062577     -0.046071      0.067230
      2.75005      0.00000      0.00000         0.000000     -0.003573     -0.051905
      2.75005      0.00000      3.47664         0.000000     -0.034054      0.019859
      2.75005      0.00000      6.95327         0.000000     -0.000452      0.041134
      2.75005      2.75005      0.00000         0.000000      0.004144     -0.015976
      2.75005      2.75005      3.47664         0.000000      0.032193      0.019340
      2.75005      2.75005      6.95327         0.000000      0.026013     -0.030320
      2.75005      5.50010      0.00000         0.000000     -0.001051     -0.100951
      2.75005      5.50010      3.47664         0.000000      0.003613      0.005049
      2.75005      5.50010      6.95327         0.000000     -0.025722      0.061338
      5.50010      0.00000      0.00000        -0.075500      0.049499     -0.103865
      5.50010      0.00000      3.47664         0.025315      0.017504      0.023779
      5.50010      0.00000      6.95327        -0.051572      0.109441      0.084505
      5.50010      2.75005      0.00000         0.000630      0.011693     -0.031185
      5.50010      2.75005      3.47664        -0.009167     -0.069808     -0.052535
      5.50010      2.75005      6.95327        -0.025738     -0.051994      0.102298
      5.50010      5.50010      0.00000        -0.053492     -0.079751     -0.056988
      5.50010      5.50010      3.47664        -0.048463      0.051030     -0.005892
      5.50010      5.50010      6.95327         0.062577     -0.046071      0.067230
      1.37502      1.37502      1.73832         0.047261      0.001006     -0.076169
      1.37502      1.37502      5.21496         0.028163      0.030935      0.061866
      1.37502      1.37502      8.69159        -0.040455     -0.003481      0.003617
      1.37502      4.12507      1.73832        -0.022713     -0.027991     -0.076813
      1.37502      4.12507      5.21496         0.179436     -0.033953      0.028640
      1.37502      4.12507      8.69159         0.029357      0.026233      0.009904
      1.37502      6.87512      1.73832         0.137700      0.008394     -0.057030
      1.37502      6.87512      5.21496         0.135809      0.031238      0.086321
      1.37502      6.87512      8.69159         0.053614     -0.021792     -0.017261
      4.12507      1.37502      1.73832        -0.047261      0.001006     -0.076169
      4.12507      1.37502      5.21496        -0.028163      0.030935      0.061866
      4.12507      1.37502      8.69159         0.040455     -0.003481      0.003617
      4.12507      4.12507      1.73832         0.022713     -0.027991     -0.076813
      4.12507      4.12507      5.21496        -0.179436     -0.033953      0.028640
      4.12507      4.12507      8.69159        -0.029357      0.026233      0.009904
      4.12507      6.87512      1.73832        -0.137700      0.008394     -0.057030
      4.12507      6.87512      5.21496        -0.135809      0.031238      0.086321
      4.12507      6.87512      8.69159        -0.053614     -0.021792     -0.017261
      6.87512      1.37502      1.73832         0.000000      0.126561     -0.024244
      6.87512      1.37502      5.21496         0.000000     -0.044697      0.003623
      6.87512      1.37502      8.69159         0.000000      0.019439     -0.035998
      6.87512      4.12507      1.73832         0.000000     -0.099824      0.027236
      6.87512      4.12507      5.21496         0.000000      0.331519     -0.043935
      6.87512      4.12507      8.69159         0.000000     -0.066413      0.095682
      6.87512      6.87512      1.73832         0.000000      0.006935     -0.053170
      6.87512      6.87512      5.21496         0.000000     -0.312838      0.074150
      6.87512      6.87512      8.69159         0.000000      0.033940      0.028250
 -----------------------------------------------------------------------------------
    total drift:                               -0.000000      0.000019     -0.000044


--------------------------------------------------------------------------------------------------------



  FREE ENERGIE OF THE ION-ELECTRON SYSTEM (eV)
  ---------------------------------------------------
  free  energy   TOTEN  =      -356.16232431 eV

  energy  without entropy=     -356.14630252  energy(sigma->0) =     -356.15698371
 


--------------------------------------------------------------------------------------------------------


    POTLOK:  cpu time    1.6184: real time    1.7103


--------------------------------------------------------------------------------------------------------


     LOOP+:  cpu time 2241.3684: real time 2276.1805
    4ORBIT:  cpu time    0.0000: real time    0.0000
 


 total charge     
 
# of ion       s       p       d       tot
------------------------------------------
    1        0.406   0.428   0.000   0.833
    2        0.404   0.429   0.000   0.834
    3        0.406   0.428   0.000   0.834
    4        0.405   0.426   0.000   0.832
    5        0.405   0.429   0.000   0.833
    6        0.405   0.428   0.000   0.833
    7        0.406   0.428   0.000   0.834
    8        0.405   0.429   0.000   0.834
    9        0.406   0.427   0.000   0.833
   10        0.405   0.427   0.000   0.832
   11        0.404   0.427   0.000   0.832
   12        0.405   0.426   0.000   0.831
   13        0.405   0.427   0.000   0.832
   14        0.403   0.428   0.000   0.831
   15        0.405   0.427   0.000   0.832
   16        0.405   0.426   0.000   0.832
   17        0.405   0.427   0.000   0.831
   18        0.405   0.426   0.000   0.831
   19        0.406   0.428   0.000   0.833
   20        0.404   0.430   0.000   0.834
   21        0.406   0.428   0.000   0.834
   22        0.405   0.426   0.000   0.831
   23        0.405   0.429   0.000   0.834
   24        0.405   0.428   0.000   0.833
   25        0.406   0.427   0.000   0.833
   26        0.405   0.429   0.000   0.834
   27        0.406   0.428   0.000   0.833
   28        0.334   0.352   5.140   5.826
   29        0.332   0.353   5.135   5.820
   30        0.335   0.349   5.140   5.824
   31        0.332   0.351   5.143   5.827
   32        0.334   0.354   5.126   5.814
   33        0.334   0.351   5.142   5.826
   34        0.334   0.354   5.136   5.824
   35        0.333   0.353   5.131   5.817
   36        0.333   0.353   5.135   5.821
   37        0.334   0.352   5.133   5.819
   38        0.332   0.353   5.140   5.825
   39        0.335   0.349   5.137   5.821
   40        0.333   0.352   5.133   5.818
   41        0.334   0.354   5.133   5.822
   42        0.334   0.351   5.131   5.816
   43        0.334   0.355   5.122   5.811
   44        0.333   0.353   5.138   5.823
   45        0.333   0.353   5.132   5.817
   46        0.334   0.353   5.130   5.817
   47        0.331   0.356   5.136   5.823
   48        0.334   0.354   5.130   5.818
   49        0.332   0.356   5.131   5.819
   50        0.334   0.354   5.133   5.820
   51        0.334   0.351   5.135   5.820
   52        0.336   0.356   5.123   5.815
   53        0.336   0.356   5.121   5.813
   54        0.335   0.346   5.145   5.826
--------------------------------------------------
tot         19.945  21.070 138.608 179.623
 


 magnetization (x)
 
# of ion       s       p       d       tot
------------------------------------------
    1        0.004   0.008   0.000   0.013
    2       -0.012  -0.021   0.000  -0.033
    3        0.005   0.011   0.000   0.016
    4        0.001   0.002   0.000   0.003
    5       -0.016  -0.028   0.000  -0.043
    6        0.005   0.008   0.000   0.013
    7        0.004   0.010   0.000   0.014
    8       -0.008  -0.012   0.000  -0.020
    9        0.009   0.021   0.000   0.030
   10        0.001   0.002   0.000   0.003
   11       -0.021  -0.035   0.000  -0.056
   12        0.000   0.001   0.000   0.001
   13       -0.001   0.000   0.000  -0.000
   14       -0.023  -0.037   0.000  -0.060
   15        0.000   0.002   0.000   0.002
   16        0.001  -0.000   0.000   0.001
   17       -0.020  -0.033   0.000  -0.053
   18        0.002   0.003   0.000   0.005
   19        0.004   0.009   0.000   0.013
   20       -0.012  -0.021   0.000  -0.033
   21        0.005   0.011   0.000   0.015
   22        0.001   0.002   0.000   0.003
   23       -0.016  -0.027   0.000  -0.043
   24        0.005   0.008   0.000   0.013
   25        0.004   0.011   0.000   0.015
   26       -0.007  -0.012   0.000  -0.020
   27        0.009   0.019   0.000   0.028
   28        0.012   0.017   2.332   2.362
   29        0.009   0.010   2.326   2.345
   30       -0.017  -0.014  -2.304  -2.335
   31        0.014   0.013   2.329   2.357
   32        0.020   0.021   2.389   2.430
   33       -0.015  -0.018  -2.273  -2.305
   34        0.025   0.025   2.410   2.459
   35        0.022   0.017   2.401   2.440
   36       -0.013  -0.022  -2.258  -2.293
   37        0.013   0.017   2.341   2.371
   38        0.009   0.010   2.320   2.340
   39       -0.017  -0.014  -2.306  -2.337
   40        0.014   0.014   2.346   2.374
   41        0.020   0.022   2.383   2.424
   42       -0.016  -0.017  -2.290  -2.322
   43        0.025   0.025   2.429   2.479
   44        0.022   0.017   2.382   2.422
   45       -0.013  -0.022  -2.262  -2.297
   46        0.027   0.022   2.450   2.498
   47        0.030   0.029   2.257   2.316
   48       -0.012  -0.026  -2.260  -2.299
   49        0.019   0.026   2.267   2.313
   50       -0.022  -0.021  -2.339  -2.382
   51       -0.018  -0.020  -2.344  -2.383
   52       -0.032  -0.024  -2.334  -2.390
   53       -0.027  -0.016  -2.460  -2.503
   54       -0.021  -0.010  -2.340  -2.371
--------------------------------------------------
tot         -0.016  -0.038   7.591   7.537
 

 total amount of memory used by VASP MPI-rank0  1044215. kBytes
=======================================================================

   base      :      30000. kBytes
   nonl-proj :      34214. kBytes
   fftplans  :      31580. kBytes
   grid      :      21385. kBytes
   one-center:        435. kBytes
   wavefun   :     926601. kBytes
 
  
  
 General timing and accounting informations for this job:
 ========================================================
  
                  Total CPU time used (sec):     2279.193
                            User time (sec):     2250.012
                          System time (sec):       29.181
                         Elapsed time (sec):     2317.573
  
                   Maximum memory used (kb):     1220348.
                   Average memory used (kb):           0.
  
                          Minor page faults:       808616
                          Major page faults:           20
                 Voluntary context switches:         3533
