   36   36    1    2
  0.1314651E+02  0.8250148E-09  0.8250148E-09  0.6953274E-09  0.2000000E-15
  1.000000000000000E-004
  CAR 
 AlMn_pv                                 
    180     52    116
 
  0.0000000E+00  0.0000000E+00  0.0000000E+00  0.6666667E-02
    1       -2.534900     -2.508319   1.000000   1.000000
    2       -0.385262     -0.361704   1.000000   1.000000
    3       -0.373540     -0.335386   1.000000   1.000000
    4       -0.336399     -0.311129   1.000000   1.000000
    5       -0.313580     -0.285107   1.000000   1.000000
    6       -0.121521     -0.126341   1.000000   1.000000
    7        1.326142      1.369906   1.000000   1.000000
    8        1.349406      1.390543   1.000000   1.000000
    9        1.353818      1.428470   1.000000   1.000000
   10        1.381859      1.440639   1.000000   1.000000
   11        1.420843      1.471239   1.000000   1.000000
   12        1.545754      1.598403   1.000000   1.000000
   13        1.559397      1.600299   1.000000   1.000000
   14        1.577227      1.625003   1.000000   1.000000
   15        1.582244      1.637365   1.000000   1.000000
   16        2.712325      2.819284   1.000000   1.000000
   17        2.714872      2.820881   1.000000   1.000000
   18        2.751060      2.861184   1.000000   1.000000
   19        2.760792      2.871648   1.000000   1.000000
   20        3.426920      3.516800   1.000000   1.000000
   21        3.475243      3.552536   1.000000   1.000000
   22        3.538238      3.628205   1.000000   1.000000
   23        3.599389      3.694629   1.000000   1.000000
   24        4.033594      4.121304   1.000000   1.000000
   25        4.099679      4.328176   1.000000   1.000000
   26        4.261444      4.525296   1.000000   1.000000
   27        4.459921      4.567896   1.000000   1.000000
   28        4.476057      4.627301   1.000000   1.000000
   29        4.493271      4.634118   1.000000   1.000000
   30        4.580307      4.738544   1.000000   1.000000
   31        4.596473      4.780346   1.000000   1.000000
   32        4.682426      4.928200   1.000000   1.000000
   33        4.696786      4.929959   1.000000   1.000000
   34        4.702929      5.016233   1.000000   1.000000
   35        4.800653      5.027747   1.000000   1.000000
   36        4.811420      5.033501   1.000000   1.000000
   37        4.814593      5.058976   1.000000   1.000000
   38        4.817718      5.104062   1.000000   1.000000
   39        4.833389      5.170275   1.000000   1.000000
   40        4.960861      5.178232   1.000000   1.000000
   41        5.221669      5.392366   1.000000   1.000000
   42        5.234484      5.445115   1.000000   1.000000
   43        5.288547      5.506534   1.000000   1.000000
   44        5.293313      5.529675   1.000000   1.000000
   45        5.318095      5.530427   1.000000   1.000000
   46        5.375248      5.652231   1.000000   1.000000
   47        5.387261      5.659965   1.000000   1.000000
   48        5.420573      5.677678   1.000000   1.000000
   49        5.464218      5.711581   1.000000   1.000000
   50        5.486533      5.770507   1.000000   1.000000
   51        5.546303      5.828937   1.000000   1.000000
   52        5.581318      5.855583   1.000000   1.000000
   53        5.619294      5.948393   1.000000   1.000000
   54        5.690402      5.990917   1.000000   1.000000
   55        5.720060      6.097293   1.000000   1.000000
   56        5.730617      6.217840   1.000000   1.000000
   57        5.805754      6.316476   1.000000   1.000000
   58        5.873466      6.321265   1.000000   1.000000
   59        5.911565      6.356030   1.000000   1.000000
   60        5.930402      6.487577   1.000000   1.000000
   61        5.945768      6.555512   1.000000   1.000000
   62        6.146431      6.564522   1.000000   1.000000
   63        6.249365      6.573469   1.000000   1.000000
   64        6.305752      6.607474   1.000000   1.000000
   65        6.315578      6.625127   1.000000   1.000000
   66        6.345408      6.683112   1.000000   1.000000
   67        6.366371      6.709255   1.000000   1.000000
   68        6.445869      6.730116   1.000000   1.000000
   69        6.466600      6.770146   1.000000   1.000000
   70        6.545488      6.834601   1.000000   1.000000
   71        6.548670      6.869833   1.000000   1.000000
   72        6.582027      6.871039   1.000000   1.000000
   73        6.605191      6.925319   1.000000   1.000000
   74        6.658643      6.955526   1.000000   1.000000
   75        6.708613      7.101260   1.000000   1.000025
   76        6.730090      7.176424   1.000000   1.000209
   77        6.733603      7.312303   1.000000   1.004394
   78        6.770843      7.327094   1.000000   1.005733
   79        6.812912      7.381255   1.000000   1.013381
   80        6.849337      7.415107   1.000000   1.020370
   81        6.898647      7.470646   1.000000   1.032441
   82        6.921896      7.539373   1.000000   1.028589
   83        6.983298      7.633591   1.000000   0.904355
   84        7.034651      7.646680   1.000003   0.870662
   85        7.059605      7.677273   1.000007   0.775708
   86        7.199903      7.729210   1.000381   0.574331
   87        7.245611      7.774891   1.001126   0.382536
   88        7.261200      8.059009   1.001584  -0.024896
   89        7.273407      8.109160   1.002051  -0.013997
   90        7.358768      8.154053   1.009639  -0.007103
   91        7.403251      8.173755   1.017762  -0.005054
   92        7.425718      8.181640   1.022797  -0.004384
   93        7.503256      8.223913   1.035451  -0.001899
   94        7.599455      8.336148   0.972104  -0.000126
   95        7.671587      8.412920   0.795106  -0.000013
   96        7.693061      8.478068   0.718835  -0.000001
   97        7.743242      8.524296   0.515505  -0.000000
   98        8.027991      8.560236  -0.031581  -0.000000
   99        8.056704      8.580774  -0.025421  -0.000000
  100        8.060956      8.703257  -0.024445  -0.000000
  101        8.155246      8.719412  -0.006962  -0.000000
  102        8.230861      8.722519  -0.001642  -0.000000
  103        8.297986      8.780313  -0.000343  -0.000000
  104        8.357204      8.822617  -0.000070  -0.000000
  105        8.415795      8.853266  -0.000012  -0.000000
  106        8.451072      8.883919  -0.000004  -0.000000
  107        8.540714      8.924973  -0.000000  -0.000000
  108        8.611612      8.953320  -0.000000  -0.000000
  109        8.679729      8.971356  -0.000000  -0.000000
  110        8.698938      8.985515  -0.000000  -0.000000
  111        8.752395      9.042670  -0.000000  -0.000000
  112        8.815607      9.056881  -0.000000  -0.000000
  113        8.840748      9.080734  -0.000000  -0.000000
  114        8.986886      9.167325  -0.000000  -0.000000
  115        9.057090      9.177554  -0.000000  -0.000000
  116        9.290243      9.235654  -0.000000  -0.000000
 
  0.2000000E+00  0.0000000E+00  0.0000000E+00  0.1333333E-01
    1       -2.444496     -2.417925   1.000000   1.000000
    2       -1.117806     -1.090540   1.000000   1.000000
    3       -0.286378     -0.252289   1.000000   1.000000
    4       -0.254089     -0.229789   1.000000   1.000000
    5       -0.056541     -0.059891   1.000000   1.000000
    6        0.551362      0.583927   1.000000   1.000000
    7        0.871898      0.895054   1.000000   1.000000
    8        0.903955      0.947578   1.000000   1.000000
    9        0.924708      0.956781   1.000000   1.000000
   10        1.415609      1.457372   1.000000   1.000000
   11        1.444970      1.503723   1.000000   1.000000
   12        1.445674      1.524754   1.000000   1.000000
   13        1.890590      1.974632   1.000000   1.000000
   14        2.273018      2.336526   1.000000   1.000000
   15        2.285837      2.365366   1.000000   1.000000
   16        2.290926      2.368404   1.000000   1.000000
   17        2.300292      2.385317   1.000000   1.000000
   18        2.792898      2.876162   1.000000   1.000000
   19        3.163614      3.303149   1.000000   1.000000
   20        3.205468      3.358046   1.000000   1.000000
   21        3.542392      3.621843   1.000000   1.000000
   22        3.598082      3.694581   1.000000   1.000000
   23        3.706587      3.777486   1.000000   1.000000
   24        4.016796      4.101608   1.000000   1.000000
   25        4.066712      4.264173   1.000000   1.000000
   26        4.224376      4.375600   1.000000   1.000000
   27        4.273241      4.512462   1.000000   1.000000
   28        4.405981      4.561361   1.000000   1.000000
   29        4.461866      4.656371   1.000000   1.000000
   30        4.502706      4.722898   1.000000   1.000000
   31        4.536451      4.760025   1.000000   1.000000
   32        4.544264      4.778000   1.000000   1.000000
   33        4.595831      4.810285   1.000000   1.000000
   34        4.692406      4.850828   1.000000   1.000000
   35        4.720630      4.933816   1.000000   1.000000
   36        4.883670      5.014193   1.000000   1.000000
   37        4.893297      5.137803   1.000000   1.000000
   38        4.915558      5.182520   1.000000   1.000000
   39        4.943788      5.214127   1.000000   1.000000
   40        4.968124      5.217871   1.000000   1.000000
   41        5.050372      5.242562   1.000000   1.000000
   42        5.216861      5.449770   1.000000   1.000000
   43        5.235057      5.504269   1.000000   1.000000
   44        5.299854      5.524914   1.000000   1.000000
   45        5.331773      5.577271   1.000000   1.000000
   46        5.362531      5.636196   1.000000   1.000000
   47        5.399107      5.647997   1.000000   1.000000
   48        5.428606      5.663960   1.000000   1.000000
   49        5.511475      5.699288   1.000000   1.000000
   50        5.531075      5.789445   1.000000   1.000000
   51        5.555025      5.850665   1.000000   1.000000
   52        5.618470      5.918053   1.000000   1.000000
   53        5.672648      5.974722   1.000000   1.000000
   54        5.711244      6.074180   1.000000   1.000000
   55        5.728580      6.122968   1.000000   1.000000
   56        5.739147      6.240847   1.000000   1.000000
   57        5.831658      6.297313   1.000000   1.000000
   58        5.905633      6.333177   1.000000   1.000000
   59        5.918979      6.376157   1.000000   1.000000
   60        5.960128      6.427063   1.000000   1.000000
   61        5.969030      6.456353   1.000000   1.000000
   62        6.113035      6.537102   1.000000   1.000000
   63        6.205708      6.540146   1.000000   1.000000
   64        6.284973      6.569585   1.000000   1.000000
   65        6.337087      6.636918   1.000000   1.000000
   66        6.337206      6.686523   1.000000   1.000000
   67        6.349303      6.715402   1.000000   1.000000
   68        6.381614      6.742367   1.000000   1.000000
   69        6.441389      6.745909   1.000000   1.000000
   70        6.495820      6.828821   1.000000   1.000000
   71        6.537179      6.893493   1.000000   1.000000
   72        6.567358      6.906782   1.000000   1.000000
   73        6.607319      6.934691   1.000000   1.000000
   74        6.631019      6.937102   1.000000   1.000000
   75        6.666381      7.053680   1.000000   1.000005
   76        6.690271      7.193272   1.000000   1.000322
   77        6.749496      7.274996   1.000000   1.002120
   78        6.758808      7.345761   1.000000   1.007856
   79        6.787702      7.362884   1.000000   1.010267
   80        6.819709      7.389391   1.000000   1.014920
   81        6.876342      7.468222   1.000000   1.032020
   82        6.899221      7.556096   1.000000   1.019638
   83        6.915732      7.633364   1.000000   0.904885
   84        6.928155      7.667681   1.000000   0.807894
   85        6.971606      7.690072   1.000000   0.729823
   86        7.182123      7.747996   1.000242   0.495261
   87        7.189205      7.802985   1.000290   0.272572
   88        7.213317      7.981964   1.000530  -0.035055
   89        7.293791      8.032314   1.003094  -0.030744
   90        7.364027      8.110680   1.010440  -0.013708
   91        7.456485      8.149363   1.029730  -0.007680
   92        7.514425      8.190428   1.034806  -0.003713
   93        7.599285      8.201399   0.972394  -0.003007
   94        7.636411      8.296391   0.897497  -0.000357
   95        7.684480      8.373531   0.750472  -0.000043
   96        7.738520      8.433750   0.535344  -0.000007
   97        7.801988      8.498641   0.276404  -0.000001
   98        7.931117      8.542579  -0.014877  -0.000000
   99        7.999267      8.597066  -0.035257  -0.000000
  100        8.130885      8.695325  -0.010255  -0.000000
  101        8.140317      8.709756  -0.008878  -0.000000
  102        8.156747      8.722828  -0.006804  -0.000000
  103        8.229747      8.821988  -0.001682  -0.000000
  104        8.299610      8.839350  -0.000329  -0.000000
  105        8.461731      8.876834  -0.000003  -0.000000
  106        8.489283      8.925559  -0.000001  -0.000000
  107        8.503908      9.043739  -0.000001  -0.000000
  108        8.722704      9.046580  -0.000000  -0.000000
  109        8.758413      9.056727  -0.000000  -0.000000
  110        8.789684      9.085323  -0.000000  -0.000000
  111        8.838626      9.110979  -0.000000  -0.000000
  112        8.961483      9.123470  -0.000000  -0.000000
  113        9.000479      9.156120  -0.000000  -0.000000
  114        9.048756      9.193054  -0.000000  -0.000000
  115        9.192663      9.264945  -0.000000  -0.000000
  116        9.216638      9.358814  -0.000000  -0.000000
 
  0.4000000E+00  0.0000000E+00  0.0000000E+00  0.1333333E-01
    1       -2.175689     -2.149087   1.000000   1.000000
    2       -1.727245     -1.700566   1.000000   1.000000
    3       -0.041751     -0.006657   1.000000   1.000000
    4       -0.011125      0.014808   1.000000   1.000000
    5        0.134957      0.136580   1.000000   1.000000
    6        0.363713      0.402473   1.000000   1.000000
    7        0.390923      0.416917   1.000000   1.000000
    8        0.454401      0.462943   1.000000   1.000000
    9        1.560175      1.603073   1.000000   1.000000
   10        1.595966      1.642380   1.000000   1.000000
   11        1.622638      1.688757   1.000000   1.000000
   12        1.718869      1.795666   1.000000   1.000000
   13        1.901040      1.962331   1.000000   1.000000
   14        1.925340      1.992919   1.000000   1.000000
   15        2.196120      2.280316   1.000000   1.000000
   16        2.279211      2.409843   1.000000   1.000000
   17        2.658805      2.700849   1.000000   1.000000
   18        2.885754      2.988403   1.000000   1.000000
   19        2.968108      3.088531   1.000000   1.000000
   20        3.490626      3.658158   1.000000   1.000000
   21        3.598240      3.810616   1.000000   1.000000
   22        3.717797      3.819885   1.000000   1.000000
   23        3.751946      3.848675   1.000000   1.000000
   24        3.946151      4.022787   1.000000   1.000000
   25        3.952651      4.080268   1.000000   1.000000
   26        4.062468      4.207962   1.000000   1.000000
   27        4.113220      4.257461   1.000000   1.000000
   28        4.207012      4.469591   1.000000   1.000000
   29        4.255504      4.471434   1.000000   1.000000
   30        4.354011      4.562826   1.000000   1.000000
   31        4.411666      4.577321   1.000000   1.000000
   32        4.528949      4.686670   1.000000   1.000000
   33        4.638841      4.764506   1.000000   1.000000
   34        4.701702      4.833126   1.000000   1.000000
   35        4.771870      4.965418   1.000000   1.000000
   36        4.800112      5.034361   1.000000   1.000000
   37        4.880687      5.076482   1.000000   1.000000
   38        4.962622      5.123955   1.000000   1.000000
   39        5.039316      5.303203   1.000000   1.000000
   40        5.109417      5.331261   1.000000   1.000000
   41        5.132680      5.358044   1.000000   1.000000
   42        5.181983      5.455877   1.000000   1.000000
   43        5.190052      5.496494   1.000000   1.000000
   44        5.266298      5.532184   1.000000   1.000000
   45        5.379627      5.583783   1.000000   1.000000
   46        5.401716      5.601934   1.000000   1.000000
   47        5.420696      5.640536   1.000000   1.000000
   48        5.436603      5.646523   1.000000   1.000000
   49        5.468836      5.770253   1.000000   1.000000
   50        5.512666      5.776537   1.000000   1.000000
   51        5.585365      5.830710   1.000000   1.000000
   52        5.613533      5.910346   1.000000   1.000000
   53        5.641165      5.928245   1.000000   1.000000
   54        5.700170      6.142445   1.000000   1.000000
   55        5.738833      6.173798   1.000000   1.000000
   56        5.753190      6.219286   1.000000   1.000000
   57        5.834227      6.246866   1.000000   1.000000
   58        5.902268      6.262019   1.000000   1.000000
   59        6.000522      6.305913   1.000000   1.000000
   60        6.053127      6.375352   1.000000   1.000000
   61        6.092660      6.445474   1.000000   1.000000
   62        6.108270      6.505402   1.000000   1.000000
   63        6.126657      6.527258   1.000000   1.000000
   64        6.210882      6.576944   1.000000   1.000000
   65        6.230390      6.585535   1.000000   1.000000
   66        6.265745      6.675254   1.000000   1.000000
   67        6.314931      6.718432   1.000000   1.000000
   68        6.348134      6.723552   1.000000   1.000000
   69        6.379550      6.752540   1.000000   1.000000
   70        6.392642      6.829308   1.000000   1.000000
   71        6.449294      6.859328   1.000000   1.000000
   72        6.508450      6.911045   1.000000   1.000000
   73        6.604098      6.960505   1.000000   1.000000
   74        6.605089      7.062985   1.000000   1.000007
   75        6.646888      7.075659   1.000000   1.000011
   76        6.684144      7.221052   1.000000   1.000638
   77        6.713030      7.233807   1.000000   1.000860
   78        6.776340      7.285328   1.000000   1.002618
   79        6.787007      7.342892   1.000000   1.007496
   80        6.840985      7.390952   1.000000   1.015224
   81        6.857223      7.409382   1.000000   1.019104
   82        6.873442      7.566593   1.000000   1.011608
   83        6.900219      7.630975   1.000000   0.910600
   84        6.905217      7.695468   1.000000   0.709844
   85        6.946518      7.716082   1.000000   0.628635
   86        7.131016      7.791633   1.000060   0.315770
   87        7.136646      7.828778   1.000070   0.183633
   88        7.206979      7.874824   1.000453   0.062970
   89        7.260049      8.018416   1.001546  -0.033206
   90        7.340311      8.111638   1.007179  -0.013529
   91        7.431311      8.151665   1.024087  -0.007395
   92        7.606617      8.162261   0.960287  -0.006182
   93        7.617750      8.212033   0.939478  -0.002433
   94        7.709637      8.237152   0.654715  -0.001434
   95        7.735883      8.316800   0.546551  -0.000211
   96        7.754946      8.320042   0.465973  -0.000194
   97        7.758635      8.411292   0.450409  -0.000014
   98        7.867864      8.551847   0.077846  -0.000000
   99        7.971891      8.564680  -0.033704  -0.000000
  100        8.004612      8.628568  -0.034886  -0.000000
  101        8.083671      8.642388  -0.019238  -0.000000
  102        8.161833      8.698848  -0.006242  -0.000000
  103        8.221652      8.726244  -0.001996  -0.000000
  104        8.293987      8.771752  -0.000379  -0.000000
  105        8.372426      8.874129  -0.000045  -0.000000
  106        8.411382      8.975675  -0.000014  -0.000000
  107        8.542730      9.045820  -0.000000  -0.000000
  108        8.729132      9.096715  -0.000000  -0.000000
  109        8.874185      9.137631  -0.000000  -0.000000
  110        8.932472      9.176783  -0.000000  -0.000000
  111        8.996918      9.179010  -0.000000  -0.000000
  112        9.015342      9.196173  -0.000000  -0.000000
  113        9.076952      9.248643  -0.000000  -0.000000
  114        9.121720      9.431701  -0.000000  -0.000000
  115        9.257455      9.577009  -0.000000  -0.000000
  116        9.573545      9.738856  -0.000000  -0.000000
 
  0.0000000E+00  0.2000000E+00  0.0000000E+00  0.1333333E-01
    1       -2.444346     -2.417787   1.000000   1.000000
    2       -1.118582     -1.091268   1.000000   1.000000
    3       -0.300183     -0.269245   1.000000   1.000000
    4       -0.237971     -0.210565   1.000000   1.000000
    5       -0.056307     -0.059693   1.000000   1.000000
    6        0.549849      0.582527   1.000000   1.000000
    7        0.871191      0.895378   1.000000   1.000000
    8        0.895801      0.936107   1.000000   1.000000
    9        0.932868      0.968183   1.000000   1.000000
   10        1.391691      1.436039   1.000000   1.000000
   11        1.445830      1.525788   1.000000   1.000000
   12        1.476177      1.528749   1.000000   1.000000
   13        1.883156      1.968594   1.000000   1.000000
   14        2.256289      2.321943   1.000000   1.000000
   15        2.270361      2.351839   1.000000   1.000000
   16        2.306321      2.381519   1.000000   1.000000
   17        2.314872      2.397342   1.000000   1.000000
   18        2.789161      2.870185   1.000000   1.000000
   19        3.130738      3.284647   1.000000   1.000000
   20        3.241873      3.382891   1.000000   1.000000
   21        3.505605      3.594934   1.000000   1.000000
   22        3.650384      3.738698   1.000000   1.000000
   23        3.709503      3.783703   1.000000   1.000000
   24        4.013661      4.103419   1.000000   1.000000
   25        4.078821      4.294541   1.000000   1.000000
   26        4.187241      4.368900   1.000000   1.000000
   27        4.265946      4.401643   1.000000   1.000000
   28        4.447344      4.578210   1.000000   1.000000
   29        4.490660      4.664358   1.000000   1.000000
   30        4.501203      4.739707   1.000000   1.000000
   31        4.510481      4.750730   1.000000   1.000000
   32        4.575184      4.842527   1.000000   1.000000
   33        4.603434      4.848154   1.000000   1.000000
   34        4.615937      4.848690   1.000000   1.000000
   35        4.807567      4.992072   1.000000   1.000000
   36        4.844795      5.082123   1.000000   1.000000
   37        4.898706      5.100506   1.000000   1.000000
   38        4.916102      5.118026   1.000000   1.000000
   39        4.928298      5.166996   1.000000   1.000000
   40        5.003540      5.243017   1.000000   1.000000
   41        5.078489      5.262419   1.000000   1.000000
   42        5.193939      5.373488   1.000000   1.000000
   43        5.215400      5.423000   1.000000   1.000000
   44        5.236343      5.529411   1.000000   1.000000
   45        5.329031      5.563683   1.000000   1.000000
   46        5.339539      5.581734   1.000000   1.000000
   47        5.401341      5.636300   1.000000   1.000000
   48        5.413788      5.687270   1.000000   1.000000
   49        5.495068      5.717574   1.000000   1.000000
   50        5.497186      5.853953   1.000000   1.000000
   51        5.589490      5.876203   1.000000   1.000000
   52        5.593208      5.931828   1.000000   1.000000
   53        5.681121      5.989125   1.000000   1.000000
   54        5.719879      5.989154   1.000000   1.000000
   55        5.721670      6.045566   1.000000   1.000000
   56        5.765879      6.257545   1.000000   1.000000
   57        5.895398      6.312194   1.000000   1.000000
   58        5.898752      6.353358   1.000000   1.000000
   59        5.936210      6.409814   1.000000   1.000000
   60        5.980454      6.472478   1.000000   1.000000
   61        5.993268      6.481306   1.000000   1.000000
   62        6.092282      6.539834   1.000000   1.000000
   63        6.239500      6.558865   1.000000   1.000000
   64        6.285365      6.606903   1.000000   1.000000
   65        6.312136      6.627648   1.000000   1.000000
   66        6.314960      6.639344   1.000000   1.000000
   67        6.340577      6.688094   1.000000   1.000000
   68        6.363210      6.771896   1.000000   1.000000
   69        6.428534      6.783250   1.000000   1.000000
   70        6.479238      6.783712   1.000000   1.000000
   71        6.502413      6.879541   1.000000   1.000000
   72        6.552451      6.903075   1.000000   1.000000
   73        6.596810      6.922255   1.000000   1.000000
   74        6.657746      6.949326   1.000000   1.000000
   75        6.697876      7.086703   1.000000   1.000016
   76        6.725554      7.092544   1.000000   1.000019
   77        6.737215      7.242763   1.000000   1.001055
   78        6.746102      7.284601   1.000000   1.002582
   79        6.777857      7.433388   1.000000   1.024578
   80        6.788564      7.469963   1.000000   1.032325
   81        6.864161      7.484851   1.000000   1.034463
   82        6.888028      7.593729   1.000000   0.980776
   83        6.923919      7.596839   1.000000   0.976198
   84        6.952237      7.680648   1.000000   0.763999
   85        6.973146      7.703637   1.000000   0.678263
   86        7.142134      7.745619   1.000082   0.505204
   87        7.153874      7.789975   1.000113   0.322235
   88        7.278612      7.949833   1.002284  -0.026598
   89        7.335887      8.113721   1.006664  -0.013143
   90        7.386002      8.114005   1.014258  -0.013101
   91        7.426599      8.163505   1.023001  -0.006052
   92        7.510314      8.213001   1.035170  -0.002386
   93        7.555946      8.269652   1.019768  -0.000685
   94        7.578747      8.322921   0.999711  -0.000180
   95        7.675317      8.381768   0.782541  -0.000034
   96        7.717813      8.439003   0.621643  -0.000006
   97        7.876026      8.453417   0.060571  -0.000003
   98        8.060390      8.520674  -0.024570  -0.000000
   99        8.063962      8.535556  -0.023751  -0.000000
  100        8.143543      8.668513  -0.008436  -0.000000
  101        8.144292      8.697071  -0.008331  -0.000000
  102        8.224929      8.739284  -0.001863  -0.000000
  103        8.286959      8.846248  -0.000452  -0.000000
  104        8.301154      8.889148  -0.000317  -0.000000
  105        8.408380      8.917401  -0.000015  -0.000000
  106        8.527560      8.951215  -0.000000  -0.000000
  107        8.592142      8.983770  -0.000000  -0.000000
  108        8.638979      9.023251  -0.000000  -0.000000
  109        8.683140      9.038352  -0.000000  -0.000000
  110        8.776357      9.069426  -0.000000  -0.000000
  111        8.879643      9.092711  -0.000000  -0.000000
  112        8.886918      9.118663  -0.000000  -0.000000
  113        8.942213      9.130201  -0.000000  -0.000000
  114        8.962812      9.142625  -0.000000  -0.000000
  115        9.012206      9.217841  -0.000000  -0.000000
  116        9.257693      9.294941  -0.000000  -0.000000
 
  0.2000000E+00  0.2000000E+00  0.0000000E+00  0.1333333E-01
    1       -2.354210     -2.327661   1.000000   1.000000
    2       -1.042423     -1.016221   1.000000   1.000000
    3       -1.022399     -0.993473   1.000000   1.000000
    4        0.008553      0.006689   1.000000   1.000000
    5        0.210353      0.242924   1.000000   1.000000
    6        0.619378      0.650774   1.000000   1.000000
    7        0.639629      0.673608   1.000000   1.000000
    8        0.923265      0.948430   1.000000   1.000000
    9        0.946608      0.971845   1.000000   1.000000
   10        1.538208      1.617081   1.000000   1.000000
   11        1.711730      1.758142   1.000000   1.000000
   12        1.733938      1.785576   1.000000   1.000000
   13        1.821491      1.877934   1.000000   1.000000
   14        1.939357      2.024165   1.000000   1.000000
   15        1.956192      2.045965   1.000000   1.000000
   16        2.763090      2.880522   1.000000   1.000000
   17        2.795425      2.918949   1.000000   1.000000
   18        2.822741      2.933568   1.000000   1.000000
   19        2.852181      2.938964   1.000000   1.000000
   20        2.888631      2.969295   1.000000   1.000000
   21        3.578901      3.760640   1.000000   1.000000
   22        3.747916      3.820852   1.000000   1.000000
   23        3.752110      3.833911   1.000000   1.000000
   24        3.812496      3.914264   1.000000   1.000000
   25        4.020920      4.185533   1.000000   1.000000
   26        4.220522      4.401607   1.000000   1.000000
   27        4.296085      4.441287   1.000000   1.000000
   28        4.322071      4.462394   1.000000   1.000000
   29        4.353047      4.512591   1.000000   1.000000
   30        4.396266      4.639525   1.000000   1.000000
   31        4.443690      4.667955   1.000000   1.000000
   32        4.556568      4.803864   1.000000   1.000000
   33        4.605938      4.856565   1.000000   1.000000
   34        4.672076      4.889199   1.000000   1.000000
   35        4.714581      4.939824   1.000000   1.000000
   36        4.737138      4.943480   1.000000   1.000000
   37        4.869938      5.012137   1.000000   1.000000
   38        4.951027      5.120115   1.000000   1.000000
   39        4.996810      5.170538   1.000000   1.000000
   40        5.065821      5.262494   1.000000   1.000000
   41        5.111249      5.309358   1.000000   1.000000
   42        5.162639      5.367157   1.000000   1.000000
   43        5.210789      5.484427   1.000000   1.000000
   44        5.237685      5.551574   1.000000   1.000000