       N       E                     dE             d eps       ncg     rms          ort
DAV:   1     0.133983287197E+04    0.13398E+04   -0.59224E+04  6032   0.139E+03
DAV:   2    -0.717126799303E+02   -0.14115E+04   -0.13718E+04  6032   0.423E+02
DAV:   3    -0.239996056486E+03   -0.16828E+03   -0.14888E+03  6032   0.160E+02
DAV:   4    -0.265823342791E+03   -0.25827E+02   -0.22562E+02  6032   0.691E+01
DAV:   5    -0.268474662937E+03   -0.26513E+01   -0.25116E+01  6032   0.205E+01
DAV:   6    -0.268687113758E+03   -0.21245E+00   -0.20806E+00  6032   0.537E+00
DAV:   7    -0.268709192389E+03   -0.22079E-01   -0.21880E-01  6032   0.150E+00
DAV:   8    -0.268710785753E+03   -0.15934E-02   -0.15842E-02  6032   0.386E-01
SDA:   9    -0.651337136590E+02    0.20358E+03   -0.15842E-02  6032   0.228E+04 0.000E+00
CGA:  10    -0.207298211509E+03   -0.14216E+03   -0.14123E+03  6032   0.154E+03 0.390E+03
CGA:  11    -0.217987656840E+03   -0.10689E+02   -0.10705E+02  6032   0.569E+02 0.262E+01
CGA:  12    -0.225693713758E+03   -0.77061E+01   -0.77166E+01  6032   0.908E+02 0.457E-01
CGA:  13    -0.233149264625E+03   -0.74556E+01   -0.75250E+01  6032   0.152E+02 0.365E+00
CGA:  14    -0.234205638148E+03   -0.10564E+01   -0.10734E+01  6032   0.537E+01-0.131E+00
CGA:  15    -0.234834721420E+03   -0.62908E+00   -0.63104E+00  6032   0.628E+01 0.485E-02
CGA:  16    -0.235492917304E+03   -0.65820E+00   -0.66074E+00  6032   0.196E+01 0.105E-02
CGA:  17    -0.235662492151E+03   -0.16957E+00   -0.16973E+00  6032   0.120E+01 0.392E-03
CGA:  18    -0.235808731414E+03   -0.14624E+00   -0.14640E+00  6032   0.127E+01 0.104E-03
CGA:  19    -0.235930929667E+03   -0.12220E+00   -0.12259E+00  6032   0.524E+00-0.206E-02
CGA:  20    -0.235973912540E+03   -0.42983E-01   -0.43120E-01  6032   0.281E+00-0.110E-02
CGA:  21    -0.236023513414E+03   -0.49601E-01   -0.49570E-01  6032   0.352E+00 0.847E-03
CGA:  22    -0.236059413481E+03   -0.35900E-01   -0.35961E-01  6032   0.180E+00-0.203E-03
CGA:  23    -0.236074903029E+03   -0.15490E-01   -0.15502E-01  6032   0.837E-01-0.260E-03
CGA:  24    -0.236087706552E+03   -0.12804E-01   -0.12804E-01  6032   0.869E-01-0.186E-03
CGA:  25    -0.236097302096E+03   -0.95955E-02   -0.95881E-02  6032   0.709E-01-0.246E-03
CGA:  26    -0.236106390739E+03   -0.90886E-02   -0.90880E-02  6032   0.636E-01-0.136E-03
CGA:  27    -0.236113459169E+03   -0.70684E-02   -0.70621E-02  6032   0.400E-01-0.111E-03
CGA:  28    -0.236117376149E+03   -0.39170E-02   -0.39149E-02  6032   0.206E-01 0.653E-05
CGA:  29    -0.236120282810E+03   -0.29067E-02   -0.29067E-02  6032   0.185E-01 0.803E-05
CGA:  30    -0.236122475929E+03   -0.21931E-02   -0.21930E-02  6032   0.124E-01 0.148E-04
CGA:  31    -0.236123983250E+03   -0.15073E-02   -0.15072E-02  6032   0.120E-01 0.912E-05
CGA:  32    -0.236125563419E+03   -0.15802E-02   -0.15804E-02  6032   0.106E-01 0.381E-04
CGA:  33    -0.236126724034E+03   -0.11606E-02   -0.11616E-02  6032   0.548E-02 0.577E-04
CGA:  34    -0.236127379543E+03   -0.65551E-03   -0.65634E-03  6032   0.447E-02 0.470E-04
CGA:  35    -0.236127961773E+03   -0.58223E-03   -0.58251E-03  6032   0.347E-02 0.408E-04
CGA:  36    -0.236128311177E+03   -0.34940E-03   -0.35018E-03  6032   0.183E-02 0.211E-04
CGA:  37    -0.236128584152E+03   -0.27297E-03   -0.27277E-03  6032   0.220E-02 0.154E-04
CGA:  38    -0.236128919920E+03   -0.33577E-03   -0.33533E-03  6032   0.201E-02 0.271E-04
CGA:  39    -0.236129094243E+03   -0.17432E-03   -0.17518E-03  6032   0.736E-03 0.182E-04
SDA:  40    -0.236129171586E+03   -0.77343E-04   -0.77583E-04  6032   0.551E-03 0.785E-05
CGA:  41    -0.236129217920E+03   -0.46334E-04   -0.46123E-04  6032   0.558E-03-0.431E-05
CGA:  42    -0.236129311310E+03   -0.93390E-04   -0.93952E-04  6032   0.413E-03-0.142E-04
CGA:  43    -0.236129359471E+03   -0.48162E-04   -0.48105E-04  6032   0.379E-03-0.452E-05
CGA:  44    -0.236129400922E+03   -0.41451E-04   -0.41402E-04  6032   0.201E-03-0.240E-05
CGA:  45    -0.236129430549E+03   -0.29627E-04   -0.29694E-04  6032   0.263E-03-0.371E-05
CGA:  46    -0.236129466394E+03   -0.35844E-04   -0.35894E-04  6032   0.150E-03-0.656E-05
CGA:  47    -0.236129482198E+03   -0.15805E-04   -0.15772E-04  6032   0.152E-03-0.132E-05
CGA:  48    -0.236129513026E+03   -0.30828E-04   -0.30743E-04  6032   0.138E-03 0.117E-05
CGA:  49    -0.236129525765E+03   -0.12738E-04   -0.12782E-04  6032   0.740E-04 0.109E-05
CGA:  50    -0.236129541323E+03   -0.15558E-04   -0.15417E-04  6032   0.107E-03 0.194E-05
CGA:  51    -0.236129548307E+03   -0.69844E-05   -0.70656E-05  6032   0.305E-04 0.115E-05
CGA:  52    -0.236129556000E+03   -0.76927E-05   -0.74733E-05  6032   0.493E-04 0.202E-05
CGA:  53    -0.236129561391E+03   -0.53917E-05   -0.54425E-05  6032   0.233E-04 0.146E-05
CGA:  54    -0.236129566600E+03   -0.52085E-05   -0.50891E-05  6032   0.384E-04 0.158E-05
CGA:  55    -0.236129569703E+03   -0.31033E-05   -0.31488E-05  6032   0.866E-05 0.730E-06
CGA:  56    -0.236129571170E+03   -0.14666E-05   -0.14800E-05  6032   0.152E-04-0.409E-06
CGA:  57    -0.236129573079E+03   -0.19090E-05   -0.19060E-05  6032   0.115E-04-0.547E-06
CGA:  58    -0.236129574205E+03   -0.11259E-05   -0.11295E-05  6032   0.905E-05 0.879E-07
CGA:  59    -0.236129575376E+03   -0.11714E-05   -0.11737E-05  6032   0.527E-05 0.331E-06
CGA:  60    -0.236129576216E+03   -0.84011E-06   -0.84226E-06  6032   0.729E-05-0.968E-07
CGA:  61    -0.236129576974E+03   -0.75808E-06   -0.75214E-06  6032   0.255E-05-0.213E-06
CGA:  62    -0.236129577267E+03   -0.29232E-06   -0.29396E-06  6032   0.247E-05 0.114E-06
CGA:  63    -0.236129577675E+03   -0.40834E-06   -0.40288E-06  6032   0.114E-05 0.284E-06
CGA:  64    -0.236129577837E+03   -0.16191E-06   -0.16302E-06  6032   0.125E-05 0.113E-06
CGA:  65    -0.236129578050E+03   -0.21351E-06   -0.21153E-06  6032   0.771E-06 0.615E-07
CGA:  66    -0.236129578116E+03   -0.65578E-07   -0.66633E-07  6032   0.473E-06 0.154E-07
   1 F= -.23612958E+03 E0= -.23613849E+03  d E =0.267461E-01  mag=     9.9159
