 vasp.5.4.4.18Apr17-6-g9f103f2a35 (build Dec 20 2018 12:05:58) complex          
  
 executed on             LinuxIFC date 2019.06.20  15:31:26
 running on   32 total cores
 distrk:  each k-point on    8 cores,    4 groups
 distr:  one band on NCORES_PER_BAND=   4 cores,    2 groups


--------------------------------------------------------------------------------------------------------


 INCAR:
 POTCAR:    PAW_PBE Al 04Jan2001                  
 POTCAR:    PAW_PBE Mn 06Sep2000                  

 ----------------------------------------------------------------------------- 
|                                                                             |
|           W    W    AA    RRRRR   N    N  II  N    N   GGGG   !!!           |
|           W    W   A  A   R    R  NN   N  II  NN   N  G    G  !!!           |
|           W    W  A    A  R    R  N N  N  II  N N  N  G       !!!           |
|           W WW W  AAAAAA  RRRRR   N  N N  II  N  N N  G  GGG   !            |
|           WW  WW  A    A  R   R   N   NN  II  N   NN  G    G                |
|           W    W  A    A  R    R  N    N  II  N    N   GGGG   !!!           |
|                                                                             |
|      You have enabled k-point parallelism (KPAR>1).                         |
|      This developmental code was originally  written by Paul Kent at ORNL,  |
|      and carefully double checked in Vienna.                                |
|      GW as well as linear response parallelism added by Martijn Marsman     |
|      and Georg Kresse.                                                      |
|      Carefully verify results versus KPAR=1.                                |
|      Report problems to Paul Kent and Vienna.                               |
|                                                                             |
 ----------------------------------------------------------------------------- 

 POTCAR:    PAW_PBE Al 04Jan2001                  
   VRHFIN =Al: s2p1                                                             
   LEXCH  = PE                                                                  
   EATOM  =    53.5387 eV,    3.9350 Ry                                         
                                                                                
   TITEL  = PAW_PBE Al 04Jan2001                                                
   LULTRA =        F    use ultrasoft PP ?                                      
   IUNSCR =        1    unscreen: 0-lin 1-nonlin 2-no                           
   RPACOR =    1.500    partial core radius                                     
   POMASS =   26.981; ZVAL   =    3.000    mass and valenz                      
   RCORE  =    1.900    outmost cutoff radius                                   
   RWIGS  =    2.650; RWIGS  =    1.402    wigner-seitz radius (au A)           
   ENMAX  =  240.300; ENMIN  =  180.225 eV                                      
   ICORE  =        2    local potential                                         
   LCOR   =        T    correct aug charges                                     
   LPAW   =        T    paw PP                                                  
   EAUG   =  291.052                                                            
   DEXC   =    0.000                                                            
   RMAX   =    1.939    core radius for proj-oper                               
   RAUG   =    1.300    factor for augmentation sphere                          
   RDEP   =    1.966    radius for radial grids                                 
   RDEPT  =    1.856    core radius for aug-charge                              
                                                                                
   Atomic configuration                                                         
    6 entries                                                                   
     n  l   j            E        occ.                                          
     1  0  0.50     -1511.1048   2.0000                                         
     2  0  0.50      -108.1629   2.0000                                         
     2  1  1.50       -69.6402   6.0000                                         
     3  0  0.50        -7.7528   2.0000                                         
     3  1  1.50        -2.7121   1.0000                                         
     3  2  2.50        -2.7212   0.0000                                         
   Description                                                                  
     l       E           TYP  RCUT    TYP  RCUT                                 
     0     -7.7528455     23  1.900                                             
     0     -3.3096929     23  1.900                                             
     1     -2.7120682     23  1.900                                             
     1     13.6058260     23  1.900                                             
     2     -2.7211652      7  1.900                                             
  local pseudopotential read in
  partial core-charges read in
  partial kinetic energy density read in
  atomic valenz-charges read in
  non local Contribution for L=           0  read in
    real space projection operators read in
  non local Contribution for L=           0  read in
    real space projection operators read in
  non local Contribution for L=           1  read in
    real space projection operators read in
  non local Contribution for L=           1  read in
    real space projection operators read in
    PAW grid and wavefunctions read in
 
   number of l-projection  operators is LMAX  =           4
   number of lm-projection operators is LMMAX =           8
 
 POTCAR:    PAW_PBE Mn 06Sep2000                  
   VRHFIN =Mn: d6 s1                                                            
   LEXCH  = PE                                                                  
   EATOM  =   416.7541 eV,   30.6306 Ry                                         
                                                                                
   TITEL  = PAW_PBE Mn 06Sep2000                                                
   LULTRA =        F    use ultrasoft PP ?                                      
   IUNSCR =        1    unscreen: 0-lin 1-nonlin 2-no                           
   RPACOR =    2.000    partial core radius                                     
   POMASS =   54.938; ZVAL   =    7.000    mass and valenz                      
   RCORE  =    2.300    outmost cutoff radius                                   
   RWIGS  =    2.500; RWIGS  =    1.323    wigner-seitz radius (au A)           
   ENMAX  =  269.864; ENMIN  =  202.398 eV                                      
   RCLOC  =    1.725    cutoff for local pot                                    
   LCOR   =        T    correct aug charges                                     
   LPAW   =        T    paw PP                                                  
   EAUG   =  500.711                                                            
   DEXC   =    0.000                                                            
   RMAX   =    2.343    core radius for proj-oper                               
   RAUG   =    1.300    factor for augmentation sphere                          
   RDEP   =    2.338    radius for radial grids                                 
   RDEPT  =    1.911    core radius for aug-charge                              
                                                                                
   Atomic configuration                                                         
    9 entries                                                                   
     n  l   j            E        occ.                                          
     1  0  0.50     -6424.8288   2.0000                                         
     2  0  0.50      -739.1154   2.0000                                         
     2  1  1.50      -625.3949   6.0000                                         
     3  0  0.50       -81.6100   2.0000                                         
     3  1  1.50       -50.4667   6.0000                                         
     3  2  2.50        -3.3745   6.0000                                         
     4  0  0.50        -4.1331   1.0000                                         
     4  1  0.50        -4.0817   0.0000                                         
     4  3  2.50        -1.3606   0.0000                                         
   Description                                                                  
     l       E           TYP  RCUT    TYP  RCUT                                 
     2     -3.3744664     23  2.300                                             
     2     -4.7350490     23  2.300                                             
     0     -4.1331408     23  2.300                                             
     0      7.6656614     23  2.300                                             
     1     -2.7211652     23  2.300                                             
     1     20.4087390     23  2.300                                             
  local pseudopotential read in
  partial core-charges read in
  partial kinetic energy density read in
  atomic valenz-charges read in
  non local Contribution for L=           2  read in
    real space projection operators read in
  non local Contribution for L=           2  read in
    real space projection operators read in
  non local Contribution for L=           0  read in
    real space projection operators read in
  non local Contribution for L=           0  read in
    real space projection operators read in
  non local Contribution for L=           1  read in
    real space projection operators read in
  non local Contribution for L=           1  read in
    real space projection operators read in
    PAW grid and wavefunctions read in
 
   number of l-projection  operators is LMAX  =           6
   number of lm-projection operators is LMMAX =          18
 

 ----------------------------------------------------------------------------- 
|                                                                             |
|  ADVICE TO THIS USER RUNNING 'VASP/VAMP'   (HEAR YOUR MASTER'S VOICE ...):  |
|                                                                             |
|      You have a (more or less) 'large supercell' and for larger cells       |
|      it might be more efficient to use real space projection opertators     |
|      So try LREAL= Auto  in the INCAR   file.                               |
|      Mind:          For very  accurate calculation you might also keep the  |
|      reciprocal projection scheme          (i.e. LREAL=.FALSE.)             |
|                                                                             |
 ----------------------------------------------------------------------------- 

  PAW_PBE Al 04Jan2001                  :
 energy of atom  1       EATOM=  -53.5387
 kinetic energy error for atom=    0.0005 (will be added to EATOM!!)
  PAW_PBE Mn 06Sep2000                  :
 energy of atom  2       EATOM= -416.7541
 kinetic energy error for atom=    0.0080 (will be added to EATOM!!)
 
 
 POSCAR: NewRef: 18, @ ['Mn', array([1.37502469, 
  positions in cartesian coordinates
  velocities in cartesian coordinates
  No initial velocities read in
 exchange correlation table for  LEXCH =        8
   RHO(1)=    0.500       N(1)  =     2000
   RHO(2)=  100.500       N(2)  =     4000
 


--------------------------------------------------------------------------------------------------------


 ion  position               nearest neighbor table
   1  0.000  0.000  0.000-  20 2.61  24 2.61  32 2.61  36 2.61  31 2.61  23 2.61  35 2.61  19 2.61
                             3 2.75   7 2.75   5 2.75  13 2.75
   2  0.000  0.000  0.500-  19 2.61  23 2.61  31 2.61  35 2.61  20 2.61  32 2.61  24 2.61  36 2.61
                             4 2.75   8 2.75   6 2.75  14 2.75
   3  0.000  0.333  0.000-  20 2.61  32 2.61  22 2.61  34 2.61  19 2.61  31 2.61  33 2.61  21 2.61
                             9 2.75   1 2.75   5 2.75  15 2.75
   4  0.000  0.333  0.500-  19 2.61  31 2.61  21 2.61  33 2.61  32 2.61  20 2.61  22 2.61  34 2.61
                            10 2.75   2 2.75   6 2.75  16 2.75
   5  0.000  0.667  0.000-  22 2.61  34 2.61  24 2.61  36 2.61  21 2.61  33 2.61  35 2.61  23 2.61
                             3 2.75  11 2.75   1 2.75  17 2.75
   6  0.000  0.667  0.500-  21 2.61  33 2.61  23 2.61  35 2.61  34 2.61  22 2.61  24 2.61  36 2.61
                             4 2.75  12 2.75   2 2.75  18 2.75
   7  0.333  0.000  0.000-  20 2.61  24 2.61  26 2.61  30 2.61  23 2.61  19 2.61  29 2.61  25 2.61
                            13 2.75   1 2.75   9 2.75  11 2.75
   8  0.333  0.000  0.500-  19 2.61  23 2.61  25 2.61  29 2.61  20 2.61  24 2.61  26 2.61  30 2.61
                            14 2.75   2 2.75  10 2.75  12 2.75
   9  0.333  0.333  0.000-  20 2.61  22 2.61  26 2.61  19 2.61  28 2.61  21 2.61  25 2.61  27 2.61
                             3 2.75   7 2.75  11 2.75  15 2.75
  10  0.333  0.333  0.500-  19 2.61  21 2.61  25 2.61  20 2.61  27 2.61  26 2.61  22 2.61  28 2.61
                             4 2.75   8 2.75  12 2.75  16 2.75
  11  0.333  0.667  0.000-  22 2.61  24 2.61  28 2.61  21 2.61  30 2.61  23 2.61  27 2.61  29 2.61
                            17 2.75   5 2.75   9 2.75   7 2.75
  12  0.333  0.667  0.500-  21 2.61  23 2.61  27 2.61  22 2.61  29 2.61  28 2.61  24 2.61  30 2.61
                            18 2.75   6 2.75  10 2.75   8 2.75
  13  0.667  0.000  0.000-  26 2.61  30 2.61  32 2.61  36 2.61  29 2.61  25 2.61  35 2.61  31 2.61
                             7 2.75  15 2.75   1 2.75  17 2.75
  14  0.667  0.000  0.500-  25 2.61  29 2.61  31 2.61  35 2.61  26 2.61  30 2.61  32 2.61  36 2.61
                             8 2.75  16 2.75   2 2.75  18 2.75
  15  0.667  0.333  0.000-  26 2.61  28 2.61  32 2.61  25 2.61  34 2.61  27 2.61  31 2.61  33 2.61
                            17 2.75   9 2.75  13 2.75   3 2.75
  16  0.667  0.333  0.500-  25 2.61  27 2.61  31 2.61  26 2.61  33 2.61  32 2.61  28 2.61  34 2.61
                            18 2.75  10 2.75  14 2.75   4 2.75
  17  0.667  0.667  0.000-  28 2.61  30 2.61  34 2.61  27 2.61  36 2.61  29 2.61  33 2.61  35 2.61
                            11 2.75  15 2.75  13 2.75   5 2.75
  18  0.667  0.667  0.500-  27 2.61  29 2.61  33 2.61  28 2.61  35 2.61  34 2.61  30 2.61  36 2.61
                            12 2.75  16 2.75  14 2.75   6 2.75
  19  0.167  0.167  0.250-  10 2.61   8 2.61   4 2.61   9 2.61   2 2.61   7 2.61   3 2.61   1 2.61
                            21 2.75  25 2.75  23 2.75  31 2.75
  20  0.167  0.167  0.750-   9 2.61   7 2.61   3 2.61  10 2.61   1 2.61   4 2.61   8 2.61   2 2.61
                            22 2.75  26 2.75  24 2.75  32 2.75
  21  0.167  0.500  0.250-  12 2.61  10 2.61   6 2.61  11 2.61   4 2.61   9 2.61   5 2.61   3 2.61
                            19 2.75  23 2.75  27 2.75  33 2.75
  22  0.167  0.500  0.750-  11 2.61   9 2.61   5 2.61  12 2.61   3 2.61   6 2.61  10 2.61   4 2.61
                            20 2.75  24 2.75  28 2.75  34 2.75
  23  0.167  0.833  0.250-   8 2.61  12 2.61   2 2.61   6 2.61  11 2.61   7 2.61   5 2.61   1 2.61
                            21 2.75  29 2.75  19 2.75  35 2.75
  24  0.167  0.833  0.750-   7 2.61  11 2.61   1 2.61   5 2.61   8 2.61  12 2.61   2 2.61   6 2.61
                            22 2.75  30 2.75  20 2.75  36 2.75
  25  0.500  0.167  0.250-  16 2.61  14 2.61  10 2.61  15 2.61   8 2.61  13 2.61   9 2.61   7 2.61
                            19 2.75  27 2.75  31 2.75  29 2.75
  26  0.500  0.167  0.750-  15 2.61  13 2.61   9 2.61  16 2.61   7 2.61  10 2.61  14 2.61   8 2.61
                            20 2.75  28 2.75  32 2.75  30 2.75
  27  0.500  0.500  0.250-  18 2.61  16 2.61  12 2.61  17 2.61  10 2.61  15 2.61  11 2.61   9 2.61
                            21 2.75  25 2.75  29 2.75  33 2.75
  28  0.500  0.500  0.750-  17 2.61  15 2.61  11 2.61  18 2.61   9 2.61  12 2.61  16 2.61  10 2.61
                            22 2.75  26 2.75  30 2.75  34 2.75
  29  0.500  0.833  0.250-  14 2.61  18 2.61   8 2.61  12 2.61  17 2.61  13 2.61  11 2.61   7 2.61
                            23 2.75  27 2.75  35 2.75  25 2.75
  30  0.500  0.833  0.750-  13 2.61  17 2.61   7 2.61  11 2.61  14 2.61  18 2.61   8 2.61  12 2.61
                            24 2.75  28 2.75  36 2.75  26 2.75
  31  0.833  0.167  0.250-   4 2.61  16 2.61  14 2.61   2 2.61  15 2.61   3 2.61  13 2.61   1 2.61
                            25 2.75  33 2.75  19 2.75  35 2.75
  32  0.833  0.167  0.750-   3 2.61  15 2.61  13 2.61   1 2.61   4 2.61  16 2.61   2 2.61  14 2.61
                            26 2.75  34 2.75  20 2.75  36 2.75
  33  0.833  0.500  0.250-   6 2.61  18 2.61  16 2.61   4 2.61  17 2.61   5 2.61  15 2.61   3 2.61
                            27 2.75  31 2.75  35 2.75  21 2.75
  34  0.833  0.500  0.750-   5 2.61  17 2.61  15 2.61   3 2.61   6 2.61  18 2.61   4 2.61  16 2.61
                            28 2.75  32 2.75  36 2.75  22 2.75
  35  0.833  0.833  0.250-   2 2.61   6 2.61  14 2.61  18 2.61  13 2.61   5 2.61  17 2.61   1 2.61
                            29 2.75  33 2.75  31 2.75  23 2.75
  36  0.833  0.833  0.750-   1 2.61   5 2.61  13 2.61  17 2.61   2 2.61  14 2.61   6 2.61  18 2.61
                            30 2.75  34 2.75  32 2.75  24 2.75
 
  LATTYP: Found a simple tetragonal cell.
 ALAT       =     8.2501481662
 C/A-ratio  =     0.8428059861
  
  Lattice vectors:
  
 A1 = (   8.2501481662,   0.0000000000,   0.0000000000)
 A2 = (   0.0000000000,   8.2501481662,   0.0000000000)
 A3 = (   0.0000000000,   0.0000000000,   6.9532742610)


Analysis of symmetry for initial positions (statically):
=====================================================================
 Subroutine PRICEL returns following result:
 
  LATTYP: Found a simple tetragonal cell.
 ALAT       =     2.7500493888
 C/A-ratio  =     1.2642089792
  
  Lattice vectors:
  
 A1 = (   2.7500493888,   0.0000000000,   0.0000000000)
 A2 = (   0.0000000000,   2.7500493888,   0.0000000000)
 A3 = (   0.0000000000,   0.0000000000,   3.4766371305)
 
  18 primitive cells build up your supercell.
 

 Routine SETGRP: Setting up the symmetry group for a 
 simple tetragonal supercell.


 Subroutine GETGRP returns: Found 16 space group operations
 (whereof 16 operations were pure point group operations)
 out of a pool of 16 trial point group operations.


The static configuration has the point symmetry D_4h.


Analysis of symmetry for dynamics (positions and initial velocities):
=====================================================================
 Subroutine PRICEL returns following result:
 
  LATTYP: Found a simple tetragonal cell.
 ALAT       =     2.7500493888
 C/A-ratio  =     1.2642089792
  
  Lattice vectors:
  
 A1 = (   2.7500493888,   0.0000000000,   0.0000000000)
 A2 = (   0.0000000000,   2.7500493888,   0.0000000000)
 A3 = (   0.0000000000,   0.0000000000,   3.4766371305)
 
  18 primitive cells build up your supercell.
 

 Routine SETGRP: Setting up the symmetry group for a 
 simple tetragonal supercell.


 Subroutine GETGRP returns: Found 16 space group operations
 (whereof 16 operations were pure point group operations)
 out of a pool of 16 trial point group operations.


The dynamic configuration has the point symmetry D_4h.


Analysis of structural, dynamic, and magnetic symmetry:
=====================================================================
 Subroutine PRICEL returns:
 Original cell was already a primitive cell.
 

 Routine SETGRP: Setting up the symmetry group for a 
 simple tetragonal supercell.


 Subroutine GETGRP returns: Found  2 space group operations
 (whereof  1 operations were pure point group operations)
 out of a pool of 16 trial point group operations.


The magnetic configuration has the point symmetry C_1 .
 The point group associated with its full space group is C_1h.


 Subroutine INISYM returns: Found  2 space group operations
 (whereof  1 operations are pure point group operations),
 and found     1 'primitive' translations

 
 
 KPOINTS: automatic KPOINTS                       

Automatic generation of k-mesh.
 generate k-points for:    5    5    6
Space group operators:
 irot       det(A)        alpha          n_x          n_y          n_z        tau_x        tau_y        tau_z
    1     1.000000     0.000001     1.000000     0.000000     0.000000     0.000000     0.000000     0.000000
    2    -1.000000   179.999999     0.000000     0.000000     1.000000     0.000000     0.000000     0.500000
 
 Subroutine IBZKPT returns following result:
 ===========================================
 
 Found     52 irreducible k-points:
 
 Following reciprocal coordinates:
            Coordinates               Weight
  0.000000  0.000000  0.000000      1.000000
  0.200000  0.000000  0.000000      2.000000
  0.400000  0.000000  0.000000      2.000000
  0.000000  0.200000  0.000000      2.000000
  0.200000  0.200000  0.000000      2.000000
  0.400000  0.200000  0.000000      2.000000
 -0.400000  0.200000  0.000000      2.000000
 -0.200000  0.200000  0.000000      2.000000
  0.000000  0.400000  0.000000      2.000000
  0.200000  0.400000  0.000000      2.000000
  0.400000  0.400000  0.000000      2.000000
 -0.400000  0.400000  0.000000      2.000000
 -0.200000  0.400000  0.000000      2.000000
  0.000000  0.000000  0.166667      2.000000
  0.200000  0.000000  0.166667      4.000000
  0.400000  0.000000  0.166667      4.000000
  0.000000  0.200000  0.166667      4.000000
  0.200000  0.200000  0.166667      4.000000
  0.400000  0.200000  0.166667      4.000000
 -0.400000  0.200000  0.166667      4.000000
 -0.200000  0.200000  0.166667      4.000000
  0.000000  0.400000  0.166667      4.000000
  0.200000  0.400000  0.166667      4.000000
  0.400000  0.400000  0.166667      4.000000
 -0.400000  0.400000  0.166667      4.000000
 -0.200000  0.400000  0.166667      4.000000
  0.000000  0.000000  0.333333      2.000000
  0.200000  0.000000  0.333333      4.000000
  0.400000  0.000000  0.333333      4.000000
  0.000000  0.200000  0.333333      4.000000
  0.200000  0.200000  0.333333      4.000000
  0.400000  0.200000  0.333333      4.000000
 -0.400000  0.200000  0.333333      4.000000
 -0.200000  0.200000  0.333333      4.000000
  0.000000  0.400000  0.333333      4.000000
  0.200000  0.400000  0.333333      4.000000
  0.400000  0.400000  0.333333      4.000000
 -0.400000  0.400000  0.333333      4.000000
 -0.200000  0.400000  0.333333      4.000000
  0.000000  0.000000  0.500000      1.000000
  0.200000  0.000000  0.500000      2.000000
  0.400000  0.000000  0.500000      2.000000
  0.000000  0.200000  0.500000      2.000000
  0.200000  0.200000  0.500000      2.000000
  0.400000  0.200000  0.500000      2.000000
 -0.400000  0.200000  0.500000      2.000000
 -0.200000  0.200000  0.500000      2.000000
  0.000000  0.400000  0.500000      2.000000
  0.200000  0.400000  0.500000      2.000000
  0.400000  0.400000  0.500000      2.000000
 -0.400000  0.400000  0.500000      2.000000
 -0.200000  0.400000  0.500000      2.000000
 
 Following cartesian coordinates:
            Coordinates               Weight
  0.000000  0.000000  0.000000      1.000000
  0.024242  0.000000  0.000000      2.000000
  0.048484  0.000000  0.000000      2.000000
  0.000000  0.024242  0.000000      2.000000
  0.024242  0.024242  0.000000      2.000000
  0.048484  0.024242  0.000000      2.000000
 -0.048484  0.024242  0.000000      2.000000
 -0.024242  0.024242  0.000000      2.000000
  0.000000  0.048484  0.000000      2.000000
  0.024242  0.048484  0.000000      2.000000
  0.048484  0.048484  0.000000      2.000000
 -0.048484  0.048484  0.000000      2.000000
 -0.024242  0.048484  0.000000      2.000000
  0.000000  0.000000  0.023970      2.000000
  0.024242  0.000000  0.023970      4.000000
  0.048484  0.000000  0.023970      4.000000
  0.000000  0.024242  0.023970      4.000000
  0.024242  0.024242  0.023970      4.000000
  0.048484  0.024242  0.023970      4.000000
 -0.048484  0.024242  0.023970      4.000000
 -0.024242  0.024242  0.023970      4.000000
  0.000000  0.048484  0.023970      4.000000
  0.024242  0.048484  0.023970      4.000000
  0.048484  0.048484  0.023970      4.000000
 -0.048484  0.048484  0.023970      4.000000
 -0.024242  0.048484  0.023970      4.000000
  0.000000  0.000000  0.047939      2.000000
  0.024242  0.000000  0.047939      4.000000
  0.048484  0.000000  0.047939      4.000000
  0.000000  0.024242  0.047939      4.000000
  0.024242  0.024242  0.047939      4.000000
  0.048484  0.024242  0.047939      4.000000
 -0.048484  0.024242  0.047939      4.000000
 -0.024242  0.024242  0.047939      4.000000
  0.000000  0.048484  0.047939      4.000000
  0.024242  0.048484  0.047939      4.000000
  0.048484  0.048484  0.047939      4.000000
 -0.048484  0.048484  0.047939      4.000000
 -0.024242  0.048484  0.047939      4.000000
  0.000000  0.000000  0.071909      1.000000
  0.024242  0.000000  0.071909      2.000000
  0.048484  0.000000  0.071909      2.000000
  0.000000  0.024242  0.071909      2.000000
  0.024242  0.024242  0.071909      2.000000
  0.048484  0.024242  0.071909      2.000000
 -0.048484  0.024242  0.071909      2.000000
 -0.024242  0.024242  0.071909      2.000000
  0.000000  0.048484  0.071909      2.000000
  0.024242  0.048484  0.071909      2.000000
  0.048484  0.048484  0.071909      2.000000
 -0.048484  0.048484  0.071909      2.000000
 -0.024242  0.048484  0.071909      2.000000
 


--------------------------------------------------------------------------------------------------------




 Dimension of arrays:
   k-points           NKPTS =     52   k-points in BZ     NKDIM =     52   number of bands    NBANDS=    116
   number of dos      NEDOS =    301   number of ions     NIONS =     36
   non local maximal  LDIM  =      6   non local SUM 2l+1 LMDIM =     18
   total plane-waves  NPLWV = 139968
   max r-space proj   IRMAX =      1   max aug-charges    IRDMAX=  92271
   dimension x,y,z NGX =    54 NGY =   54 NGZ =   48
   dimension x,y,z NGXF=   108 NGYF=  108 NGZF=   96
   support grid    NGXF=   216 NGYF=  216 NGZF=  192
   ions per type =              18  18
   NGX,Y,Z   is equivalent  to a cutoff of  10.88, 10.88, 11.48 a.u.
   NGXF,Y,Z  is equivalent  to a cutoff of  21.76, 21.76, 22.95 a.u.

 SYSTEM =  AlMn_pv                                 
 POSCAR =  NewRef: 18, @ ['Mn', array([1.37502469, 

 Startparameter for this run:
   NWRITE =      2    write-flag & timer
   PREC   = accura    normal or accurate (medium, high low for compatibility)
   ISTART =      0    job   : 0-new  1-cont  2-samecut
   ICHARG =      2    charge: 1-file 2-atom 10-const
   ISPIN  =      2    spin polarized calculation?
   LNONCOLLINEAR =      F non collinear calculations
   LSORBIT =      F    spin-orbit coupling
   INIWAV =      1    electr: 0-lowe 1-rand  2-diag
   LASPH  =      F    aspherical Exc in radial PAW
   METAGGA=      F    non-selfconsistent MetaGGA calc.

 Electronic Relaxation 1
   ENCUT  =  404.8 eV  29.75 Ry    5.45 a.u.  13.53 13.53 11.41*2*pi/ulx,y,z
   ENINI  =  404.8     initial cutoff
   ENAUG  =  500.7 eV  augmentation charge cutoff
   NELM   =    100;   NELMIN=  4; NELMDL= -8     # of ELM steps 
   EDIFF  = 0.1E-06   stopping-criterion for ELM
   LREAL  =      F    real-space projection
   NLSPLINE    = F    spline interpolate recip. space projectors
   LCOMPAT=      F    compatible to vasp.4.4
   GGA_COMPAT  = T    GGA compatible to vasp.4.4-vasp.4.6
   LMAXPAW     = -100 max onsite density
   LMAXMIX     =    2 max onsite mixed and CHGCAR
   VOSKOWN=      0    Vosko Wilk Nusair interpolation
   ROPT   =    0.00000   0.00000
 Ionic relaxation
   EDIFFG = 0.1E-05   stopping-criterion for IOM
   NSW    =      0    number of steps for IOM
   NBLOCK =      1;   KBLOCK =      1    inner block; outer block 
   IBRION =     -1    ionic relax: 0-MD 1-quasi-New 2-CG
   NFREE  =      0    steps in history (QN), initial steepest desc. (CG)
   ISIF   =      2    stress and relaxation
   IWAVPR =     10    prediction:  0-non 1-charg 2-wave 3-comb
   ISYM   =      2    0-nonsym 1-usesym 2-fastsym
   LCORR  =      T    Harris-Foulkes like correction to forces

   POTIM  = 0.2000    time-step for ionic-motion
   TEIN   =    0.0    initial temperature
   TEBEG  =    0.0;   TEEND  =   0.0 temperature during run
   SMASS  =  -3.00    Nose mass-parameter (am)
   estimated Nose-frequenzy (Omega)   =  0.10E-29 period in steps =****** mass=  -0.156E-26a.u.
   SCALEE = 1.0000    scale energy and forces
   NPACO  =    256;   APACO  = 16.0  distance and # of slots for P.C.
   PSTRESS=    0.0 pullay stress

  Mass of Ions in am
   POMASS =  26.98 54.94
  Ionic Valenz
   ZVAL   =   3.00  7.00
  Atomic Wigner-Seitz radii
   RWIGS  =  -1.00 -1.00
  virtual crystal weights 
   VCA    =   1.00  1.00
   NELECT =     180.0000    total number of electrons
   NUPDOWN=      -1.0000    fix difference up-down

 DOS related values:
   EMIN   =  10.00;   EMAX   =-10.00  energy-range for DOS
   EFERMI =   0.00
   ISMEAR =     1;   SIGMA  =   0.20  broadening in eV -4-tet -1-fermi 0-gaus

 Electronic relaxation 2 (details)
   IALGO  =     58    algorithm
   LDIAG  =      T    sub-space diagonalisation (order eigenvalues)
   LSUBROT=      F    optimize rotation matrix (better conditioning)
   TURBO    =      0    0=normal 1=particle mesh
   IRESTART =      0    0=no restart 2=restart with 2 vectors
   NREBOOT  =      0    no. of reboots
   NMIN     =      0    reboot dimension
   EREF     =   0.00    reference energy to select bands
   IMIX   =      4    mixing-type and parameters
     AMIX     =   0.40;   BMIX     =  1.00
     AMIX_MAG =   1.60;   BMIX_MAG =  1.00
     AMIN     =   0.10
     WC   =   100.;   INIMIX=   1;  MIXPRE=   1;  MAXMIX= -45

 Intra band minimization:
   WEIMIN = 0.0000     energy-eigenvalue tresh-hold
   EBREAK =  0.22E-09  absolut break condition
   DEPER  =   0.30     relativ break condition  

   TIME   =   0.40     timestep for ELM

  volume/ion in A,a.u.               =      13.15        88.72
  Fermi-wavevector in a.u.,A,eV,Ry     =   1.186118  2.241439 19.141722  1.406877
  Thomas-Fermi vector in A             =   2.322298
 
 Write flags
   LWAVE        =      F    write WAVECAR
   LDOWNSAMPLE  =      F    k-point downsampling of WAVECAR
   LCHARG       =      F    write CHGCAR
   LVTOT        =      F    write LOCPOT, total local potential
   LVHAR        =      F    write LOCPOT, Hartree potential only
   LELF         =      F    write electronic localiz. function (ELF)
   LORBIT       =     10    0 simple, 1 ext, 2 COOP (PROOUT), +10 PAW based schemes


 Dipole corrections
   LMONO  =      F    monopole corrections only (constant potential shift)
   LDIPOL =      F    correct potential (dipole corrections)
   IDIPOL =      0    1-x, 2-y, 3-z, 4-all directions 
   EPSILON=  1.0000000 bulk dielectric constant

 Exchange correlation treatment:
   GGA     =    --    GGA type
   LEXCH   =     8    internal setting for exchange type
   VOSKOWN=      0    Vosko Wilk Nusair interpolation
   LHFCALC =     F    Hartree Fock is set to
   LHFONE  =     F    Hartree Fock one center treatment
   AEXX    =    0.0000 exact exchange contribution

 Linear response parameters
   LEPSILON=     F    determine dielectric tensor
   LRPA    =     F    only Hartree local field effects (RPA)
   LNABLA  =     F    use nabla operator in PAW spheres
   LVEL    =     F    velocity operator in full k-point grid
   LINTERFAST=   F  fast interpolation
   KINTER  =     0    interpolate to denser k-point grid
   CSHIFT  =0.1000    complex shift for real part using Kramers Kronig
   OMEGAMAX=  -1.0    maximum frequency
   DEG_THRESHOLD= 0.2000000E-02 threshold for treating states as degnerate
   RTIME   =   -0.100 relaxation time in fs
  (WPLASMAI=    0.000 imaginary part of plasma frequency in eV, 0.658/RTIME)
   DFIELD  = 0.0000000 0.0000000 0.0000000 field for delta impulse in time
 
 Orbital magnetization related:
   ORBITALMAG=     F  switch on orbital magnetization
   LCHIMAG   =     F  perturbation theory with respect to B field
   DQ        =  0.001000  dq finite difference perturbation B field
   LLRAUG    =     F  two centre corrections for induced B field



--------------------------------------------------------------------------------------------------------


 Static calculation
 charge density and potential will be updated during run
 spin polarized calculation
 Conjugate gradient for all bands (Freysoldt, et al. PRB 79, 241103 (2009))
 preconditioned conjugated gradient                                        
 perform sub-space diagonalisation
    before iterative eigenvector-optimisation
 modified Broyden-mixing scheme, WC =      100.0
 initial mixing is a Kerker type mixing with AMIX =  0.4000 and BMIX =      1.0000
 Hartree-type preconditioning will be used
 using additional bands           26
 reciprocal scheme for non local part
 use partial core corrections
 no Harris-corrections to forces 
 use gradient corrections 
 use of overlap-Matrix (Vanderbilt PP)
 Methfessel and Paxton  Order N= 1 SIGMA  =   0.20


--------------------------------------------------------------------------------------------------------


  energy-cutoff  :      404.80
  volume of cell :      473.27
      direct lattice vectors                 reciprocal lattice vectors
     8.250148166  0.000000000  0.000000000     0.121209944  0.000000000  0.000000000
     0.000000000  8.250148166  0.000000000     0.000000000  0.121209944  0.000000000
     0.000000000  0.000000000  6.953274261     0.000000000  0.000000000  0.143817137

  length of vectors
     8.250148166  8.250148166  6.953274261     0.121209944  0.121209944  0.143817137


 
 k-points in units of 2pi/SCALE and weight: automatic KPOINTS                       
   0.00000000  0.00000000  0.00000000       0.007
   0.02424199  0.00000000  0.00000000       0.013
   0.04848398  0.00000000  0.00000000       0.013
   0.00000000  0.02424199  0.00000000       0.013
   0.02424199  0.02424199  0.00000000       0.013
   0.04848398  0.02424199  0.00000000       0.013
  -0.04848398  0.02424199  0.00000000       0.013
  -0.02424199  0.02424199  0.00000000       0.013
   0.00000000  0.04848398  0.00000000       0.013
   0.02424199  0.04848398  0.00000000       0.013
   0.04848398  0.04848398  0.00000000       0.013
  -0.04848398  0.04848398  0.00000000       0.013
  -0.02424199  0.04848398  0.00000000       0.013
   0.00000000  0.00000000  0.02396952       0.013
   0.02424199  0.00000000  0.02396952       0.027
   0.04848398  0.00000000  0.02396952       0.027
   0.00000000  0.02424199  0.02396952       0.027
   0.02424199  0.02424199  0.02396952       0.027
   0.04848398  0.02424199  0.02396952       0.027
  -0.04848398  0.02424199  0.02396952       0.027
  -0.02424199  0.02424199  0.02396952       0.027
   0.00000000  0.04848398  0.02396952       0.027
   0.02424199  0.04848398  0.02396952       0.027
   0.04848398  0.04848398  0.02396952       0.027
  -0.04848398  0.04848398  0.02396952       0.027
  -0.02424199  0.04848398  0.02396952       0.027
   0.00000000  0.00000000  0.04793905       0.013
   0.02424199  0.00000000  0.04793905       0.027
   0.04848398  0.00000000  0.04793905       0.027
   0.00000000  0.02424199  0.04793905       0.027
   0.02424199  0.02424199  0.04793905       0.027
   0.04848398  0.02424199  0.04793905       0.027
  -0.04848398  0.02424199  0.04793905       0.027
  -0.02424199  0.02424199  0.04793905       0.027
   0.00000000  0.04848398  0.04793905       0.027
   0.02424199  0.04848398  0.04793905       0.027
   0.04848398  0.04848398  0.04793905       0.027
  -0.04848398  0.04848398  0.04793905       0.027
  -0.02424199  0.04848398  0.04793905       0.027
   0.00000000  0.00000000  0.07190857       0.007
   0.02424199  0.00000000  0.07190857       0.013
   0.04848398  0.00000000  0.07190857       0.013
   0.00000000  0.02424199  0.07190857       0.013
   0.02424199  0.02424199  0.07190857       0.013
   0.04848398  0.02424199  0.07190857       0.013
  -0.04848398  0.02424199  0.07190857       0.013
  -0.02424199  0.02424199  0.07190857       0.013
   0.00000000  0.04848398  0.07190857       0.013
   0.02424199  0.04848398  0.07190857       0.013
   0.04848398  0.04848398  0.07190857       0.013
  -0.04848398  0.04848398  0.07190857       0.013
  -0.02424199  0.04848398  0.07190857       0.013
 
 k-points in reciprocal lattice and weights: automatic KPOINTS                       
   0.00000000  0.00000000  0.00000000       0.007
   0.20000000  0.00000000  0.00000000       0.013
   0.40000000  0.00000000  0.00000000       0.013
   0.00000000  0.20000000  0.00000000       0.013
   0.20000000  0.20000000  0.00000000       0.013
   0.40000000  0.20000000  0.00000000       0.013
  -0.40000000  0.20000000  0.00000000       0.013
  -0.20000000  0.20000000  0.00000000       0.013
   0.00000000  0.40000000  0.00000000       0.013
   0.20000000  0.40000000  0.00000000       0.013
   0.40000000  0.40000000  0.00000000       0.013
  -0.40000000  0.40000000  0.00000000       0.013
  -0.20000000  0.40000000  0.00000000       0.013
   0.00000000  0.00000000  0.16666667       0.013
   0.20000000  0.00000000  0.16666667       0.027
   0.40000000  0.00000000  0.16666667       0.027
   0.00000000  0.20000000  0.16666667       0.027
   0.20000000  0.20000000  0.16666667       0.027
   0.40000000  0.20000000  0.16666667       0.027
  -0.40000000  0.20000000  0.16666667       0.027
  -0.20000000  0.20000000  0.16666667       0.027
   0.00000000  0.40000000  0.16666667       0.027
   0.20000000  0.40000000  0.16666667       0.027
   0.40000000  0.40000000  0.16666667       0.027
  -0.40000000  0.40000000  0.16666667       0.027
  -0.20000000  0.40000000  0.16666667       0.027
   0.00000000  0.00000000  0.33333333       0.013
   0.20000000  0.00000000  0.33333333       0.027
   0.40000000  0.00000000  0.33333333       0.027
   0.00000000  0.20000000  0.33333333       0.027
   0.20000000  0.20000000  0.33333333       0.027
   0.40000000  0.20000000  0.33333333       0.027
  -0.40000000  0.20000000  0.33333333       0.027
  -0.20000000  0.20000000  0.33333333       0.027
   0.00000000  0.40000000  0.33333333       0.027
   0.20000000  0.40000000  0.33333333       0.027
   0.40000000  0.40000000  0.33333333       0.027
  -0.40000000  0.40000000  0.33333333       0.027
  -0.20000000  0.40000000  0.33333333       0.027
   0.00000000  0.00000000  0.50000000       0.007
   0.20000000  0.00000000  0.50000000       0.013
   0.40000000  0.00000000  0.50000000       0.013
   0.00000000  0.20000000  0.50000000       0.013
   0.20000000  0.20000000  0.50000000       0.013
   0.40000000  0.20000000  0.50000000       0.013
  -0.40000000  0.20000000  0.50000000       0.013
  -0.20000000  0.20000000  0.50000000       0.013
   0.00000000  0.40000000  0.50000000       0.013
   0.20000000  0.40000000  0.50000000       0.013
   0.40000000  0.40000000  0.50000000       0.013
  -0.40000000  0.40000000  0.50000000       0.013
  -0.20000000  0.40000000  0.50000000       0.013
 
 position of ions in fractional coordinates (direct lattice) 
   0.00000000  0.00000000  0.00000000
   0.00000000  0.00000000  0.50000000
   0.00000000  0.33333333  0.00000000
   0.00000000  0.33333333  0.50000000
   0.00000000  0.66666667  0.00000000
   0.00000000  0.66666667  0.50000000
   0.33333333  0.00000000  0.00000000
   0.33333333  0.00000000  0.50000000
   0.33333333  0.33333333  0.00000000
   0.33333333  0.33333333  0.50000000
   0.33333333  0.66666667  0.00000000
   0.33333333  0.66666667  0.50000000
   0.66666667  0.00000000  0.00000000
   0.66666667  0.00000000  0.50000000
   0.66666667  0.33333333  0.00000000
   0.66666667  0.33333333  0.50000000
   0.66666667  0.66666667  0.00000000
   0.66666667  0.66666667  0.50000000
   0.16666667  0.16666667  0.25000000
   0.16666667  0.16666667  0.75000000
   0.16666667  0.50000000  0.25000000
   0.16666667  0.50000000  0.75000000
   0.16666667  0.83333333  0.25000000
   0.16666667  0.83333333  0.75000000
   0.50000000  0.16666667  0.25000000
   0.50000000  0.16666667  0.75000000
   0.50000000  0.50000000  0.25000000
   0.50000000  0.50000000  0.75000000
   0.50000000  0.83333333  0.25000000
   0.50000000  0.83333333  0.75000000
   0.83333333  0.16666667  0.25000000
   0.83333333  0.16666667  0.75000000
   0.83333333  0.50000000  0.25000000
   0.83333333  0.50000000  0.75000000
   0.83333333  0.83333333  0.25000000
   0.83333333  0.83333333  0.75000000
 
 position of ions in cartesian coordinates  (Angst):
   0.00000000  0.00000000  0.00000000
   0.00000000  0.00000000  3.47663713
   0.00000000  2.75004939  0.00000000
   0.00000000  2.75004939  3.47663713
   0.00000000  5.50009878  0.00000000
   0.00000000  5.50009878  3.47663713
   2.75004939  0.00000000  0.00000000
   2.75004939  0.00000000  3.47663713
   2.75004939  2.75004939  0.00000000
   2.75004939  2.75004939  3.47663713
   2.75004939  5.50009878  0.00000000
   2.75004939  5.50009878  3.47663713
   5.50009878  0.00000000  0.00000000
   5.50009878  0.00000000  3.47663713
   5.50009878  2.75004939  0.00000000
   5.50009878  2.75004939  3.47663713
   5.50009878  5.50009878  0.00000000
   5.50009878  5.50009878  3.47663713
   1.37502469  1.37502469  1.73831857
   1.37502469  1.37502469  5.21495570
   1.37502469  4.12507408  1.73831857
   1.37502469  4.12507408  5.21495570
   1.37502469  6.87512347  1.73831857
   1.37502469  6.87512347  5.21495570
   4.12507408  1.37502469  1.73831857
   4.12507408  1.37502469  5.21495570
   4.12507408  4.12507408  1.73831857
   4.12507408  4.12507408  5.21495570
   4.12507408  6.87512347  1.73831857
   4.12507408  6.87512347  5.21495570
   6.87512347  1.37502469  1.73831857
   6.87512347  1.37502469  5.21495570
   6.87512347  4.12507408  1.73831857
   6.87512347  4.12507408  5.21495570
   6.87512347  6.87512347  1.73831857
   6.87512347  6.87512347  5.21495570
 


--------------------------------------------------------------------------------------------------------


 k-point  1 :   0.0000 0.0000 0.0000  plane waves:    8799
 k-point  2 :   0.2000 0.0000 0.0000  plane waves:    8753
 k-point  3 :   0.4000 0.0000 0.0000  plane waves:    8757
 k-point  4 :   0.0000 0.2000 0.0000  plane waves:    8753
 k-point  5 :   0.2000 0.2000 0.0000  plane waves:    8767
 k-point  6 :   0.4000 0.2000 0.0000  plane waves:    8761
 k-point  7 :  -0.4000 0.2000 0.0000  plane waves:    8761
 k-point  8 :  -0.2000 0.2000 0.0000  plane waves:    8767
 k-point  9 :   0.0000 0.4000 0.0000  plane waves:    8757
 k-point 10 :   0.2000 0.4000 0.0000  plane waves:    8761
 k-point 11 :   0.4000 0.4000 0.0000  plane waves:    8731
 k-point 12 :  -0.4000 0.4000 0.0000  plane waves:    8731
 k-point 13 :  -0.2000 0.4000 0.0000  plane waves:    8761
 k-point 14 :   0.0000 0.0000 0.1667  plane waves:    8763
 k-point 15 :   0.2000 0.0000 0.1667  plane waves:    8771
 k-point 16 :   0.4000 0.0000 0.1667  plane waves:    8747
 k-point 17 :   0.0000 0.2000 0.1667  plane waves:    8771
 k-point 18 :   0.2000 0.2000 0.1667  plane waves:    8764
 k-point 19 :   0.4000 0.2000 0.1667  plane waves:    8768
 k-point 20 :  -0.4000 0.2000 0.1667  plane waves:    8768
 k-point 21 :  -0.2000 0.2000 0.1667  plane waves:    8764
 k-point 22 :   0.0000 0.4000 0.1667  plane waves:    8747
 k-point 23 :   0.2000 0.4000 0.1667  plane waves:    8768
 k-point 24 :   0.4000 0.4000 0.1667  plane waves:    8740
 k-point 25 :  -0.4000 0.4000 0.1667  plane waves:    8740
 k-point 26 :  -0.2000 0.4000 0.1667  plane waves:    8768
 k-point 27 :   0.0000 0.0000 0.3333  plane waves:    8743
 k-point 28 :   0.2000 0.0000 0.3333  plane waves:    8736
 k-point 29 :   0.4000 0.0000 0.3333  plane waves:    8753
 k-point 30 :   0.0000 0.2000 0.3333  plane waves:    8736
 k-point 31 :   0.2000 0.2000 0.3333  plane waves:    8753
 k-point 32 :   0.4000 0.2000 0.3333  plane waves:    8743
 k-point 33 :  -0.4000 0.2000 0.3333  plane waves:    8743
 k-point 34 :  -0.2000 0.2000 0.3333  plane waves:    8753
 k-point 35 :   0.0000 0.4000 0.3333  plane waves:    8753
 k-point 36 :   0.2000 0.4000 0.3333  plane waves:    8743
 k-point 37 :   0.4000 0.4000 0.3333  plane waves:    8755
 k-point 38 :  -0.4000 0.4000 0.3333  plane waves:    8755
 k-point 39 :  -0.2000 0.4000 0.3333  plane waves:    8743
 k-point 40 :   0.0000 0.0000 0.5000  plane waves:    8742
 k-point 41 :   0.2000 0.0000 0.5000  plane waves:    8756
 k-point 42 :   0.4000 0.0000 0.5000  plane waves:    8744
 k-point 43 :   0.0000 0.2000 0.5000  plane waves:    8756
 k-point 44 :   0.2000 0.2000 0.5000  plane waves:    8762
 k-point 45 :   0.4000 0.2000 0.5000  plane waves:    8732
 k-point 46 :  -0.4000 0.2000 0.5000  plane waves:    8732
 k-point 47 :  -0.2000 0.2000 0.5000  plane waves:    8762
 k-point 48 :   0.0000 0.4000 0.5000  plane waves:    8744
 k-point 49 :   0.2000 0.4000 0.5000  plane waves:    8732
 k-point 50 :   0.4000 0.4000 0.5000  plane waves:    8736
 k-point 51 :  -0.4000 0.4000 0.5000  plane waves:    8736
 k-point 52 :  -0.2000 0.4000 0.5000  plane waves:    8732

 maximum and minimum number of plane-waves per node :      2210     2164

 maximum number of plane-waves:      8799
 maximum index in each direction: 
   IXMAX=   13   IYMAX=   13   IZMAX=   11
   IXMIN=  -13   IYMIN=  -13   IZMIN=  -11


 parallel 3D FFT for wavefunctions:
    minimum data exchange during FFTs selected (reduces bandwidth)
 parallel 3D FFT for charge:
    minimum data exchange during FFTs selected (reduces bandwidth)


 total amount of memory used by VASP MPI-rank0   775081. kBytes
=======================================================================

   base      :      30000. kBytes
   nonl-proj :      34307. kBytes
   fftplans  :      21726. kBytes
   grid      :      14732. kBytes
   one-center:        279. kBytes
   wavefun   :     674037. kBytes
 
     INWAV:  cpu time    0.0001: real time    0.0001
 Broyden mixing: mesh for mixing (old mesh)
   NGX = 27   NGY = 27   NGZ = 23
  (NGX  =108   NGY  =108   NGZ  = 96)
  gives a total of  16767 points

 initial charge density was supplied:
 charge density of overlapping atoms calculated
 number of electron     180.0000000 magnetization      12.0000000
 keeping initial charge density in first step


--------------------------------------------------------------------------------------------------------


 Maximum index for augmentation-charges        11261 (set IRDMAX)


--------------------------------------------------------------------------------------------------------


 First call to EWALD:  gamma=   0.227
 Maximum number of real-space cells 3x 3x 3
 Maximum number of reciprocal cells 3x 3x 3

    FEWALD:  cpu time    0.0023: real time    0.0023


--------------------------------------- Iteration      1(   1)  ---------------------------------------


    POTLOK:  cpu time    0.2517: real time    0.2517
    SETDIJ:  cpu time    0.3148: real time    0.3216
    TRIAL :  cpu time   19.8881: real time   20.2935
    CORREC:  cpu time    0.0066: real time    0.0066
    --------------------------------------------
      LOOP:  cpu time   20.6376: real time   21.1160

 eigenvalue-minimisations  : 24128
 total energy-change (2. order) : 0.1339833E+04  (-0.5922430E+04)
 number of electron     180.0000000 magnetization      12.0000000
 augmentation part      180.0000000 magnetization      12.0000000

 Free energy of the ion-electron system (eV)
  ---------------------------------------------------
  alpha Z        PSCENC =       532.25742704
  Ewald energy   TEWEN  =     -8601.05107233
  -Hartree energ DENC   =     -1903.73857242
  -exchange      EXHF   =         0.00000000
  -V(xc)+E(xc)   XCENC  =      -664.50401245
  PAW double counting   =      8494.55058411    -7650.81563588
  entropy T*S    EENTRO =         0.00132731
  eigenvalues    EBANDS =      2668.01681813
  atomic energy  EATOM  =      8465.11600846
  ---------------------------------------------------
  free energy    TOTEN  =      1339.83287197 eV

  energy without entropy =     1339.83154466  energy(sigma->0) =     1339.83242954


--------------------------------------------------------------------------------------------------------




--------------------------------------- Iteration      1(   2)  ---------------------------------------


    TRIAL :  cpu time   19.2393: real time   19.5538
    CORREC:  cpu time    0.0085: real time    0.0094
    --------------------------------------------
      LOOP:  cpu time   19.2512: real time   19.5667

 eigenvalue-minimisations  : 24128
 total energy-change (2. order) :-0.1411546E+04  (-0.1371756E+04)
 number of electron     180.0000000 magnetization      12.0000000
 augmentation part      180.0000000 magnetization      12.0000000

 Free energy of the ion-electron system (eV)
  ---------------------------------------------------
  alpha Z        PSCENC =       532.25742704
  Ewald energy   TEWEN  =     -8601.05107233
  -Hartree energ DENC   =     -1903.73857242
  -exchange      EXHF   =         0.00000000
  -V(xc)+E(xc)   XCENC  =      -664.50401245
  PAW double counting   =      8494.55058411    -7650.81563588
  entropy T*S    EENTRO =         0.00488476
  eigenvalues    EBANDS =      1256.46770878
  atomic energy  EATOM  =      8465.11600846
  ---------------------------------------------------
  free energy    TOTEN  =       -71.71267993 eV

  energy without entropy =      -71.71756469  energy(sigma->0) =      -71.71430818


--------------------------------------------------------------------------------------------------------




--------------------------------------- Iteration      1(   3)  ---------------------------------------


    TRIAL :  cpu time   26.8449: real time   27.3576
    CORREC:  cpu time    0.0098: real time    0.0098
    --------------------------------------------
      LOOP:  cpu time   26.8555: real time   27.3703

 eigenvalue-minimisations  : 36492
 total energy-change (2. order) :-0.1682834E+03  (-0.1488809E+03)
 number of electron     180.0000000 magnetization      12.0000000
 augmentation part      180.0000000 magnetization      12.0000000

 Free energy of the ion-electron system (eV)
  ---------------------------------------------------
  alpha Z        PSCENC =       532.25742704
  Ewald energy   TEWEN  =     -8601.05107233
  -Hartree energ DENC   =     -1903.73857242
  -exchange      EXHF   =         0.00000000
  -V(xc)+E(xc)   XCENC  =      -664.50401245
  PAW double counting   =      8494.55058411    -7650.81563588
  entropy T*S    EENTRO =        -0.00066714
  eigenvalues    EBANDS =      1088.18988412
  atomic energy  EATOM  =      8465.11600846
  ---------------------------------------------------
  free energy    TOTEN  =      -239.99605649 eV

  energy without entropy =     -239.99538934  energy(sigma->0) =     -239.99583411


--------------------------------------------------------------------------------------------------------




--------------------------------------- Iteration      1(   4)  ---------------------------------------


    TRIAL :  cpu time   28.1130: real time   29.1104
    CORREC:  cpu time    0.0101: real time    0.0109
    --------------------------------------------
      LOOP:  cpu time   28.1243: real time   29.1241

 eigenvalue-minimisations  : 39088
 total energy-change (2. order) :-0.2582729E+02  (-0.2256157E+02)
 number of electron     180.0000000 magnetization      12.0000000
 augmentation part      180.0000000 magnetization      12.0000000

 Free energy of the ion-electron system (eV)
  ---------------------------------------------------
  alpha Z        PSCENC =       532.25742704
  Ewald energy   TEWEN  =     -8601.05107233
  -Hartree energ DENC   =     -1903.73857242
  -exchange      EXHF   =         0.00000000
  -V(xc)+E(xc)   XCENC  =      -664.50401245
  PAW double counting   =      8494.55058411    -7650.81563588
  entropy T*S    EENTRO =         0.02002558
  eigenvalues    EBANDS =      1062.34190510
  atomic energy  EATOM  =      8465.11600846
  ---------------------------------------------------
  free energy    TOTEN  =      -265.82334279 eV

  energy without entropy =     -265.84336837  energy(sigma->0) =     -265.83001798


--------------------------------------------------------------------------------------------------------




--------------------------------------- Iteration      1(   5)  ---------------------------------------


    TRIAL :  cpu time   29.1308: real time   29.3185
    CORREC:  cpu time    0.0103: real time    0.0104
    --------------------------------------------
      LOOP:  cpu time   29.1421: real time   29.3318

 eigenvalue-minimisations  : 39904
 total energy-change (2. order) :-0.2651320E+01  (-0.2511633E+01)
 number of electron     180.0000000 magnetization      12.0000000
 augmentation part      180.0000000 magnetization      12.0000000

 Free energy of the ion-electron system (eV)
  ---------------------------------------------------
  alpha Z        PSCENC =       532.25742704
  Ewald energy   TEWEN  =     -8601.05107233
  -Hartree energ DENC   =     -1903.73857242
  -exchange      EXHF   =         0.00000000
  -V(xc)+E(xc)   XCENC  =      -664.50401245
  PAW double counting   =      8494.55058411    -7650.81563588
  entropy T*S    EENTRO =         0.02432591
  eigenvalues    EBANDS =      1059.68628463
  atomic energy  EATOM  =      8465.11600846
  ---------------------------------------------------
  free energy    TOTEN  =      -268.47466294 eV

  energy without entropy =     -268.49898884  energy(sigma->0) =     -268.48277157


--------------------------------------------------------------------------------------------------------




--------------------------------------- Iteration      1(   6)  ---------------------------------------


    TRIAL :  cpu time   28.5476: real time   29.4141
    CORREC:  cpu time    0.0105: real time    0.0113
    --------------------------------------------
      LOOP:  cpu time   28.5610: real time   29.4285

 eigenvalue-minimisations  : 39760
 total energy-change (2. order) :-0.2124508E+00  (-0.2080569E+00)
 number of electron     180.0000000 magnetization      12.0000000
 augmentation part      180.0000000 magnetization      12.0000000

 Free energy of the ion-electron system (eV)
  ---------------------------------------------------
  alpha Z        PSCENC =       532.25742704
  Ewald energy   TEWEN  =     -8601.05107233
  -Hartree energ DENC   =     -1903.73857242
  -exchange      EXHF   =         0.00000000
  -V(xc)+E(xc)   XCENC  =      -664.50401245
  PAW double counting   =      8494.55058411    -7650.81563588
  entropy T*S    EENTRO =         0.02422336
  eigenvalues    EBANDS =      1059.47393635
  atomic energy  EATOM  =      8465.11600846
  ---------------------------------------------------
  free energy    TOTEN  =      -268.68711376 eV

  energy without entropy =     -268.71133712  energy(sigma->0) =     -268.69518821


--------------------------------------------------------------------------------------------------------




--------------------------------------- Iteration      1(   7)  ---------------------------------------


    TRIAL :  cpu time   29.9827: real time   30.1974
    CORREC:  cpu time    0.0104: real time    0.0105
    --------------------------------------------
      LOOP:  cpu time   29.9942: real time   30.2107

 eigenvalue-minimisations  : 40512
 total energy-change (2. order) :-0.2207863E-01  (-0.2188013E-01)
 number of electron     180.0000000 magnetization      12.0000000
 augmentation part      180.0000000 magnetization      12.0000000

 Free energy of the ion-electron system (eV)
  ---------------------------------------------------
  alpha Z        PSCENC =       532.25742704
  Ewald energy   TEWEN  =     -8601.05107233
  -Hartree energ DENC   =     -1903.73857242
  -exchange      EXHF   =         0.00000000
  -V(xc)+E(xc)   XCENC  =      -664.50401245
  PAW double counting   =      8494.55058411    -7650.81563588
  entropy T*S    EENTRO =         0.02428486
  eigenvalues    EBANDS =      1059.45179622
  atomic energy  EATOM  =      8465.11600846
  ---------------------------------------------------
  free energy    TOTEN  =      -268.70919239 eV

  energy without entropy =     -268.73347725  energy(sigma->0) =     -268.71728734


--------------------------------------------------------------------------------------------------------




--------------------------------------- Iteration      1(   8)  ---------------------------------------


    TRIAL :  cpu time   28.1155: real time   28.9838
    CORREC:  cpu time    0.0103: real time    0.0111
    CHARGE:  cpu time    1.1029: real time    1.1118
    --------------------------------------------
      LOOP:  cpu time   29.2297: real time   30.1101

 eigenvalue-minimisations  : 39008
 total energy-change (2. order) :-0.1593364E-02  (-0.1584231E-02)
 number of electron     179.9999997 magnetization       8.4464718
 augmentation part       42.7542806 magnetization       4.9313592

 Free energy of the ion-electron system (eV)
  ---------------------------------------------------
  alpha Z        PSCENC =       532.25742704
  Ewald energy   TEWEN  =     -8601.05107233
  -Hartree energ DENC   =     -1903.73857242
  -exchange      EXHF   =         0.00000000
  -V(xc)+E(xc)   XCENC  =      -664.50401245
  PAW double counting   =      8494.55058411    -7650.81563588
  entropy T*S    EENTRO =         0.02431925
  eigenvalues    EBANDS =      1059.45016846
  atomic energy  EATOM  =      8465.11600846
  ---------------------------------------------------
  free energy    TOTEN  =      -268.71078575 eV

  energy without entropy =     -268.73510501  energy(sigma->0) =     -268.71889217


--------------------------------------------------------------------------------------------------------




--------------------------------------- Iteration      1(   9)  ---------------------------------------


    POTLOK:  cpu time    0.2504: real time    0.2504
    SETDIJ:  cpu time    0.3219: real time    0.3219
    TRIAL :  cpu time    9.5835: real time    9.7084
    CORREC:  cpu time    3.5069: real time    3.5081
    CHARGE:  cpu time    1.8655: real time    1.8701
    --------------------------------------------
      LOOP:  cpu time   15.5494: real time   15.6806

 eigenvalue-minimisations  :     0
 total energy-change (2. order) : 0.2035771E+03  (-0.1412333E+03)
 number of electron     179.9999997 magnetization       9.2726022
 augmentation part       54.1749793 magnetization       5.9816427

 Free energy of the ion-electron system (eV)
  ---------------------------------------------------
  alpha Z        PSCENC =       532.25742704
  Ewald energy   TEWEN  =     -8601.05107233
  -Hartree energ DENC   =      -850.57085587
  -exchange      EXHF   =         0.00000000
  -V(xc)+E(xc)   XCENC  =      -695.02873377
  PAW double counting   =     12768.12669092   -11821.90494885
  entropy T*S    EENTRO =        -0.00020695
  eigenvalues    EBANDS =       137.89745149
  atomic energy  EATOM  =      8465.11600846
  ---------------------------------------------------
  free energy    TOTEN  =       -65.13371366 eV

  energy without entropy =      -65.13350671  energy(sigma->0) =      -65.13364468


--------------------------------------------------------------------------------------------------------




--------------------------------------- Iteration      1(  10)  ---------------------------------------


    POTLOK:  cpu time    0.2461: real time    0.2461
    SETDIJ:  cpu time    0.3751: real time    0.3753
    TRIAL :  cpu time    9.6003: real time    9.6421
    CORREC:  cpu time    4.3286: real time    4.3479
    CHARGE:  cpu time    1.0973: real time    1.0976
    --------------------------------------------
      LOOP:  cpu time   15.6494: real time   15.7115

 eigenvalue-minimisations  :     0
 total energy-change (2. order) :-0.1421645E+03  (-0.1070503E+02)
 number of electron     179.9999996 magnetization       9.2646710
 augmentation part       57.4460007 magnetization       6.2290792

 Free energy of the ion-electron system (eV)
  ---------------------------------------------------
  alpha Z        PSCENC =       532.25742704
  Ewald energy   TEWEN  =     -8601.05107233
  -Hartree energ DENC   =     -1364.44985749
  -exchange      EXHF   =         0.00000000
  -V(xc)+E(xc)   XCENC  =      -677.32939673
  PAW double counting   =     13564.73928677   -12730.23114792
  entropy T*S    EENTRO =        -0.00625192
  eigenvalues    EBANDS =       603.65074765
  atomic energy  EATOM  =      8465.11600846
  ---------------------------------------------------
  free energy    TOTEN  =      -207.29821151 eV

  energy without entropy =     -207.29195959  energy(sigma->0) =     -207.29612754


--------------------------------------------------------------------------------------------------------




--------------------------------------- Iteration      1(  11)  ---------------------------------------


    POTLOK:  cpu time    0.2469: real time    0.2469
    SETDIJ:  cpu time    0.3264: real time    0.3264
    TRIAL :  cpu time    9.5715: real time    9.6958
    CORREC:  cpu time    3.5370: real time    4.1987
    CHARGE:  cpu time    1.1935: real time    1.1937
    --------------------------------------------
      LOOP:  cpu time   14.8797: real time   15.6659

 eigenvalue-minimisations  :     0
 total energy-change (2. order) :-0.1068945E+02  (-0.7716614E+01)
 number of electron     179.9999996 magnetization       9.6724553
 augmentation part       59.0955892 magnetization       6.6050397

 Free energy of the ion-electron system (eV)
  ---------------------------------------------------
  alpha Z        PSCENC =       532.25742704
  Ewald energy   TEWEN  =     -8601.05107233
  -Hartree energ DENC   =     -1548.51283786
  -exchange      EXHF   =         0.00000000
  -V(xc)+E(xc)   XCENC  =      -670.68365482
  PAW double counting   =     14324.99853291   -13524.44458299
  entropy T*S    EENTRO =        -0.00622303
  eigenvalues    EBANDS =       804.33877468
  atomic energy  EATOM  =      8465.11600846
  ---------------------------------------------------
  free energy    TOTEN  =      -217.98765684 eV

  energy without entropy =     -217.98143381  energy(sigma->0) =     -217.98558250


--------------------------------------------------------------------------------------------------------




--------------------------------------- Iteration      1(  12)  ---------------------------------------


    POTLOK:  cpu time    0.2463: real time    0.2462
    SETDIJ:  cpu time    0.3244: real time    0.3243
    TRIAL :  cpu time    9.5802: real time    9.6080
    CORREC:  cpu time    3.5154: real time    3.5447
    CHARGE:  cpu time    1.0983: real time    1.0986
    --------------------------------------------
      LOOP:  cpu time   14.7682: real time   14.8256

 eigenvalue-minimisations  :     0
 total energy-change (2. order) :-0.7706057E+01  (-0.7524973E+01)
 number of electron     179.9999997 magnetization       9.6467131
 augmentation part       58.4038941 magnetization       6.6657999

 Free energy of the ion-electron system (eV)
  ---------------------------------------------------
  alpha Z        PSCENC =       532.25742704
  Ewald energy   TEWEN  =     -8601.05107233
  -Hartree energ DENC   =     -1686.34459181
  -exchange      EXHF   =         0.00000000
  -V(xc)+E(xc)   XCENC  =      -665.98636731
  PAW double counting   =     14458.63963349   -13664.86474765
  entropy T*S    EENTRO =         0.00503898
  eigenvalues    EBANDS =       936.54621939
  atomic energy  EATOM  =      8465.11600846
  ---------------------------------------------------
  free energy    TOTEN  =      -225.69371376 eV

  energy without entropy =     -225.69875274  energy(sigma->0) =     -225.69539342


--------------------------------------------------------------------------------------------------------




--------------------------------------- Iteration      1(  13)  ---------------------------------------


    POTLOK:  cpu time    0.2468: real time    0.2468
    SETDIJ:  cpu time    0.3267: real time    0.3267
    TRIAL :  cpu time    9.5822: real time    9.7196
    CORREC:  cpu time    4.1306: real time    4.1409
    CHARGE:  cpu time    1.1453: real time    1.1537
    --------------------------------------------
      LOOP:  cpu time   15.4390: real time   15.5956

 eigenvalue-minimisations  :     0
 total energy-change (2. order) :-0.7455551E+01  (-0.1073374E+01)
 number of electron     179.9999997 magnetization       9.6232281
 augmentation part       57.5284947 magnetization       6.6157344

 Free energy of the ion-electron system (eV)
  ---------------------------------------------------
  alpha Z        PSCENC =       532.25742704
  Ewald energy   TEWEN  =     -8601.05107233
  -Hartree energ DENC   =     -1708.71665130
  -exchange      EXHF   =         0.00000000
  -V(xc)+E(xc)   XCENC  =      -665.62033351
  PAW double counting   =     14178.91731085   -13360.28412051
  entropy T*S    EENTRO =         0.00727224
  eigenvalues    EBANDS =       926.22712770
  atomic energy  EATOM  =      8465.11600846
  ---------------------------------------------------
  free energy    TOTEN  =      -233.14926463 eV

  energy without entropy =     -233.15653686  energy(sigma->0) =     -233.15168870


--------------------------------------------------------------------------------------------------------




--------------------------------------- Iteration      1(  14)  ---------------------------------------


    POTLOK:  cpu time    0.2476: real time    0.2479
    SETDIJ:  cpu time    0.3206: real time    0.3206
    TRIAL :  cpu time   10.3081: real time   10.3672
    CORREC:  cpu time    3.5247: real time    3.5257
    CHARGE:  cpu time    1.0955: real time    1.0994
    --------------------------------------------
      LOOP:  cpu time   15.5152: real time   15.5797

 eigenvalue-minimisations  :     0
 total energy-change (2. order) :-0.1056374E+01  (-0.6310385E+00)
 number of electron     179.9999997 magnetization       9.6550149
 augmentation part       57.2625915 magnetization       6.5764216

 Free energy of the ion-electron system (eV)
  ---------------------------------------------------
  alpha Z        PSCENC =       532.25742704
  Ewald energy   TEWEN  =     -8601.05107233
  -Hartree energ DENC   =     -1665.83862245
  -exchange      EXHF   =         0.00000000
  -V(xc)+E(xc)   XCENC  =      -667.21512960
  PAW double counting   =     13907.17180322   -13075.24485182
  entropy T*S    EENTRO =         0.00944394
  eigenvalues    EBANDS =       870.59152710
  atomic energy  EATOM  =      8465.11600846
  ---------------------------------------------------
  free energy    TOTEN  =      -234.20563815 eV

  energy without entropy =     -234.21508209  energy(sigma->0) =     -234.20878613


--------------------------------------------------------------------------------------------------------




--------------------------------------- Iteration      1(  15)  ---------------------------------------


    POTLOK:  cpu time    0.2465: real time    0.2466
    SETDIJ:  cpu time    0.3450: real time    0.3450
    TRIAL :  cpu time    9.8403: real time   10.5976
    CORREC:  cpu time    3.5810: real time    3.5837
    CHARGE:  cpu time    1.0962: real time    1.0974
    --------------------------------------------
      LOOP:  cpu time   15.1108: real time   15.8737

 eigenvalue-minimisations  :     0
 total energy-change (2. order) :-0.6290833E+00  (-0.6607416E+00)
 number of electron     179.9999996 magnetization       9.6224111
 augmentation part       57.7153459 magnetization       6.5525833

 Free energy of the ion-electron system (eV)
  ---------------------------------------------------
  alpha Z        PSCENC =       532.25742704
  Ewald energy   TEWEN  =     -8601.05107233
  -Hartree energ DENC   =     -1645.28611416
  -exchange      EXHF   =         0.00000000
  -V(xc)+E(xc)   XCENC  =      -667.87859091
  PAW double counting   =     13514.64464956   -12677.13467664
  entropy T*S    EENTRO =         0.01451950
  eigenvalues    EBANDS =       844.48820362
  atomic energy  EATOM  =      8465.11600846
  ---------------------------------------------------
  free energy    TOTEN  =      -234.83472142 eV

  energy without entropy =     -234.84924092  energy(sigma->0) =     -234.83956125


--------------------------------------------------------------------------------------------------------




--------------------------------------- Iteration      1(  16)  ---------------------------------------


    POTLOK:  cpu time    0.2460: real time    0.2460
    SETDIJ:  cpu time    0.3238: real time    0.3238
    TRIAL :  cpu time    9.5929: real time    9.6645
    CORREC:  cpu time    3.4887: real time    3.4909
    CHARGE:  cpu time    1.1027: real time    1.1031
    --------------------------------------------
      LOOP:  cpu time   14.7564: real time   14.8328

 eigenvalue-minimisations  :     0
 total energy-change (2. order) :-0.6581959E+00  (-0.1697323E+00)
 number of electron     179.9999996 magnetization       9.5960667
 augmentation part       58.0814779 magnetization       6.5745611

 Free energy of the ion-electron system (eV)
  ---------------------------------------------------
  alpha Z        PSCENC =       532.25742704
  Ewald energy   TEWEN  =     -8601.05107233
  -Hartree energ DENC   =     -1657.61993557
  -exchange      EXHF   =         0.00000000
  -V(xc)+E(xc)   XCENC  =      -667.28289393
  PAW double counting   =     13112.18538959   -12277.02311272
  entropy T*S    EENTRO =         0.01602214
  eigenvalues    EBANDS =       857.91075266
  atomic energy  EATOM  =      8465.11600846
  ---------------------------------------------------
  free energy    TOTEN  =      -235.49291730 eV

  energy without entropy =     -235.50893944  energy(sigma->0) =     -235.49825802


--------------------------------------------------------------------------------------------------------




--------------------------------------- Iteration      1(  17)  ---------------------------------------


    POTLOK:  cpu time    0.2461: real time    0.2461
    SETDIJ:  cpu time    0.3409: real time    0.3409
    TRIAL :  cpu time    9.5977: real time    9.7238
    CORREC:  cpu time    4.1794: real time    4.2044
    CHARGE:  cpu time    1.1083: real time    1.1087
    --------------------------------------------
      LOOP:  cpu time   15.5368: real time   15.6887

 eigenvalue-minimisations  :     0
 total energy-change (2. order) :-0.1695748E+00  (-0.1463995E+00)
 number of electron     179.9999996 magnetization       9.6229845
 augmentation part       58.2657531 magnetization       6.6321692

 Free energy of the ion-electron system (eV)
  ---------------------------------------------------
  alpha Z        PSCENC =       532.25742704
  Ewald energy   TEWEN  =     -8601.05107233
  -Hartree energ DENC   =     -1673.46151477
  -exchange      EXHF   =         0.00000000
  -V(xc)+E(xc)   XCENC  =      -666.59995586
  PAW double counting   =     13042.87987899   -12211.41146979
  entropy T*S    EENTRO =         0.01861587
  eigenvalues    EBANDS =       876.59218398
  atomic energy  EATOM  =      8465.11600846
  ---------------------------------------------------
  free energy    TOTEN  =      -235.66249215 eV

  energy without entropy =     -235.68110803  energy(sigma->0) =     -235.66869744


--------------------------------------------------------------------------------------------------------




--------------------------------------- Iteration      1(  18)  ---------------------------------------


    POTLOK:  cpu time    0.2478: real time    0.2478
    SETDIJ:  cpu time    0.3349: real time    0.3349
    TRIAL :  cpu time   10.3021: real time   10.3591
    CORREC:  cpu time    3.5167: real time    3.5209
    CHARGE:  cpu time    1.1172: real time    1.1178
    --------------------------------------------
      LOOP:  cpu time   15.5218: real time   15.5836

 eigenvalue-minimisations  :     0
 total energy-change (2. order) :-0.1462393E+00  (-0.1225885E+00)
 number of electron     179.9999996 magnetization       9.6023095
 augmentation part       58.1280748 magnetization       6.6668035

 Free energy of the ion-electron system (eV)
  ---------------------------------------------------
  alpha Z        PSCENC =       532.25742704
  Ewald energy   TEWEN  =     -8601.05107233
  -Hartree energ DENC   =     -1680.54584043
  -exchange      EXHF   =         0.00000000
  -V(xc)+E(xc)   XCENC  =      -666.17791457
  PAW double counting   =     13003.51597638   -12174.10488909
  entropy T*S    EENTRO =         0.02033157
  eigenvalues    EBANDS =       885.16295726
  atomic energy  EATOM  =      8465.11600846
  ---------------------------------------------------
  free energy    TOTEN  =      -235.80873141 eV

  energy without entropy =     -235.82906298  energy(sigma->0) =     -235.81550860


--------------------------------------------------------------------------------------------------------




--------------------------------------- Iteration      1(  19)  ---------------------------------------


    POTLOK:  cpu time    0.2459: real time    0.2459
    SETDIJ:  cpu time    0.3402: real time    0.3401
    TRIAL :  cpu time    9.6366: real time   10.4426
    CORREC:  cpu time    3.5144: real time    3.5165
    CHARGE:  cpu time    1.1244: real time    1.1247
    --------------------------------------------
      LOOP:  cpu time   14.8628: real time   15.6719

 eigenvalue-minimisations  :     0
 total energy-change (2. order) :-0.1221983E+00  (-0.4312029E-01)
 number of electron     179.9999996 magnetization       9.6188727
 augmentation part       57.9687930 magnetization       6.6917604

 Free energy of the ion-electron system (eV)
  ---------------------------------------------------
  alpha Z        PSCENC =       532.25742704
  Ewald energy   TEWEN  =     -8601.05107233
  -Hartree energ DENC   =     -1671.80585463
  -exchange      EXHF   =         0.00000000
  -V(xc)+E(xc)   XCENC  =      -666.32881645
  PAW double counting   =     12972.25275345   -12141.49282645
  entropy T*S    EENTRO =         0.02081574
  eigenvalues    EBANDS =       875.10111967
  atomic energy  EATOM  =      8465.11600846
  ---------------------------------------------------
  free energy    TOTEN  =      -235.93092967 eV

  energy without entropy =     -235.95174541  energy(sigma->0) =     -235.93786825


--------------------------------------------------------------------------------------------------------




--------------------------------------- Iteration      1(  20)  ---------------------------------------


    POTLOK:  cpu time    0.2465: real time    0.2465
    SETDIJ:  cpu time    0.3128: real time    0.3238
    TRIAL :  cpu time    9.6158: real time    9.6748
    CORREC:  cpu time    3.5835: real time    3.5846
    CHARGE:  cpu time    1.0807: real time    1.1468
    --------------------------------------------
      LOOP:  cpu time   14.8555: real time   14.9934

 eigenvalue-minimisations  :     0
 total energy-change (2. order) :-0.4298287E-01  (-0.4956981E-01)
 number of electron     179.9999996 magnetization       9.6405969
 augmentation part       57.8538870 magnetization       6.7274073

 Free energy of the ion-electron system (eV)
  ---------------------------------------------------
  alpha Z        PSCENC =       532.25742704
  Ewald energy   TEWEN  =     -8601.05107233
  -Hartree energ DENC   =     -1663.74848940
  -exchange      EXHF   =         0.00000000
  -V(xc)+E(xc)   XCENC  =      -666.55532961
  PAW double counting   =     12960.59070181   -12128.23037576
  entropy T*S    EENTRO =         0.02191638
  eigenvalues    EBANDS =       865.62640150
  atomic energy  EATOM  =      8465.11600846
  ---------------------------------------------------
  free energy    TOTEN  =      -235.97391254 eV

  energy without entropy =     -235.99582892  energy(sigma->0) =     -235.98121800


--------------------------------------------------------------------------------------------------------




--------------------------------------- Iteration      1(  21)  ---------------------------------------


    POTLOK:  cpu time    0.2459: real time    0.2459
    SETDIJ:  cpu time    0.3365: real time    0.3364
    TRIAL :  cpu time   10.3920: real time   10.4816
    CORREC:  cpu time    3.5080: real time    3.5095
    CHARGE:  cpu time    1.1207: real time    1.1208
    --------------------------------------------
      LOOP:  cpu time   15.6049: real time   15.6963

 eigenvalue-minimisations  :     0
 total energy-change (2. order) :-0.4960087E-01  (-0.3596144E-01)
 number of electron     179.9999996 magnetization       9.6537184
 augmentation part       57.9156205 magnetization       6.7594532

 Free energy of the ion-electron system (eV)
  ---------------------------------------------------
  alpha Z        PSCENC =       532.25742704
  Ewald energy   TEWEN  =     -8601.05107233
  -Hartree energ DENC   =     -1659.78729069
  -exchange      EXHF   =         0.00000000
  -V(xc)+E(xc)   XCENC  =      -666.62299817
  PAW double counting   =     12962.51994332   -12129.25078198
  entropy T*S    EENTRO =         0.02294132
  eigenvalues    EBANDS =       860.77333455
  atomic energy  EATOM  =      8465.11600846
  ---------------------------------------------------
  free energy    TOTEN  =      -236.02351341 eV

  energy without entropy =     -236.04645474  energy(sigma->0) =     -236.03116052


--------------------------------------------------------------------------------------------------------




--------------------------------------- Iteration      1(  22)  ---------------------------------------


    POTLOK:  cpu time    0.2467: real time    0.2468
    SETDIJ:  cpu time    0.3188: real time    0.3188
    TRIAL :  cpu time    9.5526: real time   10.3827
    CORREC:  cpu time    3.4967: real time    3.5103
    CHARGE:  cpu time    1.1022: real time    1.1036
    --------------------------------------------
      LOOP:  cpu time   14.7208: real time   15.5663

 eigenvalue-minimisations  :     0
 total energy-change (2. order) :-0.3590007E-01  (-0.1550196E-01)
 number of electron     179.9999996 magnetization       9.6601454
 augmentation part       57.9922579 magnetization       6.7738997

 Free energy of the ion-electron system (eV)
  ---------------------------------------------------
  alpha Z        PSCENC =       532.25742704
  Ewald energy   TEWEN  =     -8601.05107233
  -Hartree energ DENC   =     -1665.00297664
  -exchange      EXHF   =         0.00000000
  -V(xc)+E(xc)   XCENC  =      -666.37753443
  PAW double counting   =     12979.74866443   -12147.48314124
  entropy T*S    EENTRO =         0.02346565
  eigenvalues    EBANDS =       866.71026991
  atomic energy  EATOM  =      8465.11600846
  ---------------------------------------------------
  free energy    TOTEN  =      -236.05941348 eV

  energy without entropy =     -236.08287913  energy(sigma->0) =     -236.06723537


--------------------------------------------------------------------------------------------------------




--------------------------------------- Iteration      1(  23)  ---------------------------------------


    POTLOK:  cpu time    0.2454: real time    0.2459
    SETDIJ:  cpu time    0.3399: real time    0.3405
    TRIAL :  cpu time    9.5296: real time   10.3280
    CORREC:  cpu time    3.4937: real time    3.5041
    CHARGE:  cpu time    1.1129: real time    1.1297
    --------------------------------------------
[...]
  8.441  14.384   0.000  -0.000  -0.000   0.000  -0.000  -0.000
 14.384  24.514   0.000  -0.000  -0.000   0.001  -0.000  -0.000
  0.000   0.000   1.996  -0.000   0.000   5.750  -0.000   0.000
 -0.000  -0.000  -0.000   1.996  -0.000  -0.000   5.748  -0.000
 -0.000  -0.000   0.000  -0.000   1.996   0.000  -0.000   5.750
  0.000   0.001   5.750  -0.000   0.000  16.478  -0.000   0.000
 -0.000  -0.000  -0.000   5.748  -0.000  -0.000  16.474  -0.000
 -0.000  -0.000   0.000  -0.000   5.750   0.000  -0.000  16.478
 total augmentation occupancy for first ion, spin component:           1
  4.358  -1.242  -0.002  -0.003   0.003   0.000   0.000  -0.000
 -1.242   0.373  -0.000   0.000  -0.002  -0.000  -0.000   0.000
 -0.002  -0.000   1.401  -0.002  -0.002  -0.100   0.000   0.000
 -0.003   0.000  -0.002   1.507   0.010   0.000  -0.102  -0.000
  0.003  -0.002  -0.002   0.010   1.399   0.000  -0.000  -0.100
  0.000  -0.000  -0.100   0.000   0.000   0.007  -0.000  -0.000
  0.000  -0.000   0.000  -0.102  -0.000  -0.000   0.007   0.000
 -0.000   0.000   0.000  -0.000  -0.100  -0.000   0.000   0.007
 total augmentation occupancy for first ion, spin component:           2
 -0.179   0.054  -0.018  -0.023   0.015   0.001   0.001  -0.001
  0.054  -0.017  -0.003  -0.005   0.003   0.000   0.000  -0.000
 -0.018  -0.003  -0.066   0.023  -0.012   0.004  -0.000   0.000
 -0.023  -0.005   0.023  -0.118  -0.026  -0.000   0.005   0.001
  0.015   0.003  -0.012  -0.026  -0.059   0.000   0.001   0.004
  0.001   0.000   0.004  -0.000   0.000  -0.000  -0.000   0.000
  0.001   0.000  -0.000   0.005   0.001  -0.000  -0.000   0.000
 -0.001  -0.000   0.000   0.001   0.004   0.000   0.000  -0.000


------------------------ aborting loop because EDIFF is reached ----------------------------------------


 


 total charge     
 
# of ion       s       p       d       tot
------------------------------------------
    1        0.404   0.425   0.000   0.830
    2        0.404   0.425   0.000   0.830
    3        0.405   0.425   0.000   0.830
    4        0.405   0.425   0.000   0.829
    5        0.405   0.428   0.000   0.834
    6        0.405   0.428   0.000   0.833
    7        0.405   0.426   0.000   0.832
    8        0.406   0.427   0.000   0.832
    9        0.405   0.429   0.000   0.834
   10        0.405   0.429   0.000   0.834
   11        0.407   0.426   0.000   0.833
   12        0.406   0.426   0.000   0.832
   13        0.405   0.427   0.000   0.832
   14        0.405   0.428   0.000   0.832
   15        0.405   0.428   0.000   0.833
   16        0.405   0.428   0.000   0.832
   17        0.405   0.427   0.000   0.831
   18        0.405   0.426   0.000   0.831
   19        0.334   0.351   5.139   5.824
   20        0.338   0.352   5.123   5.813
   21        0.332   0.353   5.140   5.825
   22        0.333   0.355   5.124   5.813
   23        0.333   0.356   5.122   5.811
   24        0.330   0.352   5.148   5.829
   25        0.332   0.354   5.141   5.826
   26        0.332   0.354   5.139   5.825
   27        0.337   0.351   5.127   5.815
   28        0.331   0.355   5.139   5.826
   29        0.335   0.352   5.139   5.826
   30        0.331   0.349   5.145   5.826
   31        0.331   0.350   5.148   5.830
   32        0.335   0.350   5.140   5.825
   33        0.333   0.355   5.138   5.826
   34        0.333   0.348   5.143   5.824
   35        0.335   0.349   5.139   5.823
   36        0.333   0.355   5.137   5.825
--------------------------------------------------
tot         13.288  14.025  92.471 119.784
 


 magnetization (x)
 
# of ion       s       p       d       tot
------------------------------------------
    1       -0.015  -0.026   0.000  -0.041
    2       -0.015  -0.026   0.000  -0.040
    3       -0.015  -0.026   0.000  -0.041
    4       -0.015  -0.026   0.000  -0.041
    5       -0.010  -0.019   0.000  -0.028
    6       -0.009  -0.019   0.000  -0.028
    7       -0.000   0.001   0.000   0.000
    8       -0.000   0.001   0.000   0.000
    9       -0.000  -0.000   0.000  -0.000
   10       -0.000  -0.001   0.000  -0.001
   11        0.006   0.018   0.000   0.025
   12        0.007   0.018   0.000   0.025
   13       -0.006  -0.010   0.000  -0.016
   14       -0.006  -0.010   0.000  -0.016
   15       -0.005  -0.010   0.000  -0.016
   16       -0.006  -0.010   0.000  -0.016
   17       -0.001   0.001   0.000   0.000
   18       -0.000   0.001   0.000   0.001
   19        0.021   0.012   2.378   2.410
   20        0.027   0.023   2.528   2.579
   21       -0.022  -0.025  -2.217  -2.263
   22        0.019   0.026   2.407   2.452
   23        0.022   0.035   2.422   2.479
   24       -0.023  -0.031  -2.097  -2.152
   25        0.022   0.026   2.161   2.210
   26       -0.015  -0.025  -2.173  -2.213
   27       -0.022  -0.011  -2.516  -2.549
   28       -0.020  -0.019  -2.139  -2.177
   29       -0.025  -0.029  -2.139  -2.193
   30       -0.014   0.001  -2.336  -2.350
   31        0.005   0.008   2.171   2.184
   32        0.011   0.020   2.240   2.271
   33        0.025   0.031   2.144   2.199
   34        0.017   0.004   2.389   2.410
   35        0.021   0.012   2.408   2.440
   36        0.023   0.023   2.211   2.257
--------------------------------------------------
tot         -0.018  -0.062   9.842   9.761
 
    FORLOC:  cpu time    0.0282: real time    0.0282
    FORNL :  cpu time   13.5141: real time   13.6385
    STRESS:  cpu time   19.1564: real time   19.2188
    FORCOR:  cpu time    0.2701: real time    0.2701
    OFIELD:  cpu time    0.0014: real time    0.0014

  FORCE on cell =-STRESS in cart. coord.  units (eV):
  Direction    XX          YY          ZZ          XY          YZ          ZX
  --------------------------------------------------------------------------------------
  Alpha Z   532.25743   532.25743   532.25743
  Ewald   -2702.40749 -2702.40749 -3196.26924    -0.00000    -0.00000    -0.00000
  Hartree   720.62219   721.52608   226.45986    -0.01730    -0.00000    -0.00000
  E(xc)    -759.74636  -760.15298  -760.17533    -0.00449    -0.00000    -0.00000
  Local     252.90081   248.24235  1260.73325    -0.02920     0.00000    -0.00000
  n-local  -111.94517  -113.61633  -122.67411    -0.32123    -0.31757     0.04457
  augment   519.59383   521.35931   514.97942     0.08243     0.00001     0.00001
  Kinetic  1554.64913  1556.32288  1545.74780    -0.02149     1.23680    -0.22390
  Fock        0.00000     0.00000     0.00000     0.00000     0.00000     0.00000
  -------------------------------------------------------------------------------------
  Total       5.92436     3.53123     1.05908    -0.31128     0.00000     0.00000
  in kB      20.05575    11.95428     3.58530    -1.05378     0.00000     0.00000
  external pressure =       11.87 kB  Pullay stress =        0.00 kB


 VOLUME and BASIS-vectors are now :
 -----------------------------------------------------------------------------
  energy-cutoff  :      404.80
  volume of cell :      473.27
      direct lattice vectors                 reciprocal lattice vectors
     8.250148166  0.000000000  0.000000000     0.121209944  0.000000000  0.000000000
     0.000000000  8.250148166  0.000000000     0.000000000  0.121209944  0.000000000
     0.000000000  0.000000000  6.953274261     0.000000000  0.000000000  0.143817137

  length of vectors
     8.250148166  8.250148166  6.953274261     0.121209944  0.121209944  0.143817137


 FORCES acting on ions:
    Electron-Ion                     Ewald-Force                    Non-Local-Force
 -----------------------------------------------------------------------------------------------
   -.175E-01 -.345E-01 0.262E-01   -.239E-08 -.239E-08 0.411E-08   -.494E-01 0.707E-01 0.665E-01
   -.175E-01 -.345E-01 -.262E-01   -.239E-08 -.239E-08 0.411E-08   -.494E-01 0.707E-01 -.665E-01
   -.201E-01 0.393E-01 0.152E-01   -.239E-08 -.802E-09 0.411E-08   -.448E-01 -.600E-01 -.590E-01
   -.201E-01 0.393E-01 -.152E-01   -.239E-08 -.802E-09 0.411E-08   -.448E-01 -.600E-01 0.590E-01
   -.160E+00 0.522E-02 0.218E-01   -.239E-08 0.631E-08 0.411E-08   -.515E-01 -.677E-02 -.239E-01
   -.160E+00 0.522E-02 -.218E-01   -.239E-08 0.631E-08 0.411E-08   -.515E-01 -.677E-02 0.239E-01
   0.229E-01 -.688E-01 0.703E-02   -.802E-09 -.239E-08 0.411E-08   0.268E-01 -.305E-02 -.192E-01
   0.229E-01 -.688E-01 -.703E-02   -.802E-09 -.239E-08 0.411E-08   0.268E-01 -.305E-02 0.192E-01
   0.723E-02 0.442E-01 0.317E-01   -.802E-09 -.802E-09 0.411E-08   0.248E-01 0.126E-01 -.272E-01
   0.723E-02 0.442E-01 -.317E-01   -.802E-09 -.802E-09 0.411E-08   0.248E-01 0.126E-01 0.272E-01
   0.182E+00 0.179E-01 0.156E-01   -.802E-09 0.631E-08 0.411E-08   0.956E-01 -.534E-02 -.240E-01
   0.182E+00 0.179E-01 -.156E-01   -.802E-09 0.631E-08 0.411E-08   0.956E-01 -.534E-02 0.240E-01
   0.143E-01 -.793E-01 0.317E-02   0.631E-08 -.239E-08 0.411E-08   0.353E-01 0.322E-01 0.304E-01
   0.143E-01 -.793E-01 -.317E-02   0.631E-08 -.239E-08 0.411E-08   0.353E-01 0.322E-01 -.304E-01
   0.494E-01 0.670E-01 0.454E-01   0.631E-08 -.802E-09 0.411E-08   0.213E-01 -.248E-01 -.332E-02
   0.494E-01 0.670E-01 -.454E-01   0.631E-08 -.802E-09 0.411E-08   0.213E-01 -.248E-01 0.332E-02
   -.372E-01 -.163E-01 0.416E-01   0.631E-08 0.631E-08 0.411E-08   -.374E-01 0.111E-01 -.303E-01
   -.372E-01 -.163E-01 -.416E-01   0.631E-08 0.631E-08 0.411E-08   -.374E-01 0.111E-01 0.303E-01
   -.256E-01 -.473E+00 -.945E-09   -.169E-07 -.169E-07 -.411E-08   0.154E-01 0.279E+00 0.000E+00
   -.570E+00 0.602E+00 -.299E-08   -.169E-07 -.169E-07 -.411E-08   0.221E+00 -.319E+00 0.000E+00
   0.480E+00 -.308E+00 0.605E-09   -.169E-07 0.802E-09 -.411E-08   -.306E+00 0.262E+00 0.000E+00
   -.360E+00 -.629E+00 -.569E-08   -.169E-07 0.802E-09 -.411E-08   0.189E+00 0.395E+00 0.000E+00
   -.469E+00 0.620E+00 -.250E-08   -.169E-07 0.130E-07 -.411E-08   0.312E+00 -.370E+00 0.000E+00
   0.541E+00 0.178E+00 -.308E-08   -.169E-07 0.130E-07 -.411E-08   -.334E+00 -.991E-01 0.000E+00
   0.155E+00 0.110E+00 -.290E-08   0.802E-09 -.169E-07 -.411E-08   -.130E+00 -.151E+00 0.000E+00
   -.494E-01 -.563E-01 -.940E-09   0.802E-09 -.169E-07 -.411E-08   0.202E-01 -.980E-04 0.000E+00
   -.363E+00 0.598E+00 -.122E-08   0.802E-09 0.802E-09 -.411E-08   0.223E+00 -.344E+00 0.000E+00
   0.236E+00 0.170E+00 -.331E-08   0.802E-09 0.802E-09 -.411E-08   -.191E+00 -.144E+00 0.000E+00
   0.230E+00 -.747E+00 -.413E-08   0.802E-09 0.130E-07 -.411E-08   -.206E+00 0.414E+00 0.000E+00
   -.336E+00 -.776E-01 -.877E-09   0.802E-09 0.130E-07 -.411E-08   0.312E+00 0.920E-01 0.000E+00
   -.175E+00 0.747E-01 -.244E-08   0.130E-07 -.169E-07 -.411E-08   0.150E+00 -.522E-01 0.000E+00
   0.389E+00 -.265E-02 -.104E-08   0.130E-07 -.169E-07 -.411E-08   -.195E+00 0.278E-02 0.000E+00
   -.179E+00 -.619E-01 -.732E-09   0.130E-07 0.802E-09 -.411E-08   0.157E+00 0.510E-01 0.000E+00
   0.204E+00 0.827E-01 -.357E-08   0.130E-07 0.802E-09 -.411E-08   -.126E+00 -.151E+00 0.000E+00
   0.295E+00 0.200E-01 -.380E-08   0.130E-07 0.130E-07 -.411E-08   -.199E+00 0.462E-01 0.000E+00
   -.272E+00 -.856E-01 -.995E-09   0.130E-07 0.130E-07 -.411E-08   0.242E+00 0.749E-01 0.000E+00
 -----------------------------------------------------------------------------------------------
   -.196E+00 -.396E-01 -.762E-07   -.197E-14 0.275E-13 0.265E-14   0.196E+00 0.396E-01 0.000E+00
 
 
 POSITION                                       TOTAL-FORCE (eV/Angst)
 -----------------------------------------------------------------------------------
      0.00000      0.00000      0.00000        -0.061823      0.029489      0.086204
      0.00000      0.00000      3.47664        -0.061823      0.029489     -0.086204
      0.00000      2.75005      0.00000        -0.060222     -0.014792     -0.038209
      0.00000      2.75005      3.47664        -0.060222     -0.014792      0.038209
      0.00000      5.50010      0.00000        -0.205948     -0.000852     -0.000016
      0.00000      5.50010      3.47664        -0.205948     -0.000852      0.000016
      2.75005      0.00000      0.00000         0.047491     -0.072424     -0.010653
      2.75005      0.00000      3.47664         0.047491     -0.072424      0.010653
      2.75005      2.75005      0.00000         0.030031      0.056314      0.006538
      2.75005      2.75005      3.47664         0.030031      0.056314     -0.006538
      2.75005      5.50010      0.00000         0.268941      0.013165     -0.006074
      2.75005      5.50010      3.47664         0.268941      0.013165      0.006074
      5.50010      0.00000      0.00000         0.046133     -0.050111      0.030959
      5.50010      0.00000      3.47664         0.046133     -0.050111     -0.030959
      5.50010      2.75005      0.00000         0.068457      0.044448      0.042367
      5.50010      2.75005      3.47664         0.068457      0.044448     -0.042367
      5.50010      5.50010      0.00000        -0.072399     -0.006320      0.014507
      5.50010      5.50010      3.47664        -0.072399     -0.006320     -0.014507
      1.37502      1.37502      1.73832        -0.014682     -0.206235      0.000000
      1.37502      1.37502      5.21496        -0.364549      0.295813      0.000000
      1.37502      4.12507      1.73832         0.186229     -0.048724      0.000000
      1.37502      4.12507      5.21496        -0.175644     -0.243226      0.000000
      1.37502      6.87512      1.73832        -0.163468      0.258677      0.000000
      1.37502      6.87512      5.21496         0.219370      0.081258      0.000000
      4.12507      1.37502      1.73832         0.029273     -0.037494      0.000000
      4.12507      1.37502      5.21496        -0.034513     -0.059158      0.000000
      4.12507      4.12507      1.73832        -0.149576      0.269828      0.000000
      4.12507      4.12507      5.21496         0.048000      0.032624      0.000000
      4.12507      6.87512      1.73832         0.023049     -0.351235      0.000000
      4.12507      6.87512      5.21496        -0.031054      0.011089      0.000000
      6.87512      1.37502      1.73832        -0.023762      0.021092      0.000000
      6.87512      1.37502      5.21496         0.204284      0.001859      0.000000
      6.87512      4.12507      1.73832        -0.024486     -0.011091      0.000000
      6.87512      4.12507      5.21496         0.082546     -0.070138      0.000000
      6.87512      6.87512      1.73832         0.104748      0.067565      0.000000
      6.87512      6.87512      5.21496        -0.037089     -0.010336      0.000000
 -----------------------------------------------------------------------------------
    total drift:                               -0.000021      0.000003     -0.000000


--------------------------------------------------------------------------------------------------------



  FREE ENERGIE OF THE ION-ELECTRON SYSTEM (eV)
  ---------------------------------------------------
  free  energy   TOTEN  =      -236.12957812 eV

  energy  without entropy=     -236.15632418  energy(sigma->0) =     -236.13849347
 


--------------------------------------------------------------------------------------------------------


    POTLOK:  cpu time    0.6210: real time    0.6209


--------------------------------------------------------------------------------------------------------


     LOOP+:  cpu time 1128.1644: real time 1152.5625
    4ORBIT:  cpu time    0.0000: real time    0.0000
 


 total charge     
 
# of ion       s       p       d       tot
------------------------------------------
    1        0.404   0.425   0.000   0.830
    2        0.404   0.425   0.000   0.830
    3        0.405   0.425   0.000   0.830
    4        0.405   0.425   0.000   0.829
    5        0.405   0.428   0.000   0.834
    6        0.405   0.428   0.000   0.833
    7        0.405   0.426   0.000   0.832
    8        0.406   0.427   0.000   0.832
    9        0.405   0.429   0.000   0.834
   10        0.405   0.429   0.000   0.834
   11        0.407   0.426   0.000   0.833
   12        0.406   0.426   0.000   0.832
   13        0.405   0.427   0.000   0.832
   14        0.405   0.428   0.000   0.832
   15        0.405   0.428   0.000   0.833
   16        0.405   0.428   0.000   0.832
   17        0.405   0.427   0.000   0.831
   18        0.405   0.426   0.000   0.831
   19        0.334   0.351   5.139   5.824
   20        0.338   0.352   5.123   5.813
   21        0.332   0.353   5.140   5.825
   22        0.333   0.355   5.124   5.813
   23        0.333   0.356   5.122   5.811
   24        0.330   0.352   5.148   5.829
   25        0.332   0.354   5.141   5.826
   26        0.332   0.354   5.139   5.825
   27        0.337   0.351   5.127   5.815
   28        0.331   0.355   5.139   5.826
   29        0.335   0.352   5.139   5.826
   30        0.331   0.349   5.145   5.826
   31        0.331   0.350   5.148   5.830
   32        0.335   0.350   5.140   5.825
   33        0.333   0.355   5.138   5.826
   34        0.333   0.348   5.143   5.824
   35        0.335   0.349   5.139   5.823
   36        0.333   0.355   5.137   5.825
--------------------------------------------------
tot         13.288  14.025  92.471 119.784
 


 magnetization (x)
 
# of ion       s       p       d       tot
------------------------------------------
    1       -0.015  -0.026   0.000  -0.041
    2       -0.015  -0.026   0.000  -0.040
    3       -0.015  -0.026   0.000  -0.041
    4       -0.015  -0.026   0.000  -0.041
    5       -0.010  -0.019   0.000  -0.028
    6       -0.009  -0.019   0.000  -0.028
    7       -0.000   0.001   0.000   0.000
    8       -0.000   0.001   0.000   0.000
    9       -0.000  -0.000   0.000  -0.000
   10       -0.000  -0.001   0.000  -0.001
   11        0.006   0.018   0.000   0.025
   12        0.007   0.018   0.000   0.025
   13       -0.006  -0.010   0.000  -0.016
   14       -0.006  -0.010   0.000  -0.016
   15       -0.005  -0.010   0.000  -0.016
   16       -0.006  -0.010   0.000  -0.016
   17       -0.001   0.001   0.000   0.000
   18       -0.000   0.001   0.000   0.001
   19        0.021   0.012   2.378   2.410
   20        0.027   0.023   2.528   2.579
   21       -0.022  -0.025  -2.217  -2.263
   22        0.019   0.026   2.407   2.452
   23        0.022   0.035   2.422   2.479
   24       -0.023  -0.031  -2.097  -2.152
   25        0.022   0.026   2.161   2.210
   26       -0.015  -0.025  -2.173  -2.213
   27       -0.022  -0.011  -2.516  -2.549
   28       -0.020  -0.019  -2.139  -2.177
   29       -0.025  -0.029  -2.139  -2.193
   30       -0.014   0.001  -2.336  -2.350
   31        0.005   0.008   2.171   2.184
   32        0.011   0.020   2.240   2.271
   33        0.025   0.031   2.144   2.199
   34        0.017   0.004   2.389   2.410
   35        0.021   0.012   2.408   2.440
   36        0.023   0.023   2.211   2.257
--------------------------------------------------
tot         -0.018  -0.062   9.842   9.761
 

 total amount of memory used by VASP MPI-rank0   775081. kBytes
=======================================================================

   base      :      30000. kBytes
   nonl-proj :      34307. kBytes
   fftplans  :      21726. kBytes
   grid      :      14732. kBytes
   one-center:        279. kBytes
   wavefun   :     674037. kBytes
 
  
  
 General timing and accounting informations for this job:
 ========================================================
  
                  Total CPU time used (sec):     1156.132
                            User time (sec):     1133.907
                          System time (sec):       22.224
                         Elapsed time (sec):     1184.088
  
                   Maximum memory used (kb):      915880.
                   Average memory used (kb):           0.
  
                          Minor page faults:       526584
                          Major page faults:           17
                 Voluntary context switches:         3444
